<event>
 7    1  0.2690635E-009  0.1118230E+03  0.7561462E-02  0.1257231E+00
          2   -1    0    0  501    0  0.00000000000E+00  0.00000000000E+00  0.93595410705E+02  0.93595410705E+02  0.00000000000E+00 0. -1.
         -2   -1    0    0    0  501 -0.00000000000E+00 -0.00000000000E+00 -0.21496337519E+03  0.21496337519E+03  0.00000000000E+00 0.  1.
         25    2    1    2    0    0 -0.14073053826E+02 -0.88367077769E+02 -0.87475361866E+02  0.17693987041E+03  0.12509591332E+03 0.  0.
          5    1    3    3  502    0 -0.25630624294E+02 -0.70344316650E+02  0.11258098223E+02  0.75825252800E+02  0.41800000000E+01 0. -1.
         -5    1    3    3    0  502  0.11557570468E+02 -0.18022761119E+02 -0.98733460089E+02  0.10111461761E+03  0.41800000000E+01 0. -1.
        -11    1    1    2    0    0  0.50992937942E+02  0.34596612208E+02 -0.11706320631E+02  0.62723546128E+02  0.00000000000E+00 0. -1.
         11    1    1    2    0    0 -0.36919884115E+02  0.53770465561E+02 -0.22186281984E+02  0.68895369351E+02  0.00000000000E+00 0.  1.
</event>
<event>
 7    1  0.2690635E-009  0.8338274E+02  0.7561462E-02  0.1319717E+00
         -2   -1    0    0    0  501 -0.00000000000E+00  0.00000000000E+00  0.24655968430E+02  0.24655968430E+02  0.00000000000E+00 0.  1.
          2   -1    0    0  501    0  0.00000000000E+00 -0.00000000000E+00 -0.58842602476E+03  0.58842602476E+03  0.00000000000E+00 0. -1.
         25    2    1    2    0    0 -0.47580661077E+01  0.51348099267E+02 -0.34869168211E+03  0.37402651112E+03  0.12510265928E+03 0.  0.
          5    1    3    3  502    0 -0.38794868795E+01  0.56062535727E+02 -0.35818942968E+03  0.36259508858E+03  0.41800000000E+01 0.  1.
         -5    1    3    3    0  502 -0.87857922814E+00 -0.47144364595E+01  0.94977475648E+01  0.11431422545E+02  0.41800000000E+01 0.  1.
        -11    1    1    2    0    0 -0.42647112278E+02 -0.19171227451E+02 -0.10568497760E+03  0.11556654637E+03  0.00000000000E+00 0. -1.
         11    1    1    2    0    0  0.47405178386E+02 -0.32176871816E+02 -0.10939339662E+03  0.12348893570E+03  0.00000000000E+00 0.  1.
</event>
<event>
 7    1  0.2690635E-009  0.8449588E+02  0.7561462E-02  0.1316756E+00
          1   -1    0    0  501    0  0.00000000000E+00  0.00000000000E+00  0.18668190203E+03  0.18668190203E+03  0.00000000000E+00 0. -1.
         -1   -1    0    0    0  501 -0.00000000000E+00 -0.00000000000E+00 -0.64539996020E+02  0.64539996020E+02  0.00000000000E+00 0.  1.
         25    2    1    2    0    0  0.15079461590E+02  0.16434491905E+01  0.61920035951E+02  0.14039848733E+03  0.12509018069E+03 0.  0.
          5    1    3    3  502    0  0.49887398041E+02  0.29197655903E+02  0.74197480318E+02  0.94148786923E+02  0.41800000000E+01 0.  1.
         -5    1    3    3    0  502 -0.34807936451E+02 -0.27554206713E+02 -0.12277444367E+02  0.46249700407E+02  0.41800000000E+01 0.  1.
        -11    1    1    2    0    0  0.34945342743E+01 -0.31277991790E+02 -0.94544079832E+01  0.32861989753E+02  0.00000000000E+00 0.  1.
         11    1    1    2    0    0 -0.18573995865E+02  0.29634542600E+02  0.69676278043E+02  0.77961420968E+02  0.00000000000E+00 0. -1.
</event>
<event>
 7    1  0.2690635E-009  0.9221543E+02  0.7561462E-02  0.1297574E+00
         -1   -1    0    0    0  501 -0.00000000000E+00  0.00000000000E+00  0.13468270894E+03  0.13468270894E+03  0.00000000000E+00 0.  1.
          1   -1    0    0  501    0  0.00000000000E+00 -0.00000000000E+00 -0.11716315074E+03  0.11716315074E+03  0.00000000000E+00 0. -1.
         25    2    1    2    0    0 -0.57821390647E+02  0.11370985276E+02 -0.11007742579E+02  0.13871244368E+03  0.12508940448E+03 0.  0.
          5    1    3    3  502    0  0.59648938423E+01 -0.23317908663E+02  0.42088370867E+02  0.48664239286E+02  0.41800000000E+01 0.  1.
         -5    1    3    3    0  502 -0.63786284490E+02  0.34688893939E+02 -0.53096113446E+02  0.90048204395E+02  0.41800000000E+01 0.  1.
        -11    1    1    2    0    0  0.66293326195E+02  0.73742496634E+01  0.50026900293E+02  0.83377907200E+02  0.00000000000E+00 0.  1.
         11    1    1    2    0    0 -0.84719355474E+01 -0.18745234939E+02 -0.21499599507E+02  0.29755508798E+02  0.00000000000E+00 0. -1.
</event>
<event>
 7    1  0.2690635E-009  0.1390298E+03  0.7561462E-02  0.1214640E+00
          1   -1    0    0  501    0  0.00000000000E+00  0.00000000000E+00  0.11136931068E+04  0.11136931068E+04  0.00000000000E+00 0. -1.
         -1   -1    0    0    0  501 -0.00000000000E+00 -0.00000000000E+00 -0.18935076223E+02  0.18935076223E+02  0.00000000000E+00 0.  1.
         25    2    1    2    0    0 -0.58550133478E+02  0.75475780139E+02  0.63640858929E+03  0.65558104714E+03  0.12508359337E+03 0.  0.
          5    1    3    3  502    0 -0.37578973777E+02 -0.28954209363E+02  0.14071564771E+03  0.14855602116E+03  0.41800000000E+01 0. -1.
         -5    1    3    3    0  502 -0.20971159700E+02  0.10442998950E+03  0.49569294158E+03  0.50702502599E+03  0.41800000000E+01 0. -1.
        -11    1    1    2    0    0  0.43576161460E+02  0.32546346389E+01  0.89577914593E+02  0.99667834716E+02  0.00000000000E+00 0.  1.
         11    1    1    2    0    0  0.14973972018E+02 -0.78730414778E+02  0.36877152670E+03  0.37737930117E+03  0.00000000000E+00 0. -1.
</event>
<event>
 7    1  0.2690635E-009  0.8477128E+02  0.7561462E-02  0.1316032E+00
         -1   -1    0    0    0  501 -0.00000000000E+00  0.00000000000E+00  0.49630615168E+02  0.49630615168E+02  0.00000000000E+00 0.  1.
          1   -1    0    0  501    0  0.00000000000E+00 -0.00000000000E+00 -0.42196072801E+03  0.42196072801E+03  0.00000000000E+00 0. -1.
         25    2    1    2    0    0 -0.66217485491E+02 -0.63870446291E+01 -0.90125132430E+02  0.16790925641E+03  0.12508168998E+03 0.  0.
          5    1    3    3  502    0 -0.69209879105E+02  0.21624728528E+01 -0.11878798374E+03  0.13755995470E+03  0.41800000000E+01 0.  1.
         -5    1    3    3    0  502  0.29923936135E+01 -0.85495174819E+01  0.28662851314E+02  0.30349301708E+02  0.41800000000E+01 0.  1.
        -11    1    1    2    0    0  0.93143165638E+01 -0.23960298282E+02 -0.17169643477E+02  0.30913573781E+02  0.00000000000E+00 0.  1.
         11    1    1    2    0    0  0.56903168927E+02  0.30347342911E+02 -0.26503533694E+03  0.27276851299E+03  0.00000000000E+00 0. -1.
</event>
<event>
 7    1  0.2690635E-009  0.1232336E+03  0.7561462E-02  0.1237856E+00
          2   -1    0    0  501    0  0.00000000000E+00  0.00000000000E+00  0.35387881049E+03  0.35387881049E+03  0.00000000000E+00 0.  1.
         -2   -1    0    0    0  501 -0.00000000000E+00 -0.00000000000E+00 -0.56287511836E+02  0.56287511836E+02  0.00000000000E+00 0. -1.
         25    2    1    2    0    0 -0.46471293041E+02  0.64063342666E+02  0.99162189963E+02  0.17816885872E+03  0.12508920557E+03 0.  0.
          5    1    3    3  502    0 -0.66979383587E+01 -0.30786157267E+02 -0.44782956573E+01  0.32096376580E+02  0.41800000000E+01 0. -1.
         -5    1    3    3    0  502 -0.39773354682E+02  0.94849499933E+02  0.10364048562E+03  0.14607248214E+03  0.41800000000E+01 0. -1.
        -11    1    1    2    0    0  0.34299966311E+02  0.10755236761E+02  0.28315643240E+02  0.45759572319E+02  0.00000000000E+00 0.  1.
         11    1    1    2    0    0  0.12171326730E+02 -0.74818579426E+02  0.17011346546E+03  0.18623789129E+03  0.00000000000E+00 0. -1.
</event>
<event>
 7    1  0.2690635E-009  0.1161978E+03  0.7561462E-02  0.1249505E+00
          2   -1    0    0  501    0  0.00000000000E+00  0.00000000000E+00  0.17801831012E+03  0.17801831012E+03  0.00000000000E+00 0. -1.
         -2   -1    0    0    0  501 -0.00000000000E+00 -0.00000000000E+00 -0.86838598761E+02  0.86838598761E+02  0.00000000000E+00 0.  1.
         25    2    1    2    0    0 -0.11547031169E+02  0.55015651579E+02  0.19987017538E+02  0.13859160375E+03  0.12509234954E+03 0.  0.
          5    1    3    3  502    0  0.13348136208E+01 -0.37125131860E+02 -0.13317662884E+02  0.39684879838E+02  0.41800000000E+01 0. -1.
         -5    1    3    3    0  502 -0.12881844790E+02  0.92140783439E+02  0.33304680422E+02  0.98906723917E+02  0.41800000000E+01 0. -1.
        -11    1    1    2    0    0  0.47045682759E+02 -0.17400704321E+02  0.21611792746E+02  0.54618223725E+02  0.00000000000E+00 0.  1.
         11    1    1    2    0    0 -0.35498651591E+02 -0.37614947258E+02  0.49580901075E+02  0.71647081402E+02  0.00000000000E+00 0. -1.
</event>
<event>
 7    1  0.2690635E-009  0.1264627E+03  0.7561462E-02  0.1232801E+00
         -2   -1    0    0    0  501 -0.00000000000E+00  0.00000000000E+00  0.34944029421E+02  0.34944029421E+02  0.00000000000E+00 0.  1.
          2   -1    0    0  501    0  0.00000000000E+00 -0.00000000000E+00 -0.77418654598E+03  0.77418654598E+03  0.00000000000E+00 0. -1.
         25    2    1    2    0    0  0.93746622393E+02 -0.13967578905E+02 -0.19149477039E+03  0.24759181918E+03  0.12509172382E+03 0.  0.
          5    1    3    3  502    0  0.42362064054E+02 -0.62412471413E+02 -0.53667639765E+02  0.92669029437E+02  0.41800000000E+01 0.  1.
         -5    1    3    3    0  502  0.51384558338E+02  0.48444892508E+02 -0.13782713063E+03  0.15492278975E+03  0.41800000000E+01 0.  1.
        -11    1    1    2    0    0 -0.12390453062E+02 -0.15732996277E+02 -0.26881364326E+02  0.33521012022E+02  0.00000000000E+00 0.  1.
         11    1    1    2    0    0 -0.81356169331E+02  0.29700575182E+02 -0.52086638184E+03  0.52801774419E+03  0.00000000000E+00 0. -1.
</event>
<event>
 7    1  0.2690635E-009  0.1101721E+03  0.7561462E-02  0.1260252E+00
         -2   -1    0    0    0  501 -0.00000000000E+00  0.00000000000E+00  0.17117942812E+03  0.17117942812E+03  0.00000000000E+00 0.  1.
          2   -1    0    0  501    0  0.00000000000E+00 -0.00000000000E+00 -0.76775151380E+02  0.76775151380E+02  0.00000000000E+00 0. -1.
         25    2    1    2    0    0  0.17880267018E+02 -0.32906405271E+02  0.50301291624E+02  0.13992948883E+03  0.12508999340E+03 0.  0.
          5    1    3    3  502    0  0.40352273639E+02  0.32797547012E+02 -0.30558939670E+01  0.52257018340E+02  0.41800000000E+01 0. -1.
         -5    1    3    3    0  502 -0.22472006621E+02 -0.65703952283E+02  0.53357185591E+02  0.87672470488E+02  0.41800000000E+01 0. -1.
        -11    1    1    2    0    0  0.22958981629E+02  0.49471408770E+02  0.24726809975E+02  0.59882804332E+02  0.00000000000E+00 0.  1.
         11    1    1    2    0    0 -0.40839248647E+02 -0.16565003499E+02  0.19376175141E+02  0.48142286340E+02  0.00000000000E+00 0. -1.
</event>
<event>
 7    1  0.2690635E-009  0.7992890E+02  0.7561462E-02  0.1329253E+00
         -2   -1    0    0    0  501 -0.00000000000E+00  0.00000000000E+00  0.27360204145E+03  0.27360204145E+03  0.00000000000E+00 0.  1.
          2   -1    0    0  501    0  0.00000000000E+00 -0.00000000000E+00 -0.50345859874E+02  0.50345859874E+02  0.00000000000E+00 0. -1.
         25    2    1    2    0    0  0.33424236026E+02 -0.30297082385E+01  0.17514291762E+03  0.21782766834E+03  0.12508993892E+03 0.  0.
          5    1    3    3  502    0  0.49479537011E+02 -0.46980433702E+01  0.18941970253E+03  0.19587647204E+03  0.41800000000E+01 0. -1.
         -5    1    3    3    0  502 -0.16055300984E+02  0.16683351317E+01 -0.14276784909E+02  0.21951196303E+02  0.41800000000E+01 0. -1.
        -11    1    1    2    0    0 -0.59452402984E+02  0.19424073962E+02  0.40226250909E+02  0.74364199264E+02  0.00000000000E+00 0.  1.
         11    1    1    2    0    0  0.26028166958E+02 -0.16394365724E+02  0.78870130514E+01  0.31756033719E+02  0.00000000000E+00 0. -1.
</event>
<event>
 7    1  0.2690635E-009  0.6179609E+02  0.7561462E-02  0.1390445E+00
          2   -1    0    0  501    0  0.00000000000E+00  0.00000000000E+00  0.18352257482E+03  0.18352257482E+03  0.00000000000E+00 0. -1.
         -2   -1    0    0    0  501 -0.00000000000E+00 -0.00000000000E+00 -0.79723477952E+02  0.79723477952E+02  0.00000000000E+00 0.  1.
         25    2    1    2    0    0  0.30416760227E+02  0.20694490355E+02  0.11453059115E+03  0.17354484574E+03  0.12508843248E+03 0.  0.
          5    1    3    3  502    0 -0.13290440447E+02 -0.66994706150E+01 -0.22368339976E+02  0.27190692287E+02  0.41800000000E+01 0.  1.
         -5    1    3    3    0  502  0.43707200674E+02  0.27393960970E+02  0.13689893113E+03  0.14635415345E+03  0.41800000000E+01 0.  1.
        -11    1    1    2    0    0 -0.10617436148E+02  0.13314005705E+02  0.29095166742E+02  0.33712333441E+02  0.00000000000E+00 0. -1.
         11    1    1    2    0    0 -0.19799324079E+02 -0.34008496060E+02 -0.39826661023E+02  0.55988873596E+02  0.00000000000E+00 0.  1.
</event>
<event>
 7    1  0.2690635E-009  0.8138542E+02  0.7561462E-02  0.1325165E+00
         -2   -1    0    0    0  501 -0.00000000000E+00  0.00000000000E+00  0.60347324628E+02  0.60347324628E+02  0.00000000000E+00 0.  1.
          2   -1    0    0  501    0  0.00000000000E+00 -0.00000000000E+00 -0.28353154229E+03  0.28353154229E+03  0.00000000000E+00 0. -1.
         25    2    1    2    0    0  0.35781208627E+02  0.57049594923E+02 -0.62144799581E+02  0.15506832669E+03  0.12509699699E+03 0.  0.
          5    1    3    3  502    0  0.28574429306E+02  0.17975208299E+02  0.35742429107E+02  0.49341663551E+02  0.41800000000E+01 0.  1.
         -5    1    3    3    0  502  0.72067793213E+01  0.39074386624E+02 -0.97887228688E+02  0.10572666314E+03  0.41800000000E+01 0.  1.
        -11    1    1    2    0    0 -0.30734519263E+02  0.78830146325E+00 -0.99784614443E+02  0.10441360722E+03  0.00000000000E+00 0.  1.
         11    1    1    2    0    0 -0.50466893642E+01 -0.57837896386E+02 -0.61254803634E+02  0.84396933002E+02  0.00000000000E+00 0. -1.
</event>
<event>
 7    1  0.2690635E-009  0.8610603E+02  0.7561462E-02  0.1312565E+00
          1   -1    0    0  501    0  0.00000000000E+00  0.00000000000E+00  0.88161081221E+02  0.88161081221E+02  0.00000000000E+00 0. -1.
         -1   -1    0    0    0  501 -0.00000000000E+00 -0.00000000000E+00 -0.15196635453E+03  0.15196635453E+03  0.00000000000E+00 0.  1.
         25    2    1    2    0    0  0.27491851942E+01 -0.30619553537E+02 -0.76703238194E+02  0.14992006776E+03  0.12509006712E+03 0.  0.
          5    1    3    3  502    0  0.42443541308E+02  0.15476252683E+02 -0.76503232918E+02  0.88944846072E+02  0.41800000000E+01 0. -1.
         -5    1    3    3    0  502 -0.39694356113E+02 -0.46095806220E+02 -0.20000527561E+00  0.60975221692E+02  0.41800000000E+01 0. -1.
        -11    1    1    2    0    0 -0.30494805047E+02  0.17720437707E+02  0.37104333843E+02  0.51192564278E+02  0.00000000000E+00 0. -1.
         11    1    1    2    0    0  0.27745619853E+02  0.12899115830E+02 -0.24206368956E+02  0.39014803707E+02  0.00000000000E+00 0.  1.
</event>
<event>
 7    1  0.2690635E-009  0.1024240E+03  0.7561462E-02  0.1275280E+00
         -2   -1    0    0    0  501 -0.00000000000E+00  0.00000000000E+00  0.83858330874E+02  0.83858330874E+02  0.00000000000E+00 0.  1.
          2   -1    0    0  501    0  0.00000000000E+00 -0.00000000000E+00 -0.22385191630E+03  0.22385191630E+03  0.00000000000E+00 0. -1.
         25    2    1    2    0    0 -0.67751846446E+02 -0.41874413096E+02 -0.50704438405E+02  0.15672167989E+03  0.12508783196E+03 0.  0.
          5    1    3    3  502    0 -0.68941036863E+02 -0.10937872445E+01  0.22638290639E+02  0.72691316795E+02  0.41800000000E+01 0.  1.
         -5    1    3    3    0  502  0.11891904174E+01 -0.40780625851E+02 -0.73342729043E+02  0.84030363097E+02  0.41800000000E+01 0.  1.
        -11    1    1    2    0    0  0.41454833043E+02  0.52069251674E+02 -0.10596531612E+02  0.67394336815E+02  0.00000000000E+00 0.  1.
         11    1    1    2    0    0  0.26297013403E+02 -0.10194838579E+02 -0.78692615407E+02  0.83594230466E+02  0.00000000000E+00 0. -1.
</event>
<event>
 7    1  0.2690635E-009  0.1619064E+03  0.7561462E-02  0.1186561E+00
          1   -1    0    0  501    0  0.00000000000E+00  0.00000000000E+00  0.16406965617E+03  0.16406965617E+03  0.00000000000E+00 0. -1.
         -1   -1    0    0    0  501 -0.00000000000E+00 -0.00000000000E+00 -0.18698210934E+03  0.18698210934E+03  0.00000000000E+00 0.  1.
         25    2    1    2    0    0  0.38287122453E+02 -0.13125593532E+03 -0.18258445630E+02  0.18621504251E+03  0.12509455192E+03 0.  0.
          5    1    3    3  502    0  0.51745027323E+02 -0.14144732577E+03  0.12173785147E+02  0.15116404092E+03  0.41800000000E+01 0.  1.
         -5    1    3    3    0  502 -0.13457904870E+02  0.10191390458E+02 -0.30432230776E+02  0.35051001597E+02  0.41800000000E+01 0.  1.
        -11    1    1    2    0    0  0.89081179702E+01 -0.59101226314E+01  0.15035109248E+02  0.18448268900E+02  0.00000000000E+00 0. -1.
         11    1    1    2    0    0 -0.47195240423E+02  0.13716605795E+03 -0.19689116795E+02  0.14638845409E+03  0.00000000000E+00 0.  1.
</event>
<event>
 7    1  0.2690635E-009  0.9369493E+02  0.7561462E-02  0.1294143E+00
         -2   -1    0    0    0  501 -0.00000000000E+00  0.00000000000E+00  0.44997289701E+02  0.44997289701E+02  0.00000000000E+00 0.  1.
          2   -1    0    0  501    0  0.00000000000E+00 -0.00000000000E+00 -0.63721463399E+03  0.63721463399E+03  0.00000000000E+00 0. -1.
         25    2    1    2    0    0  0.39952962444E+02  0.45885573664E+01 -0.56683445658E+03  0.58186694078E+03  0.12510212444E+03 0.  0.
          5    1    3    3  502    0 -0.31844299147E+02  0.26385079112E+02 -0.34831921331E+03  0.35079050521E+03  0.41800000000E+01 0. -1.
         -5    1    3    3    0  502  0.71797261592E+02 -0.21796521746E+02 -0.21851524327E+03  0.23107643557E+03  0.41800000000E+01 0. -1.
        -11    1    1    2    0    0 -0.14100005075E+02  0.26635354170E+02  0.22497749408E+02  0.37608522482E+02  0.00000000000E+00 0.  1.
         11    1    1    2    0    0 -0.25852957369E+02 -0.31223911536E+02 -0.47880637115E+02  0.62736460427E+02  0.00000000000E+00 0. -1.
</event>
<event>
 7    1  0.2690635E-009  0.1283234E+03  0.7561462E-02  0.1229965E+00
         -1   -1    0    0    0  501 -0.00000000000E+00  0.00000000000E+00  0.53564248232E+02  0.53564248232E+02  0.00000000000E+00 0.  1.
          1   -1    0    0  501    0  0.00000000000E+00 -0.00000000000E+00 -0.43799992982E+03  0.43799992982E+03  0.00000000000E+00 0. -1.
         25    2    1    2    0    0 -0.10437599351E+03 -0.79092141523E+01 -0.23567159256E+03  0.28660955022E+03  0.12508809314E+03 0.  0.
          5    1    3    3  502    0 -0.10502687314E+03  0.10928075837E+02 -0.24375699136E+03  0.26567839611E+03  0.41800000000E+01 0.  1.
         -5    1    3    3    0  502  0.65087963486E+00 -0.18837289989E+02  0.80853987988E+01  0.20931154105E+02  0.41800000000E+01 0.  1.
        -11    1    1    2    0    0  0.11464435375E+03  0.19377320503E+02 -0.14968071028E+03  0.18953396378E+03  0.00000000000E+00 0. -1.
         11    1    1    2    0    0 -0.10268360240E+02 -0.11468106351E+02  0.91662125411E+00  0.15420664053E+02  0.00000000000E+00 0.  1.
</event>
<event>
 7    1  0.2690635E-009  0.5880147E+02  0.7561462E-02  0.1402931E+00
         -2   -1    0    0    0  501 -0.00000000000E+00  0.00000000000E+00  0.40677896558E+03  0.40677896558E+03  0.00000000000E+00 0.  1.
          2   -1    0    0  501    0  0.00000000000E+00 -0.00000000000E+00 -0.32415583338E+02  0.32415583338E+02  0.00000000000E+00 0. -1.
         25    2    1    2    0    0 -0.33916482698E+01  0.35617541380E+02  0.28328410815E+03  0.31173213849E+03  0.12508768005E+03 0.  0.
          5    1    3    3  502    0 -0.15981150935E+02  0.34107901682E+02  0.11476841445E+02  0.39597177070E+02  0.41800000000E+01 0. -1.
         -5    1    3    3    0  502  0.12589502665E+02  0.15096396977E+01  0.27180726671E+03  0.27213496142E+03  0.41800000000E+01 0. -1.
        -11    1    1    2    0    0 -0.79105697467E+01 -0.48543718264E+02  0.17970252467E+02  0.52364106699E+02  0.00000000000E+00 0. -1.
         11    1    1    2    0    0  0.11302218016E+02  0.12926176884E+02  0.73109021625E+02  0.75098303735E+02  0.00000000000E+00 0.  1.
</event>
<event>
 7    1  0.2690635E-009  0.1241813E+03  0.7561462E-02  0.1236354E+00
         -4   -1    0    0    0  501 -0.00000000000E+00  0.00000000000E+00  0.53713784631E+02  0.53713784631E+02  0.00000000000E+00 0.  1.
          4   -1    0    0  501    0  0.00000000000E+00 -0.00000000000E+00 -0.35443873393E+03  0.35443873393E+03  0.00000000000E+00 0. -1.
         25    2    1    2    0    0 -0.14157877394E+02  0.81039213181E+02 -0.16708858971E+03  0.22435346898E+03  0.12509229659E+03 0.  0.
          5    1    3    3  502    0  0.85517249024E+00 -0.24816326656E+02  0.88592103872E+00  0.25196004540E+02  0.41800000000E+01 0. -1.
         -5    1    3    3    0  502 -0.15013049884E+02  0.10585553984E+03 -0.16797451075E+03  0.19915746444E+03  0.41800000000E+01 0. -1.
        -11    1    1    2    0    0 -0.34441545329E+02 -0.37768933765E+02 -0.24375598258E+02  0.56629340389E+02  0.00000000000E+00 0.  1.
         11    1    1    2    0    0  0.48599422723E+02 -0.43270279415E+02 -0.10926076133E+03  0.12716970920E+03  0.00000000000E+00 0. -1.
</event>
<event>
 7    1  0.2690635E-009  0.1140013E+03  0.7561462E-02  0.1253334E+00
         -1   -1    0    0    0  501 -0.00000000000E+00  0.00000000000E+00  0.56324738377E+03  0.56324738377E+03  0.00000000000E+00 0.  1.
          1   -1    0    0  501    0  0.00000000000E+00 -0.00000000000E+00 -0.30792914622E+02  0.30792914622E+02  0.00000000000E+00 0. -1.
         25    2    1    2    0    0 -0.70746585508E+02  0.32100852891E+01  0.34109354014E+03  0.37014531257E+03  0.12508942915E+03 0.  0.
          5    1    3    3  502    0  0.21665649744E+01  0.40293718580E+02  0.35966341566E+02  0.54215568672E+02  0.41800000000E+01 0.  1.
         -5    1    3    3    0  502 -0.72913150482E+02 -0.37083633291E+02  0.30512719857E+03  0.31592974390E+03  0.41800000000E+01 0.  1.
        -11    1    1    2    0    0 -0.85810018872E+00  0.27572164017E+02  0.15750574010E+02  0.31765408012E+02  0.00000000000E+00 0. -1.
         11    1    1    2    0    0  0.71604685696E+02 -0.30782249306E+02  0.17561035500E+03  0.19212957781E+03  0.00000000000E+00 0.  1.
</event>
<event>
 7    1  0.2690635E-009  0.1044939E+03  0.7561462E-02  0.1271120E+00
          2   -1    0    0  501    0  0.00000000000E+00  0.00000000000E+00  0.93402579470E+02  0.93402579470E+02  0.00000000000E+00 0. -1.
         -2   -1    0    0    0  501 -0.00000000000E+00 -0.00000000000E+00 -0.16786955006E+03  0.16786955006E+03  0.00000000000E+00 0.  1.
         25    2    1    2    0    0  0.77643332161E+01  0.57026208385E+02 -0.69797393541E+02  0.15437494490E+03  0.12509066374E+03 0.  0.
          5    1    3    3  502    0 -0.27334702629E+02 -0.75838998751E+01 -0.75248523151E+02  0.80526480996E+02  0.41800000000E+01 0. -1.
         -5    1    3    3    0  502  0.35099035846E+02  0.64610108260E+02  0.54511296094E+01  0.73848463902E+02  0.41800000000E+01 0. -1.
        -11    1    1    2    0    0 -0.12211619069E+01  0.24674608033E+02  0.11231819964E+01  0.24730326641E+02  0.00000000000E+00 0.  1.
         11    1    1    2    0    0 -0.65431713092E+01 -0.81700816418E+02 -0.57927590404E+01  0.82166857987E+02  0.00000000000E+00 0. -1.
</event>
<event>
 7    1  0.2690635E-009  0.1340242E+03  0.7561462E-02  0.1221604E+00
         -1   -1    0    0    0  501 -0.00000000000E+00  0.00000000000E+00  0.21501175106E+03  0.21501175106E+03  0.00000000000E+00 0.  1.
          1   -1    0    0  501    0  0.00000000000E+00 -0.00000000000E+00 -0.89087669838E+02  0.89087669838E+02  0.00000000000E+00 0. -1.
         25    2    1    2    0    0 -0.17238190539E+02 -0.83801142180E+02  0.51802934950E+02  0.16015806324E+03  0.12508906629E+03 0.  0.
          5    1    3    3  502    0 -0.53271127107E+02 -0.98747978842E+02  0.39935472347E+02  0.11916916824E+03  0.41800000000E+01 0. -1.
         -5    1    3    3    0  502  0.36032936568E+02  0.14946836662E+02  0.11867462603E+02  0.40988894991E+02  0.41800000000E+01 0. -1.
        -11    1    1    2    0    0  0.14925202206E+02  0.99527906900E+02  0.43908581251E+02  0.10980222867E+03  0.00000000000E+00 0. -1.
         11    1    1    2    0    0  0.23129883325E+01 -0.15726764720E+02  0.30212565025E+02  0.34139129001E+02  0.00000000000E+00 0.  1.
</event>
<event>
 7    1  0.2690635E-009  0.9583001E+02  0.7561462E-02  0.1289318E+00
          2   -1    0    0  501    0  0.00000000000E+00  0.00000000000E+00  0.17636498430E+03  0.17636498430E+03  0.00000000000E+00 0. -1.
         -2   -1    0    0    0  501 -0.00000000000E+00 -0.00000000000E+00 -0.74478825812E+02  0.74478825812E+02  0.00000000000E+00 0.  1.
         25    2    1    2    0    0  0.29204272891E+02  0.17436684533E+02  0.82731761651E+02  0.15378113058E+03  0.12508862544E+03 0.  0.
          5    1    3    3  502    0  0.20910890280E+02  0.62978254171E+02  0.84189481283E+02  0.10727938753E+03  0.41800000000E+01 0. -1.
         -5    1    3    3    0  502  0.82933826111E+01 -0.45541569638E+02 -0.14577196317E+01  0.46501743051E+02  0.41800000000E+01 0. -1.
        -11    1    1    2    0    0  0.17733578879E+02 -0.25505096529E+02 -0.18670586698E+02  0.36243352169E+02  0.00000000000E+00 0.  1.
         11    1    1    2    0    0 -0.46937851770E+02  0.80684119958E+01  0.37824983530E+02  0.60819327356E+02  0.00000000000E+00 0. -1.
</event>
<event>
 7    1  0.2690635E-009  0.1004935E+03  0.7561462E-02  0.1279262E+00
         -3   -1    0    0    0  501 -0.00000000000E+00  0.00000000000E+00  0.38263837099E+02  0.38263837099E+02  0.00000000000E+00 0.  1.
          3   -1    0    0  501    0  0.00000000000E+00 -0.00000000000E+00 -0.47695244186E+03  0.47695244186E+03  0.00000000000E+00 0. -1.
         25    2    1    2    0    0  0.22161477036E+02  0.33887840329E+02 -0.11107644140E+03  0.17212061162E+03  0.12509201542E+03 0.  0.
          5    1    3    3  502    0 -0.39591013298E+02 -0.19235402273E+02 -0.16408861227E+02  0.47161129772E+02  0.41800000000E+01 0. -1.
         -5    1    3    3    0  502  0.61752490334E+02  0.53123242603E+02 -0.94667580173E+02  0.12495948184E+03  0.41800000000E+01 0. -1.
        -11    1    1    2    0    0  0.10988395398E+02  0.13480237621E+02 -0.95888071112E+01  0.19859679291E+02  0.00000000000E+00 0.  1.
         11    1    1    2    0    0 -0.33149872434E+02 -0.47368077950E+02 -0.31802335625E+03  0.32323598805E+03  0.00000000000E+00 0. -1.
</event>
<event>
 7    1  0.2690635E-009  0.1367632E+03  0.7561462E-02  0.1217752E+00
          2   -1    0    0  501    0  0.00000000000E+00  0.00000000000E+00  0.11424930730E+04  0.11424930730E+04  0.00000000000E+00 0. -1.
         -2   -1    0    0    0  501 -0.00000000000E+00 -0.00000000000E+00 -0.17280909440E+02  0.17280909440E+02  0.00000000000E+00 0.  1.
         25    2    1    2    0    0 -0.81139441465E+02 -0.23034322190E+02  0.73005077980E+03  0.74547707782E+03  0.12509094095E+03 0.  0.
          5    1    3    3  502    0 -0.51995927102E+02  0.49431212809E+02  0.31171888267E+03  0.31989553833E+03  0.41800000000E+01 0.  1.
         -5    1    3    3    0  502 -0.29143514363E+02 -0.72465534999E+02  0.41833189713E+03  0.42558153948E+03  0.41800000000E+01 0.  1.
        -11    1    1    2    0    0  0.39210823071E+02  0.57205819005E+02  0.24778779703E+03  0.25731068134E+03  0.00000000000E+00 0. -1.
         11    1    1    2    0    0  0.41928618393E+02 -0.34171496815E+02  0.14737358674E+03  0.15698622330E+03  0.00000000000E+00 0.  1.
</event>
<event>
 7    1  0.2690635E-009  0.1129386E+03  0.7561462E-02  0.1255223E+00
          2   -1    0    0  501    0  0.00000000000E+00  0.00000000000E+00  0.45949431605E+03  0.45949431605E+03  0.00000000000E+00 0. -1.
         -2   -1    0    0    0  501 -0.00000000000E+00 -0.00000000000E+00 -0.61367364678E+02  0.61367364678E+02  0.00000000000E+00 0.  1.
         25    2    1    2    0    0  0.73938835724E+02 -0.82593861975E+02  0.31917829441E+03  0.36029241519E+03  0.12508854208E+03 0.  0.
          5    1    3    3  502    0  0.64655199707E+02 -0.54241176539E+02  0.31917151797E+03  0.33016712490E+03  0.41800000000E+01 0. -1.
         -5    1    3    3    0  502  0.92836360166E+01 -0.28352685436E+02  0.67764344226E-02  0.30125290290E+02  0.41800000000E+01 0. -1.
        -11    1    1    2    0    0 -0.20460899632E+02  0.29455136762E+02  0.77239878304E+02  0.85160156739E+02  0.00000000000E+00 0. -1.
         11    1    1    2    0    0 -0.53477936092E+02  0.53138725213E+02  0.17087786670E+01  0.75409108803E+02  0.00000000000E+00 0.  1.
</event>
<event>
 7    1  0.2690635E-009  0.1338502E+03  0.7561462E-02  0.1221852E+00
         -2   -1    0    0    0  501 -0.00000000000E+00  0.00000000000E+00  0.57441346100E+02  0.57441346100E+02  0.00000000000E+00 0.  1.
          2   -1    0    0  501    0  0.00000000000E+00 -0.00000000000E+00 -0.38931378700E+03  0.38931378700E+03  0.00000000000E+00 0. -1.
         25    2    1    2    0    0  0.57121153339E+02  0.83809589288E+02 -0.15909082815E+03  0.22636985859E+03  0.12508616174E+03 0.  0.
          5    1    3    3  502    0  0.68196460329E+02  0.10645807288E+03 -0.15567067123E+03  0.20058641221E+03  0.41800000000E+01 0.  1.
         -5    1    3    3    0  502 -0.11075306990E+02 -0.22648483588E+02 -0.34201569204E+01  0.25783446378E+02  0.41800000000E+01 0.  1.
        -11    1    1    2    0    0 -0.32058347384E+02 -0.43780957764E+01 -0.45639404361E+01  0.32676213243E+02  0.00000000000E+00 0.  1.
         11    1    1    2    0    0 -0.25062805955E+02 -0.79431493512E+02 -0.16821767231E+03  0.18770906127E+03  0.00000000000E+00 0. -1.
</event>
<event>
 7    1  0.2690635E-009  0.1483532E+03  0.7561462E-02  0.1202511E+00
          1   -1    0    0  501    0  0.00000000000E+00  0.00000000000E+00  0.61964796719E+02  0.61964796719E+02  0.00000000000E+00 0. -1.
         -1   -1    0    0    0  501 -0.00000000000E+00 -0.00000000000E+00 -0.59520093476E+03  0.59520093476E+03  0.00000000000E+00 0.  1.
         25    2    1    2    0    0 -0.92975507781E+02  0.75355001613E+02 -0.10332205472E+03  0.20160092317E+03  0.12507863094E+03 0.  0.
          5    1    3    3  502    0 -0.42418132325E+01  0.56821515872E+02  0.83151619616E+01  0.57734668649E+02  0.41800000000E+01 0.  1.
         -5    1    3    3    0  502 -0.88733694548E+02  0.18533485741E+02 -0.11163721668E+03  0.14386625452E+03  0.41800000000E+01 0.  1.
        -11    1    1    2    0    0 -0.13901244765E+02  0.53587812014E+01 -0.25299676157E+02  0.29360428396E+02  0.00000000000E+00 0. -1.
         11    1    1    2    0    0  0.10687675255E+03 -0.80713782814E+02 -0.40461440716E+03  0.42620437991E+03  0.00000000000E+00 0.  1.
</event>
<event>
 7    1  0.2690635E-009  0.9490383E+02  0.7561462E-02  0.1291393E+00
          2   -1    0    0  501    0  0.00000000000E+00  0.00000000000E+00  0.23770041568E+03  0.23770041568E+03  0.00000000000E+00 0. -1.
         -2   -1    0    0    0  501 -0.00000000000E+00 -0.00000000000E+00 -0.97020807951E+02  0.97020807951E+02  0.00000000000E+00 0.  1.
         25    2    1    2    0    0 -0.71882949263E+02 -0.23440048081E+02 -0.36132262571E+01  0.14620813464E+03  0.12508864450E+03 0.  0.
          5    1    3    3  502    0 -0.47506687787E+01 -0.34384803288E+02  0.48943812337E+02  0.60148588654E+02  0.41800000000E+01 0.  1.
         -5    1    3    3    0  502 -0.67132280485E+02  0.10944755207E+02 -0.52557038594E+02  0.86059545986E+02  0.41800000000E+01 0.  1.
        -11    1    1    2    0    0  0.20102163062E+02  0.28274952396E+02 -0.46621518819E+00  0.34695637325E+02  0.00000000000E+00 0.  1.
         11    1    1    2    0    0  0.51780786201E+02 -0.48349043150E+01  0.14475904917E+03  0.15381745166E+03  0.00000000000E+00 0. -1.
</event>
<event>
 7    1  0.2690635E-009  0.1467022E+03  0.7561462E-02  0.1204585E+00
         -2   -1    0    0    0  501 -0.00000000000E+00  0.00000000000E+00  0.12183722070E+03  0.12183722070E+03  0.00000000000E+00 0.  1.
          2   -1    0    0  501    0  0.00000000000E+00 -0.00000000000E+00 -0.25133340987E+03  0.25133340987E+03  0.00000000000E+00 0. -1.
         25    2    1    2    0    0 -0.84791277600E+02 -0.94010761508E+02 -0.26207598556E+02  0.17989525158E+03  0.12509148366E+03 0.  0.
          5    1    3    3  502    0 -0.40312896750E+01 -0.39160511560E+02  0.44289858923E+02  0.59404216732E+02  0.41800000000E+01 0. -1.
         -5    1    3    3    0  502 -0.80759987925E+02 -0.54850249948E+02 -0.70497457479E+02  0.12049103485E+03  0.41800000000E+01 0. -1.
        -11    1    1    2    0    0  0.97785932968E+02  0.10163201918E+03 -0.71559425422E+02  0.15815153296E+03  0.00000000000E+00 0.  1.
         11    1    1    2    0    0 -0.12994655368E+02 -0.76212576737E+01 -0.31729165187E+02  0.35123846033E+02  0.00000000000E+00 0. -1.
</event>
<event>
 7    1  0.2690635E-009  0.1478906E+03  0.7561462E-02  0.1203089E+00
         -1   -1    0    0    0  501 -0.00000000000E+00  0.00000000000E+00  0.98233390166E+02  0.98233390166E+02  0.00000000000E+00 0.  1.
          1   -1    0    0  501    0  0.00000000000E+00 -0.00000000000E+00 -0.32091120451E+03  0.32091120451E+03  0.00000000000E+00 0. -1.
         25    2    1    2    0    0 -0.57874915783E+02 -0.12584372522E+03 -0.10021139915E+03  0.21184161678E+03  0.12509355310E+03 0.  0.
          5    1    3    3  502    0 -0.17295054330E+02 -0.42415566860E+02  0.27759963392E+02  0.53724176903E+02  0.41800000000E+01 0. -1.
         -5    1    3    3    0  502 -0.40579861453E+02 -0.83428158363E+02 -0.12797136254E+03  0.15811743988E+03  0.41800000000E+01 0. -1.
        -11    1    1    2    0    0  0.73547153148E+02  0.11882499519E+03 -0.78912322089E+02  0.16048588036E+03  0.00000000000E+00 0.  1.
         11    1    1    2    0    0 -0.15672237364E+02  0.70187300345E+01 -0.43554093113E+02  0.46817097541E+02  0.00000000000E+00 0. -1.
</event>
<event>
 7    1  0.2690635E-009  0.1385990E+03  0.7561462E-02  0.1215227E+00
          1   -1    0    0  501    0  0.00000000000E+00  0.00000000000E+00  0.25821718563E+03  0.25821718563E+03  0.00000000000E+00 0. -1.
         -1   -1    0    0    0  501 -0.00000000000E+00 -0.00000000000E+00 -0.77210482857E+02  0.77210482857E+02  0.00000000000E+00 0.  1.
         25    2    1    2    0    0 -0.17728610086E+02  0.87264112601E+02  0.89991731004E+02  0.17797581183E+03  0.12509016342E+03 0.  0.
          5    1    3    3  502    0 -0.68586618856E+02  0.37221738010E+02  0.26921718383E+02  0.82654905404E+02  0.41800000000E+01 0. -1.
         -5    1    3    3    0  502  0.50858008770E+02  0.50042374590E+02  0.63070012621E+02  0.95320906430E+02  0.41800000000E+01 0. -1.
        -11    1    1    2    0    0  0.31195181481E+02  0.73181910843E+01  0.15077305880E+02  0.35412150753E+02  0.00000000000E+00 0.  1.
         11    1    1    2    0    0 -0.13466571395E+02 -0.94582303685E+02  0.75937665889E+02  0.12203970590E+03  0.00000000000E+00 0. -1.
</event>
<event>
 7    1  0.2690635E-009  0.1342967E+03  0.7561462E-02  0.1221216E+00
         -3   -1    0    0    0  501 -0.00000000000E+00  0.00000000000E+00  0.11549002645E+03  0.11549002645E+03  0.00000000000E+00 0.  1.
          3   -1    0    0  501    0  0.00000000000E+00 -0.00000000000E+00 -0.26452770035E+03  0.26452770035E+03  0.00000000000E+00 0. -1.
         25    2    1    2    0    0  0.45551561703E+02 -0.87571968259E+02 -0.18123708330E+03  0.24132091289E+03  0.12508040709E+03 0.  0.
          5    1    3    3  502    0  0.77172953496E+02 -0.31603873198E+02 -0.56154030936E+02  0.10062413797E+03  0.41800000000E+01 0. -1.
         -5    1    3    3    0  502 -0.31621391793E+02 -0.55968095061E+02 -0.12508305236E+03  0.14069677491E+03  0.41800000000E+01 0. -1.
        -11    1    1    2    0    0 -0.40870115752E+02  0.88528066865E+01  0.41956141588E+02  0.59237288635E+02  0.00000000000E+00 0.  1.
         11    1    1    2    0    0 -0.46814459508E+01  0.78719161572E+02 -0.97567321851E+01  0.79459525280E+02  0.00000000000E+00 0. -1.
</event>
<event>
 7    1  0.2690635E-009  0.6910353E+02  0.7561462E-02  0.1363168E+00
          1   -1    0    0  501    0  0.00000000000E+00  0.00000000000E+00  0.81789410380E+02  0.81789410380E+02  0.00000000000E+00 0. -1.
         -1   -1    0    0    0  501 -0.00000000000E+00 -0.00000000000E+00 -0.20977468359E+03  0.20977468359E+03  0.00000000000E+00 0.  1.
         25    2    1    2    0    0 -0.31480052861E+02  0.14114271654E+02 -0.14805301077E+03  0.19686877721E+03  0.12508962807E+03 0.  0.
          5    1    3    3  502    0 -0.43907695480E+02 -0.15059857818E+02 -0.15690560663E+03  0.16368117433E+03  0.41800000000E+01 0. -1.
         -5    1    3    3    0  502  0.12427642619E+02  0.29174129472E+02  0.88525958563E+01  0.33187602880E+02  0.41800000000E+01 0. -1.
        -11    1    1    2    0    0  0.23771360793E+02 -0.32160279194E+02 -0.23870389415E+02  0.46574205764E+02  0.00000000000E+00 0.  1.
         11    1    1    2    0    0  0.77086920685E+01  0.18046007539E+02  0.43938126973E+02  0.48121110995E+02  0.00000000000E+00 0. -1.
</event>
<event>
 7    1  0.2690635E-009  0.1167216E+03  0.7561462E-02  0.1248605E+00
         -1   -1    0    0    0  501 -0.00000000000E+00  0.00000000000E+00  0.11109568163E+03  0.11109568163E+03  0.00000000000E+00 0.  1.
          1   -1    0    0  501    0  0.00000000000E+00 -0.00000000000E+00 -0.16395825356E+03  0.16395825356E+03  0.00000000000E+00 0. -1.
         25    2    1    2    0    0  0.33199863046E+02  0.71852311031E+02 -0.18990572581E+02  0.14924089428E+03  0.12508883712E+03 0.  0.
          5    1    3    3  502    0  0.59161863912E+01 -0.19728592746E+02 -0.45385861880E+02  0.50015672461E+02  0.41800000000E+01 0.  1.
         -5    1    3    3    0  502  0.27283676654E+02  0.91580903777E+02  0.26395289298E+02  0.99225221821E+02  0.41800000000E+01 0.  1.
        -11    1    1    2    0    0  0.24944961944E+02 -0.47673015303E+02 -0.32434246485E+02  0.62824739231E+02  0.00000000000E+00 0. -1.
         11    1    1    2    0    0 -0.58144824989E+02 -0.24179295729E+02 -0.14377528609E+01  0.62988301678E+02  0.00000000000E+00 0.  1.
</event>
<event>
 7    1  0.2690635E-009  0.1531165E+03  0.7561462E-02  0.1196695E+00
         -2   -1    0    0    0  501 -0.00000000000E+00  0.00000000000E+00  0.18636059923E+03  0.18636059923E+03  0.00000000000E+00 0.  1.
          2   -1    0    0  501    0  0.00000000000E+00 -0.00000000000E+00 -0.18298361649E+03  0.18298361649E+03  0.00000000000E+00 0. -1.
         25    2    1    2    0    0 -0.24722915208E+02  0.14450120253E+03 -0.26315565984E+02  0.19450518066E+03  0.12509171125E+03 0.  0.
          5    1    3    3  502    0 -0.23552391852E+01  0.52427649494E+02 -0.72030315707E+02  0.89219080717E+02  0.41800000000E+01 0.  1.
         -5    1    3    3    0  502 -0.22367676023E+02  0.92073553036E+02  0.45714749723E+02  0.10528609994E+03  0.41800000000E+01 0.  1.
        -11    1    1    2    0    0 -0.20464329366E+02 -0.41832534914E+02 -0.21790834795E+02  0.51415855869E+02  0.00000000000E+00 0.  1.
         11    1    1    2    0    0  0.45187244573E+02 -0.10266866762E+03  0.51483383527E+02  0.12342317919E+03  0.00000000000E+00 0. -1.
</event>
<event>
 7    1  0.2690635E-009  0.1971186E+03  0.7561462E-02  0.1152193E+00
          1   -1    0    0  501    0  0.00000000000E+00  0.00000000000E+00  0.10117379150E+03  0.10117379150E+03  0.00000000000E+00 0. -1.
         -1   -1    0    0    0  501 -0.00000000000E+00 -0.00000000000E+00 -0.49790337850E+03  0.49790337850E+03  0.00000000000E+00 0.  1.
         25    2    1    2    0    0 -0.94528078078E+02  0.16070853008E+03 -0.28687677528E+03  0.36429010473E+03  0.12508479934E+03 0.  0.
          5    1    3    3  502    0 -0.73046394884E+02  0.12614046396E+03 -0.28859101015E+03  0.32334105213E+03  0.41800000000E+01 0.  1.
         -5    1    3    3    0  502 -0.21481683194E+02  0.34568066115E+02  0.17142348693E+01  0.40949052601E+02  0.41800000000E+01 0.  1.
        -11    1    1    2    0    0  0.86426480393E+02 -0.57123082734E+02 -0.55436747670E+02  0.11749815354E+03  0.00000000000E+00 0. -1.
         11    1    1    2    0    0  0.81015976849E+01 -0.10358544734E+03 -0.54416064051E+02  0.11728891172E+03  0.00000000000E+00 0.  1.
</event>
<event>
 7    1  0.2690635E-009  0.1184362E+03  0.7561462E-02  0.1245699E+00
         -1   -1    0    0    0  501 -0.00000000000E+00  0.00000000000E+00  0.32318816404E+02  0.32318816404E+02  0.00000000000E+00 0.  1.
          1   -1    0    0  501    0  0.00000000000E+00 -0.00000000000E+00 -0.60358042486E+03  0.60358042486E+03  0.00000000000E+00 0. -1.
         25    2    1    2    0    0  0.56930024324E+02  0.66292685058E+02 -0.29374605199E+03  0.33100603201E+03  0.12506999003E+03 0.  0.
          5    1    3    3  502    0  0.42973634510E+02  0.10160653686E+03 -0.18151667584E+03  0.21245328334E+03  0.41800000000E+01 0. -1.
         -5    1    3    3    0  502  0.13956389814E+02 -0.35313851798E+02 -0.11222937615E+03  0.11855274867E+03  0.41800000000E+01 0. -1.
        -11    1    1    2    0    0 -0.44762269275E+02 -0.43407119945E+02 -0.27111872979E+03  0.27819634156E+03  0.00000000000E+00 0. -1.
         11    1    1    2    0    0 -0.12167755049E+02 -0.22885565113E+02 -0.63968266781E+01  0.26696867700E+02  0.00000000000E+00 0.  1.
</event>
<event>
 7    1  0.2912849E-009  0.8799516E+02  0.7561462E-02  0.1307781E+00
          1   -1    0    0  501    0  0.00000000000E+00  0.00000000000E+00  0.94537617390E+02  0.94537617390E+02  0.00000000000E+00 0. -1.
         -1   -1    0    0    0  501 -0.00000000000E+00 -0.00000000000E+00 -0.16385098246E+03  0.16385098246E+03  0.00000000000E+00 0.  1.
         25    2    1    2    0    0  0.23453746051E+02 -0.36221940897E+02  0.55186665726E+01  0.13242194518E+03  0.12507201397E+03 0.  0.
          5    1    3    3  502    0  0.14210156250E+02  0.46580086991E+02  0.27080895113E+01  0.48953439037E+02  0.41800000000E+01 0.  1.
         -5    1    3    3    0  502  0.92435898007E+01 -0.82802027888E+02  0.28105770613E+01  0.83468506146E+02  0.41800000000E+01 0.  1.
        -11    1    1    2    0    0 -0.13586028720E+02  0.14713462833E+02  0.19954414663E+02  0.28270918440E+02  0.00000000000E+00 0. -1.
         11    1    1    2    0    0 -0.98677173310E+01  0.21508478064E+02 -0.94786446308E+02  0.97695736231E+02  0.00000000000E+00 0.  1.
</event>
<event>
 7    1  0.2690635E-009  0.1017047E+03  0.7561462E-02  0.1276752E+00
          1   -1    0    0  501    0  0.00000000000E+00  0.00000000000E+00  0.72575982058E+03  0.72575982058E+03  0.00000000000E+00 0. -1.
         -1   -1    0    0    0  501 -0.00000000000E+00 -0.00000000000E+00 -0.23617724777E+02  0.23617724777E+02  0.00000000000E+00 0.  1.
         25    2    1    2    0    0  0.31922511715E+02 -0.21394620817E+02  0.56274361885E+03  0.57775852377E+03  0.12509098559E+03 0.  0.
          5    1    3    3  502    0  0.23512717857E+02  0.51407053893E+02  0.27671447492E+03  0.28246045054E+03  0.41800000000E+01 0. -1.
         -5    1    3    3    0  502  0.84097938578E+01 -0.72801674710E+02  0.28602914394E+03  0.29529807323E+03  0.41800000000E+01 0. -1.
        -11    1    1    2    0    0 -0.48013638699E+02  0.19107336492E+01  0.24428257661E+02  0.53904546900E+02  0.00000000000E+00 0.  1.
         11    1    1    2    0    0  0.16091126984E+02  0.19483887168E+02  0.11497021929E+03  0.11771447468E+03  0.00000000000E+00 0. -1.
</event>
<event>
 7    1  0.2690635E-009  0.1220830E+03  0.7561462E-02  0.1239700E+00
          4   -1    0    0  501    0  0.00000000000E+00  0.00000000000E+00  0.41203173493E+02  0.41203173493E+02  0.00000000000E+00 0.  1.
         -4   -1    0    0    0  501 -0.00000000000E+00 -0.00000000000E+00 -0.38098010467E+03  0.38098010467E+03  0.00000000000E+00 0. -1.
         25    2    1    2    0    0 -0.84216934922E+01 -0.59670239948E+02 -0.16306785125E+03  0.21417360895E+03  0.12509095973E+03 0.  0.
          5    1    3    3  502    0 -0.66587393481E+02 -0.27961223280E+02 -0.89655860866E+02  0.11520137484E+03  0.41800000000E+01 0.  1.
         -5    1    3    3    0  502  0.58165699989E+02 -0.31709016668E+02 -0.73411990379E+02  0.98972234110E+02  0.41800000000E+01 0.  1.
        -11    1    1    2    0    0  0.47676763751E+02  0.32060097796E+02 -0.66986970701E+02  0.88250653914E+02  0.00000000000E+00 0.  1.
         11    1    1    2    0    0 -0.39255070259E+02  0.27610142152E+02 -0.10972210923E+03  0.11975901529E+03  0.00000000000E+00 0. -1.
</event>
<event>
 7    1  0.2690635E-009  0.1134973E+03  0.7561462E-02  0.1254227E+00
          1   -1    0    0  501    0  0.00000000000E+00  0.00000000000E+00  0.73503639151E+03  0.73503639151E+03  0.00000000000E+00 0. -1.
         -1   -1    0    0    0  501 -0.00000000000E+00 -0.00000000000E+00 -0.19964116202E+02  0.19964116202E+02  0.00000000000E+00 0.  1.
         25    2    1    2    0    0 -0.27695455230E+01  0.35997385067E+02  0.52858580140E+03  0.54438364247E+03  0.12508844323E+03 0.  0.
          5    1    3    3  502    0  0.73017378779E+01 -0.45829978341E+02  0.22501707838E+03  0.22979090551E+03  0.41800000000E+01 0. -1.
         -5    1    3    3    0  502 -0.10071283401E+02  0.81827363407E+02  0.30356872302E+03  0.31459273696E+03  0.41800000000E+01 0. -1.
        -11    1    1    2    0    0  0.46276063247E+02 -0.10612914746E+02  0.93536940823E+02  0.10489645984E+03  0.00000000000E+00 0.  1.
         11    1    1    2    0    0 -0.43506517724E+02 -0.25384470321E+02  0.92949533087E+02  0.10572040540E+03  0.00000000000E+00 0. -1.
</event>
<event>
 7    1  0.2690635E-009  0.8275184E+02  0.7561462E-02  0.1321419E+00
          2   -1    0    0  501    0  0.00000000000E+00  0.00000000000E+00  0.43422076329E+03  0.43422076329E+03  0.00000000000E+00 0. -1.
         -2   -1    0    0    0  501 -0.00000000000E+00 -0.00000000000E+00 -0.26966823078E+02  0.26966823078E+02  0.00000000000E+00 0.  1.
         25    2    1    2    0    0 -0.63723113440E+01  0.29648528761E+02  0.28245142846E+03  0.31039681381E+03  0.12509089086E+03 0.  0.
          5    1    3    3  502    0 -0.18146994135E+02  0.60474946841E+02  0.26574495672E+03  0.27317464563E+03  0.41800000000E+01 0.  1.
         -5    1    3    3    0  502  0.11774682791E+02 -0.30826418079E+02  0.16706471740E+02  0.37222168186E+02  0.41800000000E+01 0.  1.
        -11    1    1    2    0    0 -0.79293216292E+01  0.17757681983E+02  0.34853971670E+01  0.19757464522E+02  0.00000000000E+00 0.  1.
         11    1    1    2    0    0  0.14301632973E+02 -0.47406210744E+02  0.12131711459E+03  0.13103330804E+03  0.00000000000E+00 0. -1.
</event>
<event>
 7    1  0.2690635E-009  0.1501479E+03  0.7561462E-02  0.1200291E+00
         -2   -1    0    0    0  501 -0.00000000000E+00  0.00000000000E+00  0.43250539948E+02  0.43250539948E+02  0.00000000000E+00 0. -1.
          2   -1    0    0  501    0  0.00000000000E+00 -0.00000000000E+00 -0.85093288564E+03  0.85093288564E+03  0.00000000000E+00 0.  1.
         25    2    1    2    0    0 -0.12575429638E+03  0.56903667125E+01 -0.20292809384E+03  0.26958076860E+03  0.12508979254E+03 0.  0.
          5    1    3    3  502    0  0.10696726751E+02  0.25962711755E+02 -0.58539182653E+01  0.28986602490E+02  0.41800000000E+01 0.  1.
         -5    1    3    3    0  502 -0.13645102313E+03 -0.20272345043E+02 -0.19707417558E+03  0.24059416611E+03  0.41800000000E+01 0.  1.
        -11    1    1    2    0    0  0.12157430887E+03 -0.16138931879E+02 -0.59996645660E+03  0.61237286578E+03  0.00000000000E+00 0.  1.
         11    1    1    2    0    0  0.41799875097E+01  0.10448565166E+02 -0.47877952561E+01  0.12229791210E+02  0.00000000000E+00 0. -1.
</event>
<event>
 7    1  0.2690635E-009  0.1360011E+03  0.7561462E-02  0.1218813E+00
          2   -1    0    0  501    0  0.00000000000E+00  0.00000000000E+00  0.25833711018E+03  0.25833711018E+03  0.00000000000E+00 0. -1.
         -2   -1    0    0    0  501 -0.00000000000E+00 -0.00000000000E+00 -0.77343637321E+02  0.77343637321E+02  0.00000000000E+00 0.  1.
         25    2    1    2    0    0 -0.80457754251E+02  0.22036463887E+02  0.57004347003E+02  0.16079776657E+03  0.12508944879E+03 0.  0.
          5    1    3    3  502    0 -0.11342443234E+03  0.21595050497E+02  0.53678525994E+02  0.12739821275E+03  0.41800000000E+01 0. -1.
         -5    1    3    3    0  502  0.32966678093E+02  0.44141339015E+00  0.33258210085E+01  0.33399553824E+02  0.41800000000E+01 0. -1.
        -11    1    1    2    0    0  0.43670363257E+02 -0.57452986217E+02  0.69111836045E+02  0.99921930195E+02  0.00000000000E+00 0. -1.
         11    1    1    2    0    0  0.36787390994E+02  0.35416522330E+02  0.54877289813E+02  0.74961050735E+02  0.00000000000E+00 0.  1.
</event>
<event>
 7    1  0.2690635E-009  0.1236852E+03  0.7561462E-02  0.1237138E+00
          1   -1    0    0  501    0  0.00000000000E+00  0.00000000000E+00  0.13396777439E+03  0.13396777439E+03  0.00000000000E+00 0. -1.
         -1   -1    0    0    0  501 -0.00000000000E+00 -0.00000000000E+00 -0.14376366090E+03  0.14376366090E+03  0.00000000000E+00 0.  1.
         25    2    1    2    0    0  0.54257846818E+02  0.64346769538E+02 -0.25370485715E+02  0.15289053539E+03  0.12508970211E+03 0.  0.
          5    1    3    3  502    0 -0.26548537428E+02 -0.19644706751E+02  0.10602347675E+01  0.33306693632E+02  0.41800000000E+01 0.  1.
         -5    1    3    3    0  502  0.80806384245E+02  0.83991476290E+02 -0.26430720483E+02  0.11958384176E+03  0.41800000000E+01 0.  1.
        -11    1    1    2    0    0  0.65968198372E+01 -0.22886778649E+02 -0.29951835888E+02  0.38267938825E+02  0.00000000000E+00 0.  1.
         11    1    1    2    0    0 -0.60854666655E+02 -0.41459990889E+02  0.45526435088E+02  0.86572961080E+02  0.00000000000E+00 0. -1.
</event>
<event>
 7    1  0.2690635E-009  0.1262895E+03  0.7561462E-02  0.1233068E+00
          1   -1    0    0  501    0  0.00000000000E+00  0.00000000000E+00  0.12036389366E+03  0.12036389366E+03  0.00000000000E+00 0. -1.
         -1   -1    0    0    0  501 -0.00000000000E+00 -0.00000000000E+00 -0.15541292456E+03  0.15541292456E+03  0.00000000000E+00 0.  1.
         25    2    1    2    0    0 -0.53058466263E+02 -0.46710330220E+02 -0.61492992216E+02  0.15629136659E+03  0.12509415408E+03 0.  0.
          5    1    3    3  502    0 -0.32693535483E+02 -0.88967765808E+02 -0.52200087369E+02  0.10828874427E+03  0.41800000000E+01 0.  1.
         -5    1    3    3    0  502 -0.20364930780E+02  0.42257435588E+02 -0.92929048471E+01  0.48002622311E+02  0.41800000000E+01 0.  1.
        -11    1    1    2    0    0  0.73621012991E+02  0.18877028416E+02  0.11451864023E+00  0.76002689887E+02  0.00000000000E+00 0.  1.
         11    1    1    2    0    0 -0.20562546727E+02  0.27833301804E+02  0.26329442674E+02  0.43482761742E+02  0.00000000000E+00 0. -1.
</event>
<event>
 7    1  0.2690635E-009  0.1003262E+03  0.7561462E-02  0.1279611E+00
          1   -1    0    0  501    0  0.00000000000E+00  0.00000000000E+00  0.12656827403E+03  0.12656827403E+03  0.00000000000E+00 0. -1.
         -1   -1    0    0    0  501 -0.00000000000E+00 -0.00000000000E+00 -0.11925776009E+03  0.11925776009E+03  0.00000000000E+00 0.  1.
         25    2    1    2    0    0  0.53066745092E+02  0.18601697621E+02  0.24683367780E+02  0.13935313253E+03  0.12509166364E+03 0.  0.
          5    1    3    3  502    0  0.69523287639E+02 -0.10927594893E+02  0.58308872887E+02  0.91489326763E+02  0.41800000000E+01 0.  1.
         -5    1    3    3    0  502 -0.16456542547E+02  0.29529292514E+02 -0.33625505107E+02  0.47863805769E+02  0.41800000000E+01 0.  1.
        -11    1    1    2    0    0  0.19981032921E+02 -0.10559613251E+02  0.13981021121E+02  0.26574725966E+02  0.00000000000E+00 0. -1.
         11    1    1    2    0    0 -0.73047778013E+02 -0.80420843697E+01 -0.31353874963E+02  0.79898175629E+02  0.00000000000E+00 0.  1.
</event>
<event>
 7    1  0.2690635E-009  0.4592807E+03  0.7561462E-02  0.1024990E+00
          1   -1    0    0  501    0  0.00000000000E+00  0.00000000000E+00  0.26579839546E+03  0.26579839546E+03  0.00000000000E+00 0. -1.
         -1   -1    0    0    0  501 -0.00000000000E+00 -0.00000000000E+00 -0.80380414315E+03  0.80380414315E+03  0.00000000000E+00 0.  1.
         25    2    1    2    0    0  0.54208908848E+02  0.44375896077E+03 -0.31923873688E+03  0.56340178822E+03  0.12509029852E+03 0.  0.
          5    1    3    3  502    0 -0.25878450639E+02  0.20719300928E+02 -0.18430863838E+02  0.38159569970E+02  0.41800000000E+01 0.  1.
         -5    1    3    3    0  502  0.80087359488E+02  0.42303965985E+03 -0.30080787304E+03  0.52524221825E+03  0.41800000000E+01 0.  1.
        -11    1    1    2    0    0 -0.75624441775E+02 -0.30872818241E+03 -0.17385135321E+03  0.36229330634E+03  0.00000000000E+00 0.  1.
         11    1    1    2    0    0  0.21415532926E+02 -0.13503077836E+03 -0.44915657595E+02  0.14390744405E+03  0.00000000000E+00 0. -1.
</event>
<event>
 7    1  0.2690635E-009  0.9476161E+02  0.7561462E-02  0.1291714E+00
          2   -1    0    0  501    0  0.00000000000E+00  0.00000000000E+00  0.44770266975E+02  0.44770266975E+02  0.00000000000E+00 0. -1.
         -2   -1    0    0    0  501 -0.00000000000E+00 -0.00000000000E+00 -0.31823560280E+03  0.31823560280E+03  0.00000000000E+00 0.  1.
         25    2    1    2    0    0 -0.45468603422E+02  0.17460562839E+02 -0.16835682793E+03  0.21533173929E+03  0.12510584032E+03 0.  0.
          5    1    3    3  502    0 -0.34497226559E+01 -0.32500451634E+02 -0.14036269866E+03  0.14417815202E+03  0.41800000000E+01 0. -1.
         -5    1    3    3    0  502 -0.42018880766E+02  0.49961014473E+02 -0.27994129266E+02  0.71153587270E+02  0.41800000000E+01 0. -1.
        -11    1    1    2    0    0  0.13299523255E+02  0.30577325512E+02 -0.74205364974E+01  0.34160130506E+02  0.00000000000E+00 0. -1.
         11    1    1    2    0    0  0.32169080167E+02 -0.48037888351E+02 -0.97687971395E+02  0.11351399998E+03  0.00000000000E+00 0.  1.
</event>
<event>
 7    1  0.2690635E-009  0.1145943E+03  0.7561462E-02  0.1252291E+00
          3   -1    0    0  501    0  0.00000000000E+00  0.00000000000E+00  0.19537913766E+03  0.19537913766E+03  0.00000000000E+00 0. -1.
         -3   -1    0    0    0  501 -0.00000000000E+00 -0.00000000000E+00 -0.10105334001E+03  0.10105334001E+03  0.00000000000E+00 0.  1.
         25    2    1    2    0    0 -0.51100882301E+02  0.42282589559E+02 -0.12104374922E+02  0.14210173695E+03  0.12508904908E+03 0.  0.
          5    1    3    3  502    0 -0.11646004002E+02  0.71338259008E+02  0.29012998460E+02  0.78000019789E+02  0.41800000000E+01 0.  1.
         -5    1    3    3    0  502 -0.39454878299E+02 -0.29055669449E+02 -0.41117373382E+02  0.64101717158E+02  0.41800000000E+01 0.  1.
        -11    1    1    2    0    0  0.71699703673E+02 -0.14713983225E+02  0.51448069817E+02  0.89466489240E+02  0.00000000000E+00 0.  1.
         11    1    1    2    0    0 -0.20598821372E+02 -0.27568606334E+02  0.54982102751E+02  0.64864251480E+02  0.00000000000E+00 0. -1.
</event>
<event>
 7    1  0.2690635E-009  0.1022800E+03  0.7561462E-02  0.1275573E+00
          2   -1    0    0  501    0  0.00000000000E+00  0.00000000000E+00  0.53778293605E+03  0.53778293605E+03  0.00000000000E+00 0.  1.
         -2   -1    0    0    0  501 -0.00000000000E+00 -0.00000000000E+00 -0.31202652415E+02  0.31202652415E+02  0.00000000000E+00 0. -1.
         25    2    1    2    0    0  0.28870819644E+02  0.30603101674E+02  0.42224162980E+03  0.44238464429E+03  0.12508439354E+03 0.  0.
          5    1    3    3  502    0 -0.16408756977E+02  0.69598946861E+02  0.21188063297E+03  0.22366076038E+03  0.41800000000E+01 0. -1.
         -5    1    3    3    0  502  0.45279576621E+02 -0.38995845187E+02  0.21036099684E+03  0.21872388391E+03  0.41800000000E+01 0. -1.
        -11    1    1    2    0    0  0.18346985690E+02 -0.38118331910E+01 -0.72818800978E+01  0.20103923347E+02  0.00000000000E+00 0. -1.
         11    1    1    2    0    0 -0.47217805334E+02 -0.26791268483E+02  0.91620533930E+02  0.10649702083E+03  0.00000000000E+00 0.  1.
</event>
<event>
 7    1  0.2690635E-009  0.1178921E+03  0.7561462E-02  0.1246615E+00
          2   -1    0    0  501    0  0.00000000000E+00  0.00000000000E+00  0.30526411814E+03  0.30526411814E+03  0.00000000000E+00 0.  1.
         -2   -1    0    0    0  501 -0.00000000000E+00 -0.00000000000E+00 -0.74743906374E+02  0.74743906374E+02  0.00000000000E+00 0. -1.
         25    2    1    2    0    0 -0.76164593446E+02  0.45358359377E+02  0.19968929015E+03  0.25175622435E+03  0.12508780051E+03 0.  0.
          5    1    3    3  502    0  0.64779667773E+01  0.47843158311E+02  0.14412118866E+03  0.15205039057E+03  0.41800000000E+01 0. -1.
         -5    1    3    3    0  502 -0.82642560224E+02 -0.24847989337E+01  0.55568101488E+02  0.99705833777E+02  0.41800000000E+01 0. -1.
        -11    1    1    2    0    0  0.14582749702E+01 -0.27745686385E+02 -0.21690277261E+02  0.35247947550E+02  0.00000000000E+00 0. -1.
         11    1    1    2    0    0  0.74706318476E+02 -0.17612672992E+02  0.52521198875E+02  0.93003852616E+02  0.00000000000E+00 0.  1.
</event>
<event>
 7    1  0.2690635E-009  0.1151594E+03  0.7561462E-02  0.1251303E+00
         -1   -1    0    0    0  501 -0.00000000000E+00  0.00000000000E+00  0.16958049313E+02  0.16958049313E+02  0.00000000000E+00 0.  1.
          1   -1    0    0  501    0  0.00000000000E+00 -0.00000000000E+00 -0.15160222881E+04  0.15160222881E+04  0.00000000000E+00 0. -1.
         25    2    1    2    0    0  0.90063267311E+02  0.63285505738E+02 -0.10000056844E+04  0.10137921105E+04  0.12508647879E+03 0.  0.
          5    1    3    3  502    0  0.73318363325E+02  0.70094085876E+02 -0.37463835722E+03  0.38814962885E+03  0.41800000000E+01 0. -1.
         -5    1    3    3    0  502  0.16744903986E+02 -0.68085801383E+01 -0.62536732717E+03  0.62564248167E+03  0.41800000000E+01 0. -1.
        -11    1    1    2    0    0 -0.65517966826E+02 -0.42629163433E+02 -0.46818377662E+03  0.47466398457E+03  0.00000000000E+00 0.  1.
         11    1    1    2    0    0 -0.24545300486E+02 -0.20656342305E+02 -0.30874777804E+02  0.44524242361E+02  0.00000000000E+00 0. -1.
</event>
<event>
 7    1  0.2690635E-009  0.8100261E+02  0.7561462E-02  0.1326230E+00
          2   -1    0    0  501    0  0.00000000000E+00  0.00000000000E+00  0.35489318302E+02  0.35489318302E+02  0.00000000000E+00 0. -1.
         -2   -1    0    0    0  501 -0.00000000000E+00 -0.00000000000E+00 -0.59323863698E+03  0.59323863698E+03  0.00000000000E+00 0.  1.
         25    2    1    2    0    0 -0.18530356748E+02 -0.34244694582E+02 -0.49153307555E+03  0.50869314713E+03  0.12509148792E+03 0.  0.
          5    1    3    3  502    0 -0.31465887203E+02 -0.47530055040E+02 -0.89384236299E+02  0.10609534527E+03  0.41800000000E+01 0. -1.
         -5    1    3    3    0  502  0.12935530455E+02  0.13285360458E+02 -0.40214883925E+03  0.40259780186E+03  0.41800000000E+01 0. -1.
        -11    1    1    2    0    0 -0.16923394036E+02  0.45580271610E+02 -0.67026621855E+02  0.82804169358E+02  0.00000000000E+00 0.  1.
         11    1    1    2    0    0  0.35453750783E+02 -0.11335577029E+02  0.81037872879E+00  0.37230638792E+02  0.00000000000E+00 0. -1.
</event>
<event>
 7    1  0.2690635E-009  0.1073149E+03  0.7561462E-02  0.1265625E+00
          1   -1    0    0  501    0  0.00000000000E+00  0.00000000000E+00  0.21045731462E+03  0.21045731462E+03  0.00000000000E+00 0. -1.
         -1   -1    0    0    0  501 -0.00000000000E+00 -0.00000000000E+00 -0.91057497959E+02  0.91057497959E+02  0.00000000000E+00 0.  1.
         25    2    1    2    0    0 -0.46013442873E+02  0.48124943917E+02  0.77687856151E+01  0.14191389985E+03  0.12508378708E+03 0.  0.
          5    1    3    3  502    0 -0.52338850613E+01 -0.20305315379E+02  0.48019583558E+02  0.52564742847E+02  0.41800000000E+01 0. -1.
         -5    1    3    3    0  502 -0.40779557812E+02  0.68430259297E+02 -0.40250797943E+02  0.89349157006E+02  0.41800000000E+01 0. -1.
        -11    1    1    2    0    0 -0.23957172562E+02  0.63714636358E+01  0.18013193733E+02  0.30643381251E+02  0.00000000000E+00 0.  1.
         11    1    1    2    0    0  0.69970615435E+02 -0.54496407553E+02  0.93617837309E+02  0.12895753147E+03  0.00000000000E+00 0. -1.
</event>
<event>
 7    1  0.2690635E-009  0.1305247E+03  0.7561462E-02  0.1226679E+00
          2   -1    0    0  501    0  0.00000000000E+00  0.00000000000E+00  0.10385535099E+03  0.10385535099E+03  0.00000000000E+00 0. -1.
         -2   -1    0    0    0  501 -0.00000000000E+00 -0.00000000000E+00 -0.22239772086E+03  0.22239772086E+03  0.00000000000E+00 0.  1.
         25    2    1    2    0    0 -0.78085834311E+02 -0.89275949343E+01  0.14098651214E+02  0.14840182520E+03  0.12508888953E+03 0.  0.
          5    1    3    3  502    0  0.32446111364E+01 -0.53766517927E+02  0.12348559607E+02  0.55419538755E+02  0.41800000000E+01 0. -1.
         -5    1    3    3    0  502 -0.81330445447E+02  0.44838922993E+02  0.17500916071E+01  0.92982286444E+02  0.41800000000E+01 0. -1.
        -11    1    1    2    0    0  0.76465544127E+02  0.37689742919E+02 -0.11789739490E+03  0.14548983429E+03  0.00000000000E+00 0.  1.
         11    1    1    2    0    0  0.16202901838E+01 -0.28762147984E+02 -0.14743626188E+02  0.32361412363E+02  0.00000000000E+00 0. -1.
</event>
<event>
 7    1  0.2690635E-009  0.1088811E+03  0.7561462E-02  0.1262656E+00
          1   -1    0    0  501    0  0.00000000000E+00  0.00000000000E+00  0.28903504465E+03  0.28903504465E+03  0.00000000000E+00 0. -1.
         -1   -1    0    0    0  501 -0.00000000000E+00 -0.00000000000E+00 -0.47168918745E+02  0.47168918745E+02  0.00000000000E+00 0.  1.
         25    2    1    2    0    0 -0.34144399482E+02 -0.27622075352E+02  0.14198339923E+03  0.19425514491E+03  0.12508779558E+03 0.  0.
          5    1    3    3  502    0  0.46382882658E+02 -0.17284474598E+02  0.39639642933E+02  0.63552329286E+02  0.41800000000E+01 0. -1.
         -5    1    3    3    0  502 -0.80527282140E+02 -0.10337600753E+02  0.10234375630E+03  0.13070281562E+03  0.41800000000E+01 0. -1.
        -11    1    1    2    0    0 -0.22715571982E+02  0.18305625430E+02  0.31323935067E+01  0.29341183036E+02  0.00000000000E+00 0.  1.
         11    1    1    2    0    0  0.56859971464E+02  0.93164499212E+01  0.96750333166E+02  0.11260763545E+03  0.00000000000E+00 0. -1.
</event>
<event>
 7    1  0.2690635E-009  0.1147974E+03  0.7561462E-02  0.1251935E+00
         -1   -1    0    0    0  501 -0.00000000000E+00  0.00000000000E+00  0.17798784299E+02  0.17798784299E+02  0.00000000000E+00 0.  1.
          1   -1    0    0  501    0  0.00000000000E+00 -0.00000000000E+00 -0.11718547020E+04  0.11718547020E+04  0.00000000000E+00 0. -1.
         25    2    1    2    0    0  0.54716212411E+02 -0.18157016418E+02 -0.94124948278E+03  0.95127381802E+03  0.12509095444E+03 0.  0.
          5    1    3    3  502    0  0.81551115055E+02 -0.38952370061E+02 -0.82915979056E+03  0.83408111248E+03  0.41800000000E+01 0. -1.
         -5    1    3    3    0  502 -0.26834902644E+02  0.20795353643E+02 -0.11208969221E+03  0.11719270555E+03  0.41800000000E+01 0. -1.
        -11    1    1    2    0    0 -0.46395834337E+02 -0.30519363402E+02 -0.13787909723E+03  0.14864269386E+03  0.00000000000E+00 0. -1.
         11    1    1    2    0    0 -0.83203780744E+01  0.48676379820E+02 -0.74927337724E+02  0.89736974442E+02  0.00000000000E+00 0.  1.
</event>
<event>
 7    1  0.2690635E-009  0.1125304E+03  0.7561462E-02  0.1255954E+00
         -4   -1    0    0    0  501 -0.00000000000E+00  0.00000000000E+00  0.81012449661E+01  0.81012449661E+01  0.00000000000E+00 0. -1.
          4   -1    0    0  501    0  0.00000000000E+00 -0.00000000000E+00 -0.17528208407E+04  0.17528208407E+04  0.00000000000E+00 0.  1.
         25    2    1    2    0    0 -0.39983597859E+01 -0.34655614556E+02 -0.12290616786E+04  0.12359037640E+04  0.12509398675E+03 0.  0.
          5    1    3    3  502    0 -0.33044141721E+02  0.36527905158E+02 -0.34951952222E+03  0.35299797729E+03  0.41800000000E+01 0. -1.
         -5    1    3    3    0  502  0.29045781935E+02 -0.71183519714E+02 -0.87954215637E+03  0.88290578669E+03  0.41800000000E+01 0. -1.
        -11    1    1    2    0    0  0.24100745598E+02  0.60945356833E+02 -0.35151861872E+03  0.35757589651E+03  0.00000000000E+00 0. -1.
         11    1    1    2    0    0 -0.20102385812E+02 -0.26289742277E+02 -0.16413929843E+03  0.16744242519E+03  0.00000000000E+00 0.  1.
</event>
<event>
 7    1  0.2690635E-009  0.9640533E+02  0.7561462E-02  0.1288042E+00
          2   -1    0    0  501    0  0.00000000000E+00  0.00000000000E+00  0.83822362549E+02  0.83822362549E+02  0.00000000000E+00 0. -1.
         -2   -1    0    0    0  501 -0.00000000000E+00 -0.00000000000E+00 -0.14082559859E+03  0.14082559859E+03  0.00000000000E+00 0.  1.
         25    2    1    2    0    0  0.13570292349E+02 -0.55817773086E+01 -0.38299544383E+02  0.13164268288E+03  0.12509049438E+03 0.  0.
          5    1    3    3  502    0  0.32403454263E+02 -0.47667345382E+02  0.16312544873E+02  0.60047740874E+02  0.41800000000E+01 0.  1.
         -5    1    3    3    0  502 -0.18833161914E+02  0.42085568073E+02 -0.54612089255E+02  0.71594942004E+02  0.41800000000E+01 0.  1.
        -11    1    1    2    0    0  0.32625837264E+02 -0.17565439871E+02  0.25333282142E+01  0.37140378120E+02  0.00000000000E+00 0.  1.
         11    1    1    2    0    0 -0.46196129613E+02  0.23147217180E+02 -0.21237019869E+02  0.55864900137E+02  0.00000000000E+00 0. -1.
</event>
<event>
 7    1  0.2690635E-009  0.9629732E+02  0.7561462E-02  0.1288281E+00
          2   -1    0    0  501    0  0.00000000000E+00  0.00000000000E+00  0.60371129142E+03  0.60371129142E+03  0.00000000000E+00 0. -1.
         -2   -1    0    0    0  501 -0.00000000000E+00 -0.00000000000E+00 -0.27664854100E+02  0.27664854100E+02  0.00000000000E+00 0.  1.
         25    2    1    2    0    0 -0.67281717960E+02  0.13394884515E+02  0.28077082570E+03  0.31493857623E+03  0.12509115769E+03 0.  0.
          5    1    3    3  502    0 -0.10415341764E+02  0.33236683500E+02  0.23891143342E+03  0.24147319084E+03  0.41800000000E+01 0.  1.
         -5    1    3    3    0  502 -0.56866376197E+02 -0.19841798985E+02  0.41859392274E+02  0.73465385388E+02  0.41800000000E+01 0.  1.
        -11    1    1    2    0    0  0.17422331038E+01 -0.29580981738E+02  0.28001447554E+02  0.40769485181E+02  0.00000000000E+00 0.  1.
         11    1    1    2    0    0  0.65539484857E+02  0.16186097223E+02  0.26727416407E+03  0.27566808411E+03  0.00000000000E+00 0. -1.
</event>
<event>
 7    1  0.2690635E-009  0.1825129E+03  0.7561462E-02  0.1165393E+00
          2   -1    0    0  501    0  0.00000000000E+00  0.00000000000E+00  0.58782707512E+03  0.58782707512E+03  0.00000000000E+00 0. -1.
         -2   -1    0    0    0  501 -0.00000000000E+00 -0.00000000000E+00 -0.64718867589E+02  0.64718867589E+02  0.00000000000E+00 0.  1.
         25    2    1    2    0    0  0.13636645301E+03  0.81976662040E+02  0.21309092577E+03  0.29388973211E+03  0.12508976526E+03 0.  0.
          5    1    3    3  502    0  0.15847550522E+03  0.64056863640E+02  0.19728628643E+03  0.26106918384E+03  0.41800000000E+01 0. -1.
         -5    1    3    3    0  502 -0.22109052216E+02  0.17919798400E+02  0.15804639334E+02  0.32820548275E+02  0.41800000000E+01 0. -1.
        -11    1    1    2    0    0 -0.86775186636E+02 -0.75956682479E+02  0.13962783634E+03  0.18109468051E+03  0.00000000000E+00 0.  1.
         11    1    1    2    0    0 -0.49591266371E+02 -0.60199795612E+01  0.17038944542E+03  0.17756153008E+03  0.00000000000E+00 0. -1.
</event>
<event>
 7    1  0.2690635E-009  0.1190792E+03  0.7561462E-02  0.1244624E+00
          1   -1    0    0  501    0  0.00000000000E+00  0.00000000000E+00  0.21204818457E+02  0.21204818457E+02  0.00000000000E+00 0. -1.
         -1   -1    0    0    0  501 -0.00000000000E+00 -0.00000000000E+00 -0.73906751922E+03  0.73906751922E+03  0.00000000000E+00 0.  1.
         25    2    1    2    0    0 -0.41918354042E+02  0.41789650175E+02 -0.35623764844E+03  0.38217299024E+03  0.12508960404E+03 0.  0.
          5    1    3    3  502    0  0.30424300646E+02 -0.24873743478E+02 -0.11567875746E+03  0.12224315323E+03  0.41800000000E+01 0. -1.
         -5    1    3    3    0  502 -0.72342654688E+02  0.66663393654E+02 -0.24055889098E+03  0.25992983702E+03  0.41800000000E+01 0. -1.
        -11    1    1    2    0    0 -0.19635643403E+02 -0.32434170076E+02 -0.22210049172E+03  0.22531347564E+03  0.00000000000E+00 0.  1.
         11    1    1    2    0    0  0.61553997445E+02 -0.93554800996E+01 -0.13952456060E+03  0.15278587180E+03  0.00000000000E+00 0. -1.
</event>
<event>
 7    1  0.2690635E-009  0.1365773E+03  0.7561462E-02  0.1218010E+00
          2   -1    0    0  501    0  0.00000000000E+00  0.00000000000E+00  0.99092218776E+03  0.99092218776E+03  0.00000000000E+00 0.  1.
         -2   -1    0    0    0  501 -0.00000000000E+00 -0.00000000000E+00 -0.26366157690E+02  0.26366157690E+02  0.00000000000E+00 0. -1.
         25    2    1    2    0    0 -0.99046052293E+01  0.93423296355E+02  0.75094229421E+03  0.76706379799E+03  0.12508608015E+03 0.  0.
          5    1    3    3  502    0 -0.60489184737E+02  0.78556896385E+02  0.39822183975E+03  0.41040008954E+03  0.41800000000E+01 0. -1.
         -5    1    3    3    0  502  0.50584579508E+02  0.14866399969E+02  0.35272045446E+03  0.35666370845E+03  0.41800000000E+01 0. -1.
        -11    1    1    2    0    0  0.43030685457E+02 -0.61226563893E+02  0.17385019699E+03  0.18927287975E+03  0.00000000000E+00 0. -1.
         11    1    1    2    0    0 -0.33126080228E+02 -0.32196732462E+02  0.39763538868E+02  0.60951667703E+02  0.00000000000E+00 0.  1.
</event>
<event>
 7    1  0.2690635E-009  0.1336064E+03  0.7561462E-02  0.1222201E+00
         -2   -1    0    0    0  501 -0.00000000000E+00  0.00000000000E+00  0.36984396679E+02  0.36984396679E+02  0.00000000000E+00 0.  1.
          2   -1    0    0  501    0  0.00000000000E+00 -0.00000000000E+00 -0.10254567671E+04  0.10254567671E+04  0.00000000000E+00 0. -1.
         25    2    1    2    0    0 -0.54826276847E+02  0.98513803468E+02 -0.83304609828E+03  0.84989649468E+03  0.12508940681E+03 0.  0.
          5    1    3    3  502    0  0.44290133718E+01  0.51700467061E+02 -0.97990671724E+02  0.11096034697E+03  0.41800000000E+01 0.  1.
         -5    1    3    3    0  502 -0.59255290218E+02  0.46813336407E+02 -0.73505542656E+03  0.73893614771E+03  0.41800000000E+01 0.  1.
        -11    1    1    2    0    0  0.67719446998E+02 -0.38003074913E+02 -0.11455553504E+03  0.13839482581E+03  0.00000000000E+00 0.  1.
         11    1    1    2    0    0 -0.12893170151E+02 -0.60510728554E+02 -0.40870737080E+02  0.74149843265E+02  0.00000000000E+00 0. -1.
</event>
<event>
 7    1  0.2690635E-009  0.1009978E+03  0.7561462E-02  0.1278212E+00
          2   -1    0    0  501    0  0.00000000000E+00  0.00000000000E+00  0.51806538392E+02  0.51806538392E+02  0.00000000000E+00 0. -1.
         -2   -1    0    0    0  501 -0.00000000000E+00 -0.00000000000E+00 -0.26795204698E+03  0.26795204698E+03  0.00000000000E+00 0.  1.
         25    2    1    2    0    0 -0.43134409208E+02  0.13185897921E+02 -0.14648796719E+03  0.19784101042E+03  0.12509154933E+03 0.  0.
          5    1    3    3  502    0  0.21555395357E+02  0.52462924091E+02 -0.69497864016E+02  0.89802110086E+02  0.41800000000E+01 0. -1.
         -5    1    3    3    0  502 -0.64689804565E+02 -0.39277026170E+02 -0.76990103169E+02  0.10803890033E+03  0.41800000000E+01 0. -1.
        -11    1    1    2    0    0 -0.11166739260E+02 -0.99068583453E+01 -0.65699096651E+02  0.67373683355E+02  0.00000000000E+00 0.  1.
         11    1    1    2    0    0  0.54301148468E+02 -0.32790395762E+01 -0.39584447511E+01  0.54543891595E+02  0.00000000000E+00 0. -1.
</event>
<event>
 7    1  0.2690635E-009  0.1178925E+03  0.7561462E-02  0.1246615E+00
          1   -1    0    0  501    0  0.00000000000E+00  0.00000000000E+00  0.83453533857E+03  0.83453533857E+03  0.00000000000E+00 0. -1.
         -1   -1    0    0    0  501 -0.00000000000E+00 -0.00000000000E+00 -0.16967001656E+02  0.16967001656E+02  0.00000000000E+00 0.  1.
         25    2    1    2    0    0 -0.49111007846E+02 -0.42482292759E+01  0.47730801177E+03  0.49588310996E+03  0.12508869693E+03 0.  0.
          5    1    3    3  502    0 -0.62186506527E+02  0.48646186964E+02  0.30731373493E+03  0.31732131535E+03  0.41800000000E+01 0.  1.
         -5    1    3    3    0  502  0.13075498681E+02 -0.52894416240E+02  0.16999427684E+03  0.17856179461E+03  0.41800000000E+01 0.  1.
        -11    1    1    2    0    0  0.45387361219E+02 -0.38285280565E+02  0.22506198870E+03  0.23276312857E+03  0.00000000000E+00 0. -1.
         11    1    1    2    0    0  0.37236466271E+01  0.42533509841E+02  0.11519833644E+03  0.12285610169E+03  0.00000000000E+00 0.  1.
</event>
<event>
 7    1  0.2690635E-009  0.1998328E+03  0.7561462E-02  0.1149880E+00
         -1   -1    0    0    0  501 -0.00000000000E+00  0.00000000000E+00  0.27296553817E+03  0.27296553817E+03  0.00000000000E+00 0.  1.
          1   -1    0    0  501    0  0.00000000000E+00 -0.00000000000E+00 -0.17186218483E+03  0.17186218483E+03  0.00000000000E+00 0. -1.
         25    2    1    2    0    0  0.36687220582E+02  0.18307101353E+03  0.47220221720E+02  0.22964828612E+03  0.12509051856E+03 0.  0.
          5    1    3    3  502    0 -0.34897947934E+02  0.43380132138E+02 -0.19362951417E+02  0.59093983805E+02  0.41800000000E+01 0.  1.
         -5    1    3    3    0  502  0.71585168516E+02  0.13969088139E+03  0.66583173137E+02  0.17055430232E+03  0.41800000000E+01 0.  1.
        -11    1    1    2    0    0 -0.28358850186E+02 -0.12703231742E+03  0.80017192993E+02  0.15278804019E+03  0.00000000000E+00 0.  1.
         11    1    1    2    0    0 -0.83283703957E+01 -0.56038696112E+02 -0.26134061378E+02  0.62391396679E+02  0.00000000000E+00 0. -1.
</event>
<event>
 7    1  0.2690635E-009  0.9344981E+02  0.7561462E-02  0.1294706E+00
          1   -1    0    0  501    0  0.00000000000E+00  0.00000000000E+00  0.94723932483E+02  0.94723932483E+02  0.00000000000E+00 0. -1.
         -1   -1    0    0    0  501 -0.00000000000E+00 -0.00000000000E+00 -0.16996986927E+03  0.16996986927E+03  0.00000000000E+00 0.  1.
         25    2    1    2    0    0 -0.10534177400E+02  0.61532926632E+02 -0.54754384922E+02  0.15014144810E+03  0.12508853591E+03 0.  0.
          5    1    3    3  502    0 -0.12799285260E+02 -0.14216718281E+01 -0.80741156340E+02  0.81868489549E+02  0.41800000000E+01 0. -1.
         -5    1    3    3    0  502  0.22651078602E+01  0.62954598460E+02  0.25986771418E+02  0.68272958553E+02  0.41800000000E+01 0. -1.
        -11    1    1    2    0    0  0.13614032034E+02 -0.85239871674E+02 -0.25741234215E+02  0.90076571483E+02  0.00000000000E+00 0.  1.
         11    1    1    2    0    0 -0.30798546338E+01  0.23706945042E+02  0.52496823529E+01  0.24475782165E+02  0.00000000000E+00 0. -1.
</event>
<event>
 7    1  0.2690635E-009  0.8345141E+02  0.7561462E-02  0.1319533E+00
          2   -1    0    0  501    0  0.00000000000E+00  0.00000000000E+00  0.37807494007E+03  0.37807494007E+03  0.00000000000E+00 0. -1.
         -2   -1    0    0    0  501 -0.00000000000E+00 -0.00000000000E+00 -0.32382218874E+02  0.32382218874E+02  0.00000000000E+00 0.  1.
         25    2    1    2    0    0  0.14524957226E+02  0.32119781341E+01  0.22604434982E+03  0.25877398306E+03  0.12508651022E+03 0.  0.
          5    1    3    3  502    0 -0.73704295665E+01 -0.32329739566E+02  0.21187129128E+03  0.21449114612E+03  0.41800000000E+01 0. -1.
         -5    1    3    3    0  502  0.21895386792E+02  0.35541717700E+02  0.14173058536E+02  0.44282836947E+02  0.41800000000E+01 0. -1.
        -11    1    1    2    0    0 -0.41475874945E+02  0.28187776557E+02  0.79715350901E+02  0.94177152850E+02  0.00000000000E+00 0.  1.
         11    1    1    2    0    0  0.26950917720E+02 -0.31399754691E+02  0.39933020480E+02  0.57506023034E+02  0.00000000000E+00 0. -1.
</event>
<event>
 7    1  0.2690635E-009  0.1595868E+03  0.7561462E-02  0.1189164E+00
         -1   -1    0    0    0  501 -0.00000000000E+00  0.00000000000E+00  0.48371819388E+02  0.48371819388E+02  0.00000000000E+00 0.  1.
          1   -1    0    0  501    0  0.00000000000E+00 -0.00000000000E+00 -0.63497899735E+03  0.63497899735E+03  0.00000000000E+00 0. -1.
         25    2    1    2    0    0 -0.12444416240E+03 -0.68839979334E+01 -0.19723859750E+03  0.26473544980E+03  0.12509218624E+03 0.  0.
          5    1    3    3  502    0 -0.57162481720E+02  0.51159235080E+02 -0.46784025617E+02  0.89950175672E+02  0.41800000000E+01 0.  1.
         -5    1    3    3    0  502 -0.67281680675E+02 -0.58043233014E+02 -0.15045457188E+03  0.17478527413E+03  0.41800000000E+01 0.  1.
        -11    1    1    2    0    0  0.10282213223E+03  0.42875595691E+02 -0.27011691960E+03  0.29218805218E+03  0.00000000000E+00 0.  1.
         11    1    1    2    0    0  0.21622030161E+02 -0.35991597758E+02 -0.11925166086E+03  0.12642731475E+03  0.00000000000E+00 0. -1.
</event>
<event>
 7    1  0.2690635E-009  0.1095334E+03  0.7561462E-02  0.1261436E+00
          1   -1    0    0  501    0  0.00000000000E+00  0.00000000000E+00  0.32556517136E+03  0.32556517136E+03  0.00000000000E+00 0. -1.
         -1   -1    0    0    0  501 -0.00000000000E+00 -0.00000000000E+00 -0.46027000125E+02  0.46027000125E+02  0.00000000000E+00 0.  1.
         25    2    1    2    0    0  0.46992985140E+01  0.48066411971E+02  0.19841522461E+03  0.23947616557E+03  0.12509104347E+03 0.  0.
          5    1    3    3  502    0  0.54026015577E+02 -0.12633528077E+02  0.87490591688E+02  0.10368458142E+03  0.41800000000E+01 0.  1.
         -5    1    3    3    0  502 -0.49326717063E+02  0.60699940048E+02  0.11092463292E+03  0.13579158415E+03  0.41800000000E+01 0.  1.
        -11    1    1    2    0    0 -0.37317300103E+02 -0.29485876420E+02  0.57427917777E+01  0.47905922939E+02  0.00000000000E+00 0.  1.
         11    1    1    2    0    0  0.32618001589E+02 -0.18580535551E+02  0.75380154850E+02  0.84210082972E+02  0.00000000000E+00 0. -1.
</event>
<event>
 7    1  0.2690635E-009  0.1307771E+03  0.7561462E-02  0.1226307E+00
          1   -1    0    0  501    0  0.00000000000E+00  0.00000000000E+00  0.20651474181E+03  0.20651474181E+03  0.00000000000E+00 0. -1.
         -1   -1    0    0    0  501 -0.00000000000E+00 -0.00000000000E+00 -0.88734741345E+02  0.88734741345E+02  0.00000000000E+00 0.  1.
         25    2    1    2    0    0  0.76125755445E+01  0.67226549007E+01  0.38635234082E+02  0.13131360783E+03  0.12508971538E+03 0.  0.
          5    1    3    3  502    0  0.65796579830E+02 -0.40533350705E+01  0.23298043747E+02  0.70042063683E+02  0.41800000000E+01 0. -1.
         -5    1    3    3    0  502 -0.58184004286E+02  0.10775989971E+02  0.15337190335E+02  0.61271544146E+02  0.41800000000E+01 0. -1.
        -11    1    1    2    0    0  0.38839600016E+02  0.49712149593E+02  0.11066132381E+02  0.64048978387E+02  0.00000000000E+00 0.  1.
         11    1    1    2    0    0 -0.46452175561E+02 -0.56434804493E+02  0.68078634004E+02  0.99886896941E+02  0.00000000000E+00 0. -1.
</event>
<event>
 7    1  0.2690635E-009  0.1704187E+03  0.7561462E-02  0.1177412E+00
          3   -1    0    0  501    0  0.00000000000E+00  0.00000000000E+00  0.65833836581E+02  0.65833836581E+02  0.00000000000E+00 0. -1.
         -3   -1    0    0    0  501 -0.00000000000E+00 -0.00000000000E+00 -0.44412693997E+03  0.44412693997E+03  0.00000000000E+00 0.  1.
         25    2    1    2    0    0  0.45011371354E+02 -0.12376761216E+03 -0.20366258458E+03  0.27288874797E+03  0.12508147361E+03 0.  0.
          5    1    3    3  502    0  0.19966521309E+02  0.23808940108E+02 -0.27726827667E+02  0.41854234848E+02  0.41800000000E+01 0.  1.
         -5    1    3    3    0  502  0.25044850045E+02 -0.14757655226E+03 -0.17593575691E+03  0.23103451312E+03  0.41800000000E+01 0.  1.
        -11    1    1    2    0    0 -0.64068237038E+02  0.43987539858E+02 -0.74775107132E+02  0.10784692535E+03  0.00000000000E+00 0. -1.
         11    1    1    2    0    0  0.19056865684E+02  0.79780072299E+02 -0.99855411682E+02  0.12922510324E+03  0.00000000000E+00 0.  1.
</event>
<event>
 7    1  0.2690635E-009  0.9467486E+02  0.7561462E-02  0.1291910E+00
          1   -1    0    0  501    0  0.00000000000E+00  0.00000000000E+00  0.39104676141E+03  0.39104676141E+03  0.00000000000E+00 0. -1.
         -1   -1    0    0    0  501 -0.00000000000E+00 -0.00000000000E+00 -0.50990894616E+02  0.50990894616E+02  0.00000000000E+00 0.  1.
         25    2    1    2    0    0 -0.39987564744E+02 -0.36553910284E+02  0.73862712578E+02  0.15503898537E+03  0.12508474321E+03 0.  0.
          5    1    3    3  502    0 -0.56007854115E+02 -0.43165325686E+02  0.10051916363E+03  0.12297032049E+03  0.41800000000E+01 0.  1.
         -5    1    3    3    0  502  0.16020289371E+02  0.66114154027E+01 -0.26656451049E+02  0.32068664887E+02  0.41800000000E+01 0.  1.
        -11    1    1    2    0    0 -0.26908230611E+02  0.97269326162E+01  0.37200614307E+02  0.46931351968E+02  0.00000000000E+00 0.  1.
         11    1    1    2    0    0  0.66895795355E+02  0.26826977667E+02  0.22899253991E+03  0.24006731869E+03  0.00000000000E+00 0. -1.
</event>
<event>
 7    1  0.2690635E-009  0.1290269E+03  0.7561462E-02  0.1228907E+00
          2   -1    0    0  501    0  0.00000000000E+00  0.00000000000E+00  0.50766452554E+02  0.50766452554E+02  0.00000000000E+00 0. -1.
         -2   -1    0    0    0  501 -0.00000000000E+00 -0.00000000000E+00 -0.35640222797E+03  0.35640222797E+03  0.00000000000E+00 0.  1.
         25    2    1    2    0    0  0.41157328417E+02  0.64710318871E+02 -0.20277930618E+03  0.25029650014E+03  0.12509012716E+03 0.  0.
          5    1    3    3  502    0  0.65291895391E+02 -0.51478879709E+01 -0.13418579522E+03  0.14937480508E+03  0.41800000000E+01 0.  1.
         -5    1    3    3    0  502 -0.24134566974E+02  0.69858206842E+02 -0.68593510964E+02  0.10092169505E+03  0.41800000000E+01 0.  1.
        -11    1    1    2    0    0  0.28629524634E+02 -0.25563093545E+02 -0.35441064762E+02  0.52241654872E+02  0.00000000000E+00 0.  1.
         11    1    1    2    0    0 -0.69786853051E+02 -0.39147225327E+02 -0.67415404466E+02  0.10463052551E+03  0.00000000000E+00 0. -1.
</event>
<event>
 7    1  0.2690635E-009  0.8538191E+02  0.7561462E-02  0.1314437E+00
         -1   -1    0    0    0  501 -0.00000000000E+00  0.00000000000E+00  0.12842678125E+02  0.12842678125E+02  0.00000000000E+00 0.  1.
          1   -1    0    0  501    0  0.00000000000E+00 -0.00000000000E+00 -0.99531714784E+03  0.99531714784E+03  0.00000000000E+00 0. -1.
         25    2    1    2    0    0  0.23620162176E+02  0.84637268415E+01 -0.62286607168E+03  0.63579858379E+03  0.12509256239E+03 0.  0.
          5    1    3    3  502    0  0.45657032973E+02 -0.10032640157E+02 -0.59022320807E+03  0.59208624901E+03  0.41800000000E+01 0.  1.
         -5    1    3    3    0  502 -0.22036870797E+02  0.18496366999E+02 -0.32642863608E+02  0.43712334772E+02  0.41800000000E+01 0.  1.
        -11    1    1    2    0    0  0.22756481467E+02 -0.34683872564E+02 -0.19434275849E+03  0.19872074940E+03  0.00000000000E+00 0.  1.
         11    1    1    2    0    0 -0.46376643643E+02  0.26220145722E+02 -0.16526563954E+03  0.17364049278E+03  0.00000000000E+00 0. -1.
</event>
<event>
 7    1  0.2690635E-009  0.5047734E+02  0.7561462E-02  0.1442784E+00
          1   -1    0    0  501    0  0.00000000000E+00  0.00000000000E+00  0.17477363906E+03  0.17477363906E+03  0.00000000000E+00 0. -1.
         -1   -1    0    0    0  501 -0.00000000000E+00 -0.00000000000E+00 -0.71043255624E+02  0.71043255624E+02  0.00000000000E+00 0.  1.
         25    2    1    2    0    0  0.11600674912E+02 -0.22164830832E+02  0.63701145121E+02  0.14258762791E+03  0.12509012895E+03 0.  0.
          5    1    3    3  502    0  0.10808078608E+02 -0.12959834346E+02 -0.37261142187E+02  0.41117356269E+02  0.41800000000E+01 0. -1.
         -5    1    3    3    0  502  0.79259630387E+00 -0.92049964854E+01  0.10096228731E+03  0.10147027164E+03  0.41800000000E+01 0. -1.
        -11    1    1    2    0    0 -0.39988766916E+02  0.20636567152E+02 -0.96203249449E+01  0.46016519157E+02  0.00000000000E+00 0.  1.
         11    1    1    2    0    0  0.28388092004E+02  0.15282636794E+01  0.49649563264E+02  0.57212747616E+02  0.00000000000E+00 0. -1.
</event>
<event>
 7    1  0.2690635E-009  0.9337309E+02  0.7561462E-02  0.1294883E+00
          3   -1    0    0  501    0  0.00000000000E+00  0.00000000000E+00  0.10904717433E+03  0.10904717433E+03  0.00000000000E+00 0. -1.
         -3   -1    0    0    0  501 -0.00000000000E+00 -0.00000000000E+00 -0.10894805159E+03  0.10894805159E+03  0.00000000000E+00 0.  1.
         25    2    1    2    0    0 -0.14612418030E+02  0.18528683463E+00 -0.17212478008E+01  0.12595627318E+03  0.12509381666E+03 0.  0.
          5    1    3    3  502    0 -0.18657199275E+02 -0.56489188348E+02 -0.24666609535E+02  0.64537070828E+02  0.41800000000E+01 0. -1.
         -5    1    3    3    0  502  0.40447812450E+01  0.56674475183E+02  0.22945361734E+02  0.61419202353E+02  0.41800000000E+01 0. -1.
        -11    1    1    2    0    0  0.41259900659E+02 -0.86899914421E+01  0.30451907159E+02  0.52011671798E+02  0.00000000000E+00 0. -1.
         11    1    1    2    0    0 -0.26647482629E+02  0.85047046074E+01 -0.28631536616E+02  0.40027280946E+02  0.00000000000E+00 0.  1.
</event>
<event>
 7    1  0.2690635E-009  0.2994707E+03  0.7561462E-02  0.1085505E+00
         -2   -1    0    0    0  501 -0.00000000000E+00  0.00000000000E+00  0.36606213647E+02  0.36606213647E+02  0.00000000000E+00 0. -1.
          2   -1    0    0  501    0  0.00000000000E+00 -0.00000000000E+00 -0.35864133243E+04  0.35864133243E+04  0.00000000000E+00 0.  1.
         25    2    1    2    0    0  0.29226257090E+03  0.19425878363E+02 -0.27174176426E+04  0.27360191878E+04  0.12509027460E+03 0.  0.
          5    1    3    3  502    0  0.21049702081E+03  0.24730461310E+02 -0.23505434067E+04  0.23600831280E+04  0.41800000000E+01 0. -1.
         -5    1    3    3    0  502  0.81765550093E+02 -0.53045829475E+01 -0.36687423586E+03  0.37593605988E+03  0.41800000000E+01 0. -1.
        -11    1    1    2    0    0 -0.22637346507E+03  0.21426792373E+02 -0.65715390156E+03  0.69538140862E+03  0.00000000000E+00 0.  1.
         11    1    1    2    0    0 -0.65889105827E+02 -0.40852670736E+02 -0.17523556649E+03  0.19161894149E+03  0.00000000000E+00 0. -1.
</event>
<event>
 7    1  0.2690635E-009  0.9861551E+02  0.7561462E-02  0.1283235E+00
         -2   -1    0    0    0  501 -0.00000000000E+00  0.00000000000E+00  0.31701529792E+02  0.31701529792E+02  0.00000000000E+00 0.  1.
          2   -1    0    0  501    0  0.00000000000E+00 -0.00000000000E+00 -0.38215537324E+03  0.38215537324E+03  0.00000000000E+00 0. -1.
         25    2    1    2    0    0  0.53122040780E+01  0.13686758663E+02 -0.23780747802E+03  0.26910137214E+03  0.12509038735E+03 0.  0.
          5    1    3    3  502    0 -0.50662743795E+02  0.34482487621E+02 -0.84058256581E+02  0.10411060686E+03  0.41800000000E+01 0. -1.
         -5    1    3    3    0  502  0.55974947873E+02 -0.20795728958E+02 -0.15374922144E+03  0.16499076528E+03  0.41800000000E+01 0. -1.
        -11    1    1    2    0    0  0.80583873356E+01  0.29580805880E+02 -0.88019439192E+02  0.93206133696E+02  0.00000000000E+00 0. -1.
         11    1    1    2    0    0 -0.13370591414E+02 -0.43267564542E+02 -0.24626926235E+02  0.51549397203E+02  0.00000000000E+00 0.  1.
</event>
<event>
 7    1  0.2690635E-009  0.1179921E+03  0.7561462E-02  0.1246447E+00
          1   -1    0    0  501    0  0.00000000000E+00  0.00000000000E+00  0.43714952189E+03  0.43714952189E+03  0.00000000000E+00 0. -1.
         -1   -1    0    0    0  501 -0.00000000000E+00 -0.00000000000E+00 -0.43942306868E+02  0.43942306868E+02  0.00000000000E+00 0.  1.
         25    2    1    2    0    0 -0.31778524312E+01  0.82986934278E+02  0.17715065769E+03  0.23222230310E+03  0.12509161654E+03 0.  0.
          5    1    3    3  502    0 -0.10929630712E+02 -0.21967591270E+02 -0.13923334395E+01  0.24928756208E+02  0.41800000000E+01 0. -1.
         -5    1    3    3    0  502  0.77517782806E+01  0.10495452555E+03  0.17854299113E+03  0.20729354689E+03  0.41800000000E+01 0. -1.
        -11    1    1    2    0    0  0.30566721442E+02 -0.18550911383E+02  0.14410421446E+03  0.14847385426E+03  0.00000000000E+00 0. -1.
         11    1    1    2    0    0 -0.27388869011E+02 -0.64436022895E+02  0.71952342868E+02  0.10039567140E+03  0.00000000000E+00 0.  1.
</event>
<event>
 7    1  0.2690635E-009  0.1143219E+03  0.7561462E-02  0.1252769E+00
         -2   -1    0    0    0  501 -0.00000000000E+00  0.00000000000E+00  0.10971431492E+02  0.10971431492E+02  0.00000000000E+00 0.  1.
          2   -1    0    0  501    0  0.00000000000E+00 -0.00000000000E+00 -0.15894009995E+04  0.15894009995E+04  0.00000000000E+00 0. -1.
         25    2    1    2    0    0  0.29711585456E+02 -0.36553468147E+02 -0.12281114263E+04  0.12353636950E+04  0.12508736593E+03 0.  0.
          5    1    3    3  502    0 -0.13976469143E+02 -0.71829049412E+02 -0.83959534753E+03  0.84278857018E+03  0.41800000000E+01 0. -1.
         -5    1    3    3    0  502  0.43688054599E+02  0.35275581265E+02 -0.38851607878E+03  0.39257512481E+03  0.41800000000E+01 0. -1.
        -11    1    1    2    0    0 -0.56441866534E+01 -0.28825627481E+02 -0.15193123354E+03  0.15474454229E+03  0.00000000000E+00 0.  1.
         11    1    1    2    0    0 -0.24067398803E+02  0.65379095628E+02 -0.19838690813E+03  0.21026419369E+03  0.00000000000E+00 0. -1.
</event>
<event>
 7    1  0.2690635E-009  0.1033191E+03  0.7561462E-02  0.1273467E+00
          3   -1    0    0  501    0  0.00000000000E+00  0.00000000000E+00  0.25443258336E+02  0.25443258336E+02  0.00000000000E+00 0. -1.
         -3   -1    0    0    0  501 -0.00000000000E+00 -0.00000000000E+00 -0.54670838680E+03  0.54670838680E+03  0.00000000000E+00 0.  1.
         25    2    1    2    0    0  0.33259201193E+02 -0.12749253997E+02 -0.37465169948E+03  0.39658684403E+03  0.12509400863E+03 0.  0.
          5    1    3    3  502    0  0.64448178883E+01  0.50759627562E+02 -0.89384068824E+02  0.10307792988E+03  0.41800000000E+01 0. -1.
         -5    1    3    3    0  502  0.26814383305E+02 -0.63508881560E+02 -0.28526763066E+03  0.29350891416E+03  0.41800000000E+01 0. -1.
        -11    1    1    2    0    0 -0.13200578776E+02 -0.33401264916E+02 -0.10262368389E+03  0.10872681488E+03  0.00000000000E+00 0.  1.
         11    1    1    2    0    0 -0.20058622417E+02  0.46150518914E+02 -0.43989745088E+02  0.66837986222E+02  0.00000000000E+00 0. -1.
</event>
<event>
 7    1  0.2690635E-009  0.4550078E+02  0.7561462E-02  0.1471239E+00
          2   -1    0    0  501    0  0.00000000000E+00  0.00000000000E+00  0.33160413712E+03  0.33160413712E+03  0.00000000000E+00 0. -1.
         -2   -1    0    0    0  501 -0.00000000000E+00 -0.00000000000E+00 -0.37081430644E+02  0.37081430644E+02  0.00000000000E+00 0.  1.
         25    2    1    2    0    0  0.89004433182E+01  0.18307761568E+00  0.13736757712E+03  0.18600539739E+03  0.12509558428E+03 0.  0.
          5    1    3    3  502    0  0.10014691882E+02  0.10005561213E+01 -0.23066256640E+02  0.25511169346E+02  0.41800000000E+01 0.  1.
         -5    1    3    3    0  502 -0.11142485638E+01 -0.81747850563E+00  0.16043383376E+03  0.16049422804E+03  0.41800000000E+01 0.  1.
        -11    1    1    2    0    0  0.29191690273E+02 -0.17307399758E+02  0.20188653678E+02  0.39487752591E+02  0.00000000000E+00 0. -1.
         11    1    1    2    0    0 -0.38092133591E+02  0.17124322143E+02  0.13696647568E+03  0.14319241779E+03  0.00000000000E+00 0.  1.
</event>
<event>
 7    1  0.2690635E-009  0.1563454E+03  0.7561462E-02  0.1192886E+00
         -2   -1    0    0    0  501 -0.00000000000E+00  0.00000000000E+00  0.76838497551E+03  0.76838497551E+03  0.00000000000E+00 0.  1.
          2   -1    0    0  501    0  0.00000000000E+00 -0.00000000000E+00 -0.33593133067E+02  0.33593133067E+02  0.00000000000E+00 0. -1.
         25    2    1    2    0    0 -0.11540955533E+03  0.91429426507E+01  0.34008046292E+03  0.38040320296E+03  0.12509563022E+03 0.  0.
          5    1    3    3  502    0 -0.97513612059E+01 -0.45004268700E+02  0.14296667309E+03  0.15025782928E+03  0.41800000000E+01 0. -1.
         -5    1    3    3    0  502 -0.10565819413E+03  0.54147211351E+02  0.19711378983E+03  0.23014537368E+03  0.41800000000E+01 0. -1.
        -11    1    1    2    0    0  0.27668339244E+02 -0.45035537810E+02  0.12626584822E+03  0.13688243528E+03  0.00000000000E+00 0. -1.
         11    1    1    2    0    0  0.87741216089E+02  0.35892595159E+02  0.26844553131E+03  0.28469247034E+03  0.00000000000E+00 0.  1.
</event>
<event>
 7    1  0.2690635E-009  0.1400870E+03  0.7561462E-02  0.1213212E+00
          1   -1    0    0  501    0  0.00000000000E+00  0.00000000000E+00  0.36392898456E+03  0.36392898456E+03  0.00000000000E+00 0. -1.
         -1   -1    0    0    0  501 -0.00000000000E+00 -0.00000000000E+00 -0.62636070461E+02  0.62636070461E+02  0.00000000000E+00 0.  1.
         25    2    1    2    0    0 -0.52128187223E+02 -0.64384086398E+02  0.22723319991E+03  0.27229593857E+03  0.12508993780E+03 0.  0.
          5    1    3    3  502    0 -0.58727494975E+02 -0.98075472087E+02  0.15995630745E+03  0.19664996716E+03  0.41800000000E+01 0. -1.
         -5    1    3    3    0  502  0.65993077521E+01  0.33691385689E+02  0.67276892455E+02  0.75645971412E+02  0.41800000000E+01 0. -1.
        -11    1    1    2    0    0  0.78268748386E+02  0.21829087032E+02  0.26936207437E+02  0.85604119560E+02  0.00000000000E+00 0.  1.
         11    1    1    2    0    0 -0.26140561163E+02  0.42554999366E+02  0.47123506760E+02  0.68664996893E+02  0.00000000000E+00 0. -1.
</event>
<event>
 7    1  0.2690635E-009  0.9269817E+02  0.7561462E-02  0.1296446E+00
          1   -1    0    0  501    0  0.00000000000E+00  0.00000000000E+00  0.26312809838E+03  0.26312809838E+03  0.00000000000E+00 0. -1.
         -1   -1    0    0    0  501 -0.00000000000E+00 -0.00000000000E+00 -0.54116685111E+02  0.54116685111E+02  0.00000000000E+00 0.  1.
         25    2    1    2    0    0  0.20481134504E+02 -0.52982915888E+01  0.17828274320E+03  0.21881379951E+03  0.12508874277E+03 0.  0.
          5    1    3    3  502    0 -0.77934713721E+01  0.42436682852E+02  0.15051296967E+03  0.15663089314E+03  0.41800000000E+01 0.  1.
         -5    1    3    3    0  502  0.28274605876E+02 -0.47734974441E+02  0.27769773535E+02  0.62182906369E+02  0.41800000000E+01 0.  1.
        -11    1    1    2    0    0 -0.52101367991E+02  0.13342866323E+02  0.36901035226E+02  0.65224773123E+02  0.00000000000E+00 0. -1.
         11    1    1    2    0    0  0.31620233487E+02 -0.80445747341E+01 -0.61723651541E+01  0.33206210865E+02  0.00000000000E+00 0.  1.
</event>
<event>
 7    1  0.2690635E-009  0.1631548E+03  0.7561462E-02  0.1185180E+00
         -4   -1    0    0    0  501 -0.00000000000E+00  0.00000000000E+00  0.19966097811E+03  0.19966097811E+03  0.00000000000E+00 0.  1.
          4   -1    0    0  501    0  0.00000000000E+00 -0.00000000000E+00 -0.18566184150E+03  0.18566184150E+03  0.00000000000E+00 0. -1.
         25    2    1    2    0    0 -0.76120346216E+02  0.13217912928E+03  0.50964267159E+02  0.20374150922E+03  0.12509043419E+03 0.  0.
          5    1    3    3  502    0 -0.27819390308E+02  0.56745815772E+01 -0.33484464537E+02  0.44099899303E+02  0.41800000000E+01 0. -1.
         -5    1    3    3    0  502 -0.48300955908E+02  0.12650454771E+03  0.84448731695E+02  0.15964160992E+03  0.41800000000E+01 0. -1.
        -11    1    1    2    0    0  0.43801977143E+02 -0.11974908141E+03  0.44646329551E+01  0.12758678868E+03  0.00000000000E+00 0.  1.
         11    1    1    2    0    0  0.32318369072E+02 -0.12430047877E+02 -0.41429763506E+02  0.53994521703E+02  0.00000000000E+00 0. -1.
</event>
<event>
 7    1  0.2690635E-009  0.1470026E+03  0.7561462E-02  0.1204205E+00
          1   -1    0    0  501    0  0.00000000000E+00  0.00000000000E+00  0.35706748287E+03  0.35706748287E+03  0.00000000000E+00 0. -1.
         -1   -1    0    0    0  501 -0.00000000000E+00 -0.00000000000E+00 -0.80258782106E+02  0.80258782106E+02  0.00000000000E+00 0.  1.
         25    2    1    2    0    0 -0.39203588686E+01 -0.11273941693E+03  0.23198361227E+03  0.28668697220E+03  0.12508988099E+03 0.  0.
          5    1    3    3  502    0 -0.51550540282E+02 -0.61726516818E+02  0.58181493491E+02  0.99348777882E+02  0.41800000000E+01 0.  1.
         -5    1    3    3    0  502  0.47630181413E+02 -0.51012900116E+02  0.17380211878E+03  0.18733819432E+03  0.41800000000E+01 0.  1.
        -11    1    1    2    0    0  0.92722474064E+01 -0.13952755005E+02  0.81934883534E+01  0.18649053477E+02  0.00000000000E+00 0. -1.
         11    1    1    2    0    0 -0.53518885378E+01  0.12669217194E+03  0.36631600145E+02  0.13199023930E+03  0.00000000000E+00 0.  1.
</event>
<event>
 7    1  0.2690635E-009  0.1394703E+03  0.7561462E-02  0.1214043E+00
          3   -1    0    0  501    0  0.00000000000E+00  0.00000000000E+00  0.60174185109E+02  0.60174185109E+02  0.00000000000E+00 0. -1.
         -3   -1    0    0    0  501 -0.00000000000E+00 -0.00000000000E+00 -0.60770657840E+03  0.60770657840E+03  0.00000000000E+00 0.  1.
         25    2    1    2    0    0  0.51869021565E+02  0.91072796784E+02 -0.85397173768E+02  0.18418615166E+03  0.12508881430E+03 0.  0.
          5    1    3    3  502    0  0.32240674450E+02  0.11301325784E+03 -0.96827816295E+02  0.15233041701E+03  0.41800000000E+01 0. -1.
         -5    1    3    3    0  502  0.19628347115E+02 -0.21940461057E+02  0.11430642527E+02  0.31855734655E+02  0.41800000000E+01 0. -1.
        -11    1    1    2    0    0  0.18560372187E+02 -0.41565255629E+02 -0.26054526181E+03  0.26449194949E+03  0.00000000000E+00 0.  1.
         11    1    1    2    0    0 -0.70429393752E+02 -0.49507541154E+02 -0.20158995771E+03  0.21920266236E+03  0.00000000000E+00 0. -1.
</event>
<event>
 7    1  0.2690635E-009  0.8218637E+02  0.7561462E-02  0.1322959E+00
         -4   -1    0    0    0  501 -0.00000000000E+00  0.00000000000E+00  0.23622400637E+02  0.23622400637E+02  0.00000000000E+00 0. -1.
          4   -1    0    0  501    0  0.00000000000E+00 -0.00000000000E+00 -0.67691758562E+03  0.67691758562E+03  0.00000000000E+00 0.  1.
         25    2    1    2    0    0 -0.30140009922E+02  0.54913608303E+02 -0.31863230510E+03  0.34799010080E+03  0.12508652936E+03 0.  0.
          5    1    3    3  502    0 -0.21679324875E+02  0.42815937072E+02 -0.32698926107E+03  0.33051875415E+03  0.41800000000E+01 0.  1.
         -5    1    3    3    0  502 -0.84606850469E+01  0.12097671231E+02  0.83569559649E+01  0.17471346648E+02  0.41800000000E+01 0.  1.
        -11    1    1    2    0    0  0.20646184811E+02 -0.75454189089E+02 -0.30700384940E+03  0.31681376729E+03  0.00000000000E+00 0.  1.
         11    1    1    2    0    0  0.94938251111E+01  0.20540580786E+02 -0.27659030475E+02  0.35736118159E+02  0.00000000000E+00 0. -1.
</event>
<event>
 7    1  0.2690635E-009  0.9587940E+02  0.7561462E-02  0.1289208E+00
          1   -1    0    0  501    0  0.00000000000E+00  0.00000000000E+00  0.48498184764E+02  0.48498184764E+02  0.00000000000E+00 0. -1.
         -1   -1    0    0    0  501 -0.00000000000E+00 -0.00000000000E+00 -0.47680424590E+03  0.47680424590E+03  0.00000000000E+00 0.  1.
         25    2    1    2    0    0  0.80186681717E+01 -0.62119456699E+02 -0.38467023309E+03  0.40931852260E+03  0.12508932322E+03 0.  0.
          5    1    3    3  502    0  0.31347920277E+02 -0.86075385917E+01 -0.16816471541E+02  0.36838131622E+02  0.41800000000E+01 0.  1.
         -5    1    3    3    0  502 -0.23329252105E+02 -0.53511918107E+02 -0.36785376155E+03  0.37248039098E+03  0.41800000000E+01 0.  1.
        -11    1    1    2    0    0  0.85483947460E+01 -0.17316817242E+02 -0.26926620925E+02  0.33135934068E+02  0.00000000000E+00 0.  1.
         11    1    1    2    0    0 -0.16567062918E+02  0.79436273941E+02 -0.16709207120E+02  0.82847973988E+02  0.00000000000E+00 0. -1.
</event>
<event>
 7    1  0.2690635E-009  0.1200227E+03  0.7561462E-02  0.1243060E+00
          4   -1    0    0  501    0  0.00000000000E+00  0.00000000000E+00  0.15415320363E+03  0.15415320363E+03  0.00000000000E+00 0. -1.
         -4   -1    0    0    0  501 -0.00000000000E+00 -0.00000000000E+00 -0.19821797521E+03  0.19821797521E+03  0.00000000000E+00 0.  1.
         25    2    1    2    0    0 -0.29214307638E+02  0.30585776629E+02 -0.14937436971E+03  0.19936958809E+03  0.12508622955E+03 0.  0.
          5    1    3    3  502    0  0.20921193929E+02 -0.38554652373E+02 -0.33453722536E+02  0.55324330331E+02  0.41800000000E+01 0. -1.
         -5    1    3    3    0  502 -0.50135501566E+02  0.69140429002E+02 -0.11592064718E+03  0.14404525775E+03  0.41800000000E+01 0. -1.
        -11    1    1    2    0    0  0.18349916571E+02 -0.68561798675E+02  0.60436205433E+02  0.93220033270E+02  0.00000000000E+00 0. -1.
         11    1    1    2    0    0  0.10864391067E+02  0.37976022046E+02  0.44873392700E+02  0.59781557491E+02  0.00000000000E+00 0.  1.
</event>
<event>
 7    1  0.2690635E-009  0.1731636E+03  0.7561462E-02  0.1174588E+00
          2   -1    0    0  501    0  0.00000000000E+00  0.00000000000E+00  0.79257110446E+03  0.79257110446E+03  0.00000000000E+00 0. -1.
         -2   -1    0    0    0  501 -0.00000000000E+00 -0.00000000000E+00 -0.52511149367E+02  0.52511149367E+02  0.00000000000E+00 0.  1.
         25    2    1    2    0    0  0.99136879867E+02 -0.12280488763E+03  0.53232110609E+03  0.56914244498E+03  0.12509277081E+03 0.  0.
          5    1    3    3  502    0  0.10120907124E+02 -0.76712955321E+02  0.37223743121E+03  0.38021768485E+03  0.41800000000E+01 0.  1.
         -5    1    3    3    0  502  0.89015972743E+02 -0.46091932311E+02  0.16008367488E+03  0.18892476013E+03  0.41800000000E+01 0.  1.
        -11    1    1    2    0    0 -0.16947633127E+02  0.67132337383E+02  0.37165246151E+02  0.78582622205E+02  0.00000000000E+00 0.  1.
         11    1    1    2    0    0 -0.82189246740E+02  0.55672550248E+02  0.17057360285E+03  0.19735718665E+03  0.00000000000E+00 0. -1.
</event>
<event>
 7    1  0.2690635E-009  0.8194970E+02  0.7561462E-02  0.1323608E+00
          2   -1    0    0  501    0  0.00000000000E+00  0.00000000000E+00  0.61316106037E+02  0.61316106037E+02  0.00000000000E+00 0. -1.
         -2   -1    0    0    0  501 -0.00000000000E+00 -0.00000000000E+00 -0.22706727111E+03  0.22706727111E+03  0.00000000000E+00 0.  1.
         25    2    1    2    0    0 -0.18846771192E+02  0.19126125192E+02 -0.13827765593E+03  0.18839408603E+03  0.12510240635E+03 0.  0.
          5    1    3    3  502    0  0.26795579844E+02  0.59154965276E+02 -0.88064094154E+02  0.10949917851E+03  0.41800000000E+01 0. -1.
         -5    1    3    3    0  502 -0.45642351036E+02 -0.40028840084E+02 -0.50213561776E+02  0.78894907521E+02  0.41800000000E+01 0. -1.
        -11    1    1    2    0    0  0.12882220785E+02  0.44683344293E+01 -0.58777398175E+02  0.60338214766E+02  0.00000000000E+00 0.  1.
         11    1    1    2    0    0  0.59645504070E+01 -0.23594459621E+02  0.31303889035E+02  0.39651076342E+02  0.00000000000E+00 0. -1.
</event>
<event>
 7    1  0.3029091E-009  0.1053416E+03  0.7561462E-02  0.1269448E+00
         -4   -1    0    0    0  501 -0.00000000000E+00  0.00000000000E+00  0.19027659964E+02  0.19027659964E+02  0.00000000000E+00 0.  1.
          4   -1    0    0  501    0  0.00000000000E+00 -0.00000000000E+00 -0.98814465115E+03  0.98814465115E+03  0.00000000000E+00 0. -1.
         25    2    1    2    0    0  0.69029453403E+02 -0.94623256537E+01 -0.70193744023E+03  0.71639164931E+03  0.12508486784E+03 0.  0.
          5    1    3    3  502    0  0.73437860076E+02 -0.35106988472E+02 -0.67020296797E+03  0.67514080799E+03  0.41800000000E+01 0.  1.
         -5    1    3    3    0  502 -0.44084066733E+01  0.25644662818E+02 -0.31734472261E+02  0.41250841327E+02  0.41800000000E+01 0.  1.
        -11    1    1    2    0    0 -0.81550349745E+02 -0.73278211133E+01 -0.14245231237E+03  0.16430708386E+03  0.00000000000E+00 0.  1.
         11    1    1    2    0    0  0.12520896342E+02  0.16790146767E+02 -0.12472723858E+03  0.12647357794E+03  0.00000000000E+00 0. -1.
</event>
<event>
 7    1  0.2690635E-009  0.8699938E+02  0.7561462E-02  0.1310285E+00
          2   -1    0    0  501    0  0.00000000000E+00  0.00000000000E+00  0.47047871994E+03  0.47047871994E+03  0.00000000000E+00 0. -1.
         -2   -1    0    0    0  501 -0.00000000000E+00 -0.00000000000E+00 -0.26862863230E+02  0.26862863230E+02  0.00000000000E+00 0.  1.
         25    2    1    2    0    0 -0.97743528144E+01  0.97288202941E+01  0.31780381641E+03  0.34181418587E+03  0.12508990374E+03 0.  0.
          5    1    3    3  502    0  0.52184137781E+02 -0.71560921839E+01  0.20738847696E+03  0.21401366000E+03  0.41800000000E+01 0. -1.
         -5    1    3    3    0  502 -0.61958490595E+02  0.16884912478E+02  0.11041533945E+03  0.12780052587E+03  0.41800000000E+01 0. -1.
        -11    1    1    2    0    0 -0.12023968351E+02  0.17931318212E+02 -0.31726233962E+01  0.21821400664E+02  0.00000000000E+00 0.  1.
         11    1    1    2    0    0  0.21798321165E+02 -0.27660138507E+02  0.12898466369E+03  0.13370599663E+03  0.00000000000E+00 0. -1.
</event>
<event>
 7    1  0.2690635E-009  0.8274910E+02  0.7561462E-02  0.1321426E+00
          4   -1    0    0  501    0  0.00000000000E+00  0.00000000000E+00  0.52587401887E+03  0.52587401887E+03  0.00000000000E+00 0. -1.
         -4   -1    0    0    0  501 -0.00000000000E+00 -0.00000000000E+00 -0.26586843821E+02  0.26586843821E+02  0.00000000000E+00 0.  1.
         25    2    1    2    0    0  0.58002869651E+01 -0.29692312790E+02  0.36637028491E+03  0.38831771438E+03  0.12509270511E+03 0.  0.
          5    1    3    3  502    0 -0.38617447824E+02 -0.18721965367E+02  0.32052922731E+03  0.32341656918E+03  0.41800000000E+01 0. -1.
         -5    1    3    3    0  502  0.44417734789E+02 -0.10970347423E+02  0.45841057602E+02  0.64901145201E+02  0.41800000000E+01 0. -1.
        -11    1    1    2    0    0  0.57646814057E+01 -0.22371821032E+02  0.24938283241E+01  0.23236805023E+02  0.00000000000E+00 0.  1.
         11    1    1    2    0    0 -0.11564968371E+02  0.52064133822E+02  0.13042306181E+03  0.14090634328E+03  0.00000000000E+00 0. -1.
</event>
<event>
 7    1  0.2690635E-009  0.1402309E+03  0.7561462E-02  0.1213019E+00
         -1   -1    0    0    0  501 -0.00000000000E+00  0.00000000000E+00  0.96639904624E+02  0.96639904624E+02  0.00000000000E+00 0.  1.
          1   -1    0    0  501    0  0.00000000000E+00 -0.00000000000E+00 -0.23658157433E+03  0.23658157433E+03  0.00000000000E+00 0. -1.
         25    2    1    2    0    0  0.90258757153E+02  0.10045950190E+02 -0.14342844170E+02  0.15524040433E+03  0.12508517737E+03 0.  0.
          5    1    3    3  502    0  0.10522279398E+03  0.46330961430E+02 -0.12526302750E+02  0.11572715767E+03  0.41800000000E+01 0. -1.
         -5    1    3    3    0  502 -0.14964036831E+02 -0.36285011240E+02 -0.18165414205E+01  0.39513246661E+02  0.41800000000E+01 0. -1.
        -11    1    1    2    0    0 -0.13013501258E+02  0.34431051320E+02 -0.40860846513E+02  0.54995066031E+02  0.00000000000E+00 0.  1.
         11    1    1    2    0    0 -0.77245255895E+02 -0.44477001510E+02 -0.84737979024E+02  0.12298600860E+03  0.00000000000E+00 0. -1.
</event>
<event>
 7    1  0.2690635E-009  0.1329180E+03  0.7561462E-02  0.1223189E+00
          2   -1    0    0  501    0  0.00000000000E+00  0.00000000000E+00  0.45948036665E+03  0.45948036665E+03  0.00000000000E+00 0. -1.
         -2   -1    0    0    0  501 -0.00000000000E+00 -0.00000000000E+00 -0.55802663831E+02  0.55802663831E+02  0.00000000000E+00 0.  1.
         25    2    1    2    0    0  0.91489288243E+02 -0.32431272556E+02  0.32337122723E+03  0.36005358438E+03  0.12509019035E+03 0.  0.
          5    1    3    3  502    0 -0.97196197667E+01 -0.51245421223E+02  0.77952337217E+02  0.93886119753E+02  0.41800000000E+01 0. -1.
         -5    1    3    3    0  502  0.10120890801E+03  0.18814148667E+02  0.24541889001E+03  0.26616746463E+03  0.41800000000E+01 0. -1.
        -11    1    1    2    0    0 -0.83780668631E+02  0.71883657938E+01  0.15837594713E+02  0.85566947155E+02  0.00000000000E+00 0.  1.
         11    1    1    2    0    0 -0.77086196116E+01  0.25242906762E+02  0.64468880874E+02  0.69662498945E+02  0.00000000000E+00 0. -1.
</event>
<event>
 7    1  0.2690635E-009  0.1315428E+03  0.7561462E-02  0.1225184E+00
          2   -1    0    0  501    0  0.00000000000E+00  0.00000000000E+00  0.14967789121E+03  0.14967789121E+03  0.00000000000E+00 0.  1.
         -2   -1    0    0    0  501 -0.00000000000E+00 -0.00000000000E+00 -0.12205826936E+03  0.12205826936E+03  0.00000000000E+00 0. -1.
         25    2    1    2    0    0 -0.83528571533E+02 -0.34039279200E+02  0.18685416551E+02  0.15534164646E+03  0.12508472146E+03 0.  0.
          5    1    3    3  502    0 -0.10849674199E+03 -0.54020338904E+02  0.87211293240E+01  0.12158647348E+03  0.41800000000E+01 0.  1.
         -5    1    3    3    0  502  0.24968170455E+02  0.19981059704E+02  0.99642872270E+01  0.33755172977E+02  0.41800000000E+01 0.  1.
        -11    1    1    2    0    0  0.13810554689E+02 -0.17910448855E+02 -0.13841667111E+02  0.26516171432E+02  0.00000000000E+00 0. -1.
         11    1    1    2    0    0  0.69718016844E+02  0.51949728055E+02  0.22775872410E+02  0.89878342673E+02  0.00000000000E+00 0.  1.
</event>
<event>
 7    1  0.2690635E-009  0.9782673E+02  0.7561462E-02  0.1284934E+00
          1   -1    0    0  501    0  0.00000000000E+00  0.00000000000E+00  0.39396364168E+03  0.39396364168E+03  0.00000000000E+00 0.  1.
         -1   -1    0    0    0  501 -0.00000000000E+00 -0.00000000000E+00 -0.35940150832E+02  0.35940150832E+02  0.00000000000E+00 0. -1.
         25    2    1    2    0    0 -0.37441732818E+02 -0.22326402887E+02  0.24552468385E+03  0.27897592796E+03  0.12507936032E+03 0.  0.
          5    1    3    3  502    0 -0.17458244363E+01  0.40865663305E+02  0.28312186423E+02  0.49920963937E+02  0.41800000000E+01 0. -1.
         -5    1    3    3    0  502 -0.35695908382E+02 -0.63192066193E+02  0.21721249743E+03  0.22905496403E+03  0.41800000000E+01 0. -1.
        -11    1    1    2    0    0 -0.18172857671E+02 -0.63719171229E+01  0.76166788900E+02  0.78563565443E+02  0.00000000000E+00 0.  1.
         11    1    1    2    0    0  0.55614590489E+02  0.28698320010E+02  0.36332018098E+02  0.72364299111E+02  0.00000000000E+00 0. -1.
</event>
<event>
 7    1  0.2690635E-009  0.9588025E+02  0.7561462E-02  0.1289206E+00
          2   -1    0    0  501    0  0.00000000000E+00  0.00000000000E+00  0.24758125620E+03  0.24758125620E+03  0.00000000000E+00 0. -1.
         -2   -1    0    0    0  501 -0.00000000000E+00 -0.00000000000E+00 -0.59367008285E+02  0.59367008285E+02  0.00000000000E+00 0.  1.
         25    2    1    2    0    0  0.33490387747E+01 -0.47040695920E+02  0.14339328321E+03  0.19604656116E+03  0.12509427382E+03 0.  0.
          5    1    3    3  502    0  0.31550741398E+02  0.11126168599E+02 -0.50439394750E+01  0.34090389201E+02  0.41800000000E+01 0. -1.
         -5    1    3    3    0  502 -0.28201702624E+02 -0.58166864519E+02  0.14843722268E+03  0.16195617196E+03  0.41800000000E+01 0. -1.
        -11    1    1    2    0    0 -0.20515120713E+02  0.65156694277E+02  0.11501158055E+02  0.69271506578E+02  0.00000000000E+00 0.  1.
         11    1    1    2    0    0  0.17166081939E+02 -0.18115998357E+02  0.33319806656E+02  0.41630196747E+02  0.00000000000E+00 0. -1.
</event>
<event>
 7    1  0.2690635E-009  0.1025475E+03  0.7561462E-02  0.1275028E+00
         -1   -1    0    0    0  501 -0.00000000000E+00  0.00000000000E+00  0.37889689637E+03  0.37889689637E+03  0.00000000000E+00 0.  1.
          1   -1    0    0  501    0  0.00000000000E+00 -0.00000000000E+00 -0.35092675447E+02  0.35092675447E+02  0.00000000000E+00 0. -1.
         25    2    1    2    0    0 -0.19214855691E+02 -0.36726802081E+02  0.17718881399E+03  0.22081999807E+03  0.12509007584E+03 0.  0.
          5    1    3    3  502    0  0.46803049494E+02 -0.97384638435E-01  0.31179744620E+02  0.56393118377E+02  0.41800000000E+01 0.  1.
         -5    1    3    3    0  502 -0.66017905185E+02 -0.36629417442E+02  0.14600906937E+03  0.16442687969E+03  0.41800000000E+01 0.  1.
        -11    1    1    2    0    0  0.46477783995E+02  0.20829529747E+02  0.14802413252E+03  0.15654136042E+03  0.00000000000E+00 0.  1.
         11    1    1    2    0    0 -0.27262928304E+02  0.15897272333E+02  0.18591274421E+02  0.36628213332E+02  0.00000000000E+00 0. -1.
</event>
<event>
 7    1  0.2690635E-009  0.8003102E+02  0.7561462E-02  0.1328963E+00
         -1   -1    0    0    0  501 -0.00000000000E+00  0.00000000000E+00  0.54827517442E+02  0.54827517442E+02  0.00000000000E+00 0.  1.
          1   -1    0    0  501    0  0.00000000000E+00 -0.00000000000E+00 -0.44523547853E+03  0.44523547853E+03  0.00000000000E+00 0. -1.
         25    2    1    2    0    0  0.32010914200E+02  0.59181450102E+02 -0.65757951005E+02  0.15652217261E+03  0.12509172528E+03 0.  0.
          5    1    3    3  502    0  0.17244961123E+02  0.23238902433E+02 -0.10023134441E+03  0.10440895590E+03  0.41800000000E+01 0. -1.
         -5    1    3    3    0  502  0.14765953077E+02  0.35942547669E+02  0.34473393403E+02  0.52113216711E+02  0.41800000000E+01 0. -1.
        -11    1    1    2    0    0  0.10003481235E+02 -0.46920096419E+02 -0.26637454414E+03  0.27066023508E+03  0.00000000000E+00 0. -1.
         11    1    1    2    0    0 -0.42014395434E+02 -0.12261353683E+02 -0.58275465941E+02  0.72880588283E+02  0.00000000000E+00 0.  1.
</event>
<event>
 7    1  0.2690635E-009  0.2086050E+03  0.7561462E-02  0.1142675E+00
          1   -1    0    0  501    0  0.00000000000E+00  0.00000000000E+00  0.66357815030E+03  0.66357815030E+03  0.00000000000E+00 0. -1.
         -1   -1    0    0    0  501 -0.00000000000E+00 -0.00000000000E+00 -0.70483085215E+02  0.70483085215E+02  0.00000000000E+00 0.  1.
         25    2    1    2    0    0  0.16758522067E+03  0.82288323759E+02  0.30014222613E+03  0.37495329274E+03  0.12509373053E+03 0.  0.
          5    1    3    3  502    0  0.16618946219E+03  0.34219783425E+02  0.19042027370E+03  0.25508289625E+03  0.41800000000E+01 0. -1.
         -5    1    3    3    0  502  0.13957584830E+01  0.48068540335E+02  0.10972195243E+03  0.11987039649E+03  0.41800000000E+01 0. -1.
        -11    1    1    2    0    0  0.54652723682E+01 -0.10549900580E+02  0.61339092435E+00  0.11897304431E+02  0.00000000000E+00 0. -1.
         11    1    1    2    0    0 -0.17305049304E+03 -0.71738423179E+02  0.29233944804E+03  0.34721063835E+03  0.00000000000E+00 0.  1.
</event>
<event>
 7    1  0.2690635E-009  0.1292832E+03  0.7561462E-02  0.1228523E+00
          2   -1    0    0  501    0  0.00000000000E+00  0.00000000000E+00  0.20017199016E+03  0.20017199016E+03  0.00000000000E+00 0. -1.
         -2   -1    0    0    0  501 -0.00000000000E+00 -0.00000000000E+00 -0.11782056922E+03  0.11782056922E+03  0.00000000000E+00 0.  1.
         25    2    1    2    0    0 -0.40106865069E+02  0.83241860649E+02  0.10146380838E+03  0.18568879664E+03  0.12509059435E+03 0.  0.
          5    1    3    3  502    0  0.73349918975E+01  0.10285974427E+03  0.58621883735E+02  0.11869257243E+03  0.41800000000E+01 0. -1.
         -5    1    3    3    0  502 -0.47441856966E+02 -0.19617883624E+02  0.42841924646E+02  0.66996224205E+02  0.41800000000E+01 0. -1.
        -11    1    1    2    0    0  0.10105281850E+02  0.45454839093E+01 -0.36299279678E+02  0.37952810836E+02  0.00000000000E+00 0.  1.
         11    1    1    2    0    0  0.30001583218E+02 -0.87787344558E+02  0.17186892236E+02  0.94350951902E+02  0.00000000000E+00 0. -1.
</event>
<event>
 7    1  0.2690635E-009  0.3305892E+03  0.7561462E-02  0.1070876E+00
         -1   -1    0    0    0  501 -0.00000000000E+00  0.00000000000E+00  0.15677953171E+03  0.15677953171E+03  0.00000000000E+00 0.  1.
          1   -1    0    0  501    0  0.00000000000E+00 -0.00000000000E+00 -0.79161510922E+03  0.79161510922E+03  0.00000000000E+00 0. -1.
         25    2    1    2    0    0  0.18966732266E+03  0.25728744971E+03 -0.19153076471E+03  0.39306220007E+03  0.12507331544E+03 0.  0.
          5    1    3    3  502    0  0.13440387459E+03  0.11479897946E+03 -0.15671010650E+03  0.23625989306E+03  0.41800000000E+01 0. -1.
         -5    1    3    3    0  502  0.55263448074E+02  0.14248847025E+03 -0.34820658206E+02  0.15680230702E+03  0.41800000000E+01 0. -1.
        -11    1    1    2    0    0 -0.72990332029E+02 -0.36145731776E+02 -0.78924612559E+02  0.11341603486E+03  0.00000000000E+00 0.  1.
         11    1    1    2    0    0 -0.11667699063E+03 -0.22114171793E+03 -0.36438020025E+03  0.44191640600E+03  0.00000000000E+00 0. -1.
</event>
<event>
 7    1  0.2690635E-009  0.2248559E+03  0.7561462E-02  0.1130314E+00
          1   -1    0    0  501    0  0.00000000000E+00  0.00000000000E+00  0.14407453729E+04  0.14407453729E+04  0.00000000000E+00 0. -1.
         -1   -1    0    0    0  501 -0.00000000000E+00 -0.00000000000E+00 -0.59297931434E+02  0.59297931434E+02  0.00000000000E+00 0.  1.
         25    2    1    2    0    0  0.57998315844E+02 -0.21448577655E+03  0.11057961524E+04  0.11348130855E+04  0.12509058859E+03 0.  0.
          5    1    3    3  502    0 -0.16396936692E+01 -0.35070223379E+01  0.29008748338E+03  0.29014342697E+03  0.41800000000E+01 0. -1.
         -5    1    3    3    0  502  0.59638009513E+02 -0.21097875421E+03  0.81570866903E+03  0.84466965853E+03  0.41800000000E+01 0. -1.
        -11    1    1    2    0    0 -0.39837969511E+02  0.83801671492E+02  0.17919088550E+03  0.20178988430E+03  0.00000000000E+00 0. -1.
         11    1    1    2    0    0 -0.18160346333E+02  0.13068410506E+03  0.96460403528E+02  0.16344033450E+03  0.00000000000E+00 0.  1.
</event>
<event>
 7    1  0.2690635E-009  0.1127658E+03  0.7561462E-02  0.1255532E+00
         -1   -1    0    0    0  501 -0.00000000000E+00  0.00000000000E+00  0.23085687395E+02  0.23085687395E+02  0.00000000000E+00 0.  1.
          1   -1    0    0  501    0  0.00000000000E+00 -0.00000000000E+00 -0.85742917918E+03  0.85742917918E+03  0.00000000000E+00 0. -1.
         25    2    1    2    0    0 -0.52671265818E+02 -0.13906111533E+02 -0.68236806172E+03  0.69587382903E+03  0.12508625862E+03 0.  0.
          5    1    3    3  502    0 -0.25241400777E+01 -0.56255375901E+02 -0.47452557613E+03  0.47787344915E+03  0.41800000000E+01 0. -1.
         -5    1    3    3    0  502 -0.50147125740E+02  0.42349264368E+02 -0.20784248559E+03  0.21800037988E+03  0.41800000000E+01 0. -1.
        -11    1    1    2    0    0  0.55191276656E+02  0.45544243316E+02 -0.11911526506E+03  0.13895611354E+03  0.00000000000E+00 0.  1.
         11    1    1    2    0    0 -0.25200108377E+01 -0.31638131783E+02 -0.32860164996E+02  0.45684924000E+02  0.00000000000E+00 0. -1.
</event>
<event>
 7    1  0.2690635E-009  0.9808608E+02  0.7561462E-02  0.1284373E+00
         -2   -1    0    0    0  501 -0.00000000000E+00  0.00000000000E+00  0.52331395708E+03  0.52331395708E+03  0.00000000000E+00 0.  1.
          2   -1    0    0  501    0  0.00000000000E+00 -0.00000000000E+00 -0.40931619492E+02  0.40931619492E+02  0.00000000000E+00 0. -1.
         25    2    1    2    0    0  0.89126913445E+02  0.12573073618E+01  0.34343215134E+03  0.37621822856E+03  0.12509726377E+03 0.  0.
          5    1    3    3  502    0  0.63565206206E+02 -0.20730717652E+01  0.34424059547E+03  0.35009126386E+03  0.41800000000E+01 0.  1.
         -5    1    3    3    0  502  0.25561707239E+02  0.33303791270E+01 -0.80844413009E+00  0.26126964692E+02  0.41800000000E+01 0.  1.
        -11    1    1    2    0    0  0.14301227187E+01 -0.14702397206E+02 -0.65200757649E+01  0.16146737211E+02  0.00000000000E+00 0. -1.
         11    1    1    2    0    0 -0.90557036163E+02  0.13445089844E+02  0.14547026201E+03  0.17188061080E+03  0.00000000000E+00 0.  1.
</event>
<event>
 7    1  0.2828437E-009  0.1573728E+03  0.7561462E-02  0.1191695E+00
          2   -1    0    0  501    0  0.00000000000E+00  0.00000000000E+00  0.10008092491E+04  0.10008092491E+04  0.00000000000E+00 0.  1.
         -2   -1    0    0    0  501 -0.00000000000E+00 -0.00000000000E+00 -0.32449271143E+02  0.32449271143E+02  0.00000000000E+00 0. -1.
         25    2    1    2    0    0  0.32588610080E+02 -0.11622079835E+03  0.73408848104E+03  0.75438892447E+03  0.12508980727E+03 0.  0.
          5    1    3    3  502    0  0.30795267243E+02 -0.14213050022E+03  0.65764815008E+03  0.67354880245E+03  0.41800000000E+01 0. -1.
         -5    1    3    3    0  502  0.17933428370E+01  0.25909701877E+02  0.76440330964E+02  0.80840122017E+02  0.41800000000E+01 0. -1.
        -11    1    1    2    0    0  0.21680084451E+02  0.64256568171E+02  0.66209852278E+02  0.94776986413E+02  0.00000000000E+00 0.  1.
         11    1    1    2    0    0 -0.54268694531E+02  0.51964230175E+02  0.16806164461E+03  0.18409260934E+03  0.00000000000E+00 0. -1.
</event>
<event>
 7    1  0.2690635E-009  0.8479256E+02  0.7561462E-02  0.1315976E+00
         -1   -1    0    0    0  501 -0.00000000000E+00  0.00000000000E+00  0.69826206809E+02  0.69826206809E+02  0.00000000000E+00 0.  1.
          1   -1    0    0  501    0  0.00000000000E+00 -0.00000000000E+00 -0.27603126933E+03  0.27603126933E+03  0.00000000000E+00 0. -1.
         25    2    1    2    0    0  0.52070507223E+02 -0.26068838595E+02 -0.31874888851E+02  0.14161406032E+03  0.12509041320E+03 0.  0.
          5    1    3    3  502    0  0.75207753895E+00  0.26205310365E+02  0.33911780432E+02  0.43066984617E+02  0.41800000000E+01 0. -1.
         -5    1    3    3    0  502  0.51318429684E+02 -0.52274148960E+02 -0.65786669283E+02  0.98547075706E+02  0.41800000000E+01 0. -1.
        -11    1    1    2    0    0 -0.54950936337E+02  0.13249601454E+02 -0.18091990090E+03  0.18954463296E+03  0.00000000000E+00 0. -1.
         11    1    1    2    0    0  0.28804291139E+01  0.12819237141E+02  0.65897272217E+01  0.14698782861E+02  0.00000000000E+00 0.  1.
</event>
<event>
 7    1  0.2690635E-009  0.9777869E+02  0.7561462E-02  0.1285038E+00
          1   -1    0    0  501    0  0.00000000000E+00  0.00000000000E+00  0.86277430088E+03  0.86277430088E+03  0.00000000000E+00 0. -1.
         -1   -1    0    0    0  501 -0.00000000000E+00 -0.00000000000E+00 -0.21562427694E+02  0.21562427694E+02  0.00000000000E+00 0.  1.
         25    2    1    2    0    0 -0.80251822033E+02  0.12096929987E+02  0.41612713917E+03  0.44203920900E+03  0.12510066222E+03 0.  0.
          5    1    3    3  502    0 -0.89684313816E+01 -0.14450572621E+02 -0.14466144309E+01  0.17573187071E+02  0.41800000000E+01 0.  1.
         -5    1    3    3    0  502 -0.71283390651E+02  0.26547502608E+02  0.41757375360E+03  0.42446602193E+03  0.41800000000E+01 0.  1.
        -11    1    1    2    0    0 -0.13414061836E+01 -0.19856111272E+02  0.17337090127E+02  0.26393923912E+02  0.00000000000E+00 0.  1.
         11    1    1    2    0    0  0.81593228217E+02  0.77591812855E+01  0.40774764389E+03  0.41590359566E+03  0.00000000000E+00 0. -1.
</event>
<event>
 7    1  0.2690635E-009  0.7257943E+02  0.7561462E-02  0.1351535E+00
         -3   -1    0    0    0  501 -0.00000000000E+00  0.00000000000E+00  0.12135764030E+03  0.12135764030E+03  0.00000000000E+00 0.  1.
          3   -1    0    0  501    0  0.00000000000E+00 -0.00000000000E+00 -0.11784512668E+03  0.11784512668E+03  0.00000000000E+00 0. -1.
         25    2    1    2    0    0  0.32880604484E+02  0.29602918719E+02  0.17622173170E+02  0.13384775039E+03  0.12508881785E+03 0.  0.
          5    1    3    3  502    0  0.35634555800E+02  0.21614820433E+02 -0.50196385753E+02  0.65377148700E+02  0.41800000000E+01 0.  1.
         -5    1    3    3    0  502 -0.27539513161E+01  0.79880982867E+01  0.67818558923E+02  0.68470601695E+02  0.41800000000E+01 0.  1.
        -11    1    1    2    0    0 -0.43357087837E+02  0.16632426860E+02  0.16089299829E+02  0.49146111321E+02  0.00000000000E+00 0.  1.
         11    1    1    2    0    0  0.10476483353E+02 -0.46235345580E+02 -0.30198959378E+02  0.56208905272E+02  0.00000000000E+00 0. -1.
</event>
<event>
 7    1  0.2690635E-009  0.7755038E+02  0.7561462E-02  0.1336150E+00
          2   -1    0    0  501    0  0.00000000000E+00  0.00000000000E+00  0.55226740487E+03  0.55226740487E+03  0.00000000000E+00 0. -1.
         -2   -1    0    0    0  501 -0.00000000000E+00 -0.00000000000E+00 -0.22460549728E+02  0.22460549728E+02  0.00000000000E+00 0.  1.
         25    2    1    2    0    0  0.13641386260E+02 -0.19662243161E+02  0.32008104333E+03  0.34448789841E+03  0.12508935458E+03 0.  0.
          5    1    3    3  502    0  0.19342072053E+02  0.20984921447E+02  0.83351678174E+01  0.30023825572E+02  0.41800000000E+01 0.  1.
         -5    1    3    3    0  502 -0.57006857923E+01 -0.40647164608E+02  0.31174587551E+03  0.31446407284E+03  0.41800000000E+01 0.  1.
        -11    1    1    2    0    0  0.31339417621E+02 -0.78037526361E+01  0.34491160495E+02  0.47251431770E+02  0.00000000000E+00 0. -1.
         11    1    1    2    0    0 -0.44980803882E+02  0.27465995797E+02  0.17523465132E+03  0.18298862442E+03  0.00000000000E+00 0.  1.
</event>
<event>
 7    1  0.2690635E-009  0.8337730E+02  0.7561462E-02  0.1319731E+00
          1   -1    0    0  501    0  0.00000000000E+00  0.00000000000E+00  0.48881067174E+03  0.48881067174E+03  0.00000000000E+00 0. -1.
         -1   -1    0    0    0  501 -0.00000000000E+00 -0.00000000000E+00 -0.27347471024E+02  0.27347471024E+02  0.00000000000E+00 0.  1.
         25    2    1    2    0    0  0.31310626495E+02  0.16235396272E+02  0.33168710560E+03  0.35624467547E+03  0.12509991748E+03 0.  0.
          5    1    3    3  502    0  0.50570325284E+02  0.22491095416E+02  0.52845986477E+02  0.76637966172E+02  0.41800000000E+01 0. -1.
         -5    1    3    3    0  502 -0.19259698789E+02 -0.62556991441E+01  0.27884111913E+03  0.27960670930E+03  0.41800000000E+01 0. -1.
        -11    1    1    2    0    0 -0.28119238127E+02  0.31790368847E+02  0.41451682462E+02  0.59325888810E+02  0.00000000000E+00 0.  1.
         11    1    1    2    0    0 -0.31913883679E+01 -0.48025765119E+02  0.88324412650E+02  0.10058757848E+03  0.00000000000E+00 0. -1.
</event>
<event>
 7    1  0.2690635E-009  0.2104526E+03  0.7561462E-02  0.1141208E+00
         -2   -1    0    0    0  501 -0.00000000000E+00  0.00000000000E+00  0.10195912839E+03  0.10195912839E+03  0.00000000000E+00 0.  1.
          2   -1    0    0  501    0  0.00000000000E+00 -0.00000000000E+00 -0.44868788908E+03  0.44868788908E+03  0.00000000000E+00 0. -1.
         25    2    1    2    0    0 -0.11574892118E+03  0.14244630338E+03 -0.17338110149E+03  0.28177462629E+03  0.12508865483E+03 0.  0.
          5    1    3    3  502    0 -0.69352375955E+02 -0.27973996482E+01 -0.57104025968E+02  0.89977328684E+02  0.41800000000E+01 0.  1.
         -5    1    3    3    0  502 -0.46396545226E+02  0.14524370303E+03 -0.11627707552E+03  0.19179729761E+03  0.41800000000E+01 0.  1.
        -11    1    1    2    0    0  0.10729934059E+03 -0.75112439120E+02 -0.80042382318E+02  0.15349856667E+03  0.00000000000E+00 0.  1.
         11    1    1    2    0    0  0.84495805931E+01 -0.67333864258E+02 -0.93305276889E+02  0.11537382452E+03  0.00000000000E+00 0. -1.
</event>
<event>
 7    1  0.2690635E-009  0.1333161E+03  0.7561462E-02  0.1222616E+00
         -2   -1    0    0    0  501 -0.00000000000E+00  0.00000000000E+00  0.61454991203E+02  0.61454991203E+02  0.00000000000E+00 0.  1.
          2   -1    0    0  501    0  0.00000000000E+00 -0.00000000000E+00 -0.38049199075E+03  0.38049199075E+03  0.00000000000E+00 0. -1.
         25    2    1    2    0    0  0.10482652340E+03  0.19834585588E+02 -0.15551293722E+03  0.22630471906E+03  0.12509013322E+03 0.  0.
          5    1    3    3  502    0  0.50283094836E+02 -0.24093728753E+02 -0.23676845908E+00  0.55914451180E+02  0.41800000000E+01 0.  1.
         -5    1    3    3    0  502  0.54543428568E+02  0.43928314341E+02 -0.15527616876E+03  0.17039026788E+03  0.41800000000E+01 0.  1.
        -11    1    1    2    0    0  0.16921455535E+02 -0.63255788845E+01 -0.22091183898E+02  0.28537151428E+02  0.00000000000E+00 0.  1.
         11    1    1    2    0    0 -0.12174797894E+03 -0.13509006704E+02 -0.14143287843E+03  0.18710511147E+03  0.00000000000E+00 0. -1.
</event>
<event>
 7    1  0.2690635E-009  0.8114919E+02  0.7561462E-02  0.1325821E+00
          3   -1    0    0  501    0  0.00000000000E+00  0.00000000000E+00  0.83016330598E+02  0.83016330598E+02  0.00000000000E+00 0. -1.
         -3   -1    0    0    0  501 -0.00000000000E+00 -0.00000000000E+00 -0.18710979191E+03  0.18710979191E+03  0.00000000000E+00 0.  1.
         25    2    1    2    0    0 -0.46488419632E+02 -0.64506705868E+01 -0.17144211732E+02  0.13469977459E+03  0.12508925201E+03 0.  0.
          5    1    3    3  502    0 -0.10161938160E+02 -0.33971249081E+02 -0.61406352553E+02  0.71031846978E+02  0.41800000000E+01 0.  1.
         -5    1    3    3    0  502 -0.36326481472E+02  0.27520578494E+02  0.44262140822E+02  0.63667927616E+02  0.41800000000E+01 0.  1.
        -11    1    1    2    0    0 -0.10524971669E+02  0.19664783664E+02 -0.71498195183E+02  0.74896399510E+02  0.00000000000E+00 0.  1.
         11    1    1    2    0    0  0.57013391301E+02 -0.13214113077E+02 -0.15451054402E+02  0.60529948407E+02  0.00000000000E+00 0. -1.
</event>
<event>
 7    1  0.2690635E-009  0.6919258E+02  0.7561462E-02  0.1362860E+00
          2   -1    0    0  501    0  0.00000000000E+00  0.00000000000E+00  0.15419928534E+03  0.15419928534E+03  0.00000000000E+00 0.  1.
         -2   -1    0    0    0  501 -0.00000000000E+00 -0.00000000000E+00 -0.10024853475E+03  0.10024853475E+03  0.00000000000E+00 0. -1.
         25    2    1    2    0    0  0.16976679959E+02  0.10822050837E+02 -0.27964509558E+02  0.12974953164E+03  0.12509037820E+03 0.  0.
          5    1    3    3  502    0 -0.23390339262E+02  0.35387538071E+02 -0.59201669328E+02  0.72949954577E+02  0.41800000000E+01 0. -1.
         -5    1    3    3    0  502  0.40367019221E+02 -0.24565487235E+02  0.31237159770E+02  0.56799577061E+02  0.41800000000E+01 0. -1.
        -11    1    1    2    0    0 -0.21667805984E+02  0.12173045431E+02  0.94745816329E+02  0.97951245847E+02  0.00000000000E+00 0.  1.
         11    1    1    2    0    0  0.46911260252E+01 -0.22995096268E+02 -0.12830556185E+02  0.26747042598E+02  0.00000000000E+00 0. -1.
</event>
<event>
 7    1  0.2690635E-009  0.7888518E+02  0.7561462E-02  0.1332245E+00
         -2   -1    0    0    0  501 -0.00000000000E+00  0.00000000000E+00  0.62975514199E+02  0.62975514199E+02  0.00000000000E+00 0.  1.
          2   -1    0    0  501    0  0.00000000000E+00 -0.00000000000E+00 -0.19344357400E+03  0.19344357400E+03  0.00000000000E+00 0. -1.
         25    2    1    2    0    0  0.99424195629E+01 -0.17756676640E+02 -0.72435904819E+02  0.14597365766E+03  0.12508875710E+03 0.  0.
          5    1    3    3  502    0 -0.23261700920E+02  0.34030830529E+02 -0.73422194731E+02  0.84305962039E+02  0.41800000000E+01 0. -1.
         -5    1    3    3    0  502  0.33204120482E+02 -0.51787507169E+02  0.98628991287E+00  0.61667695624E+02  0.41800000000E+01 0. -1.
        -11    1    1    2    0    0  0.24117105393E+01  0.34102947356E+02  0.12955017775E+02  0.36560359020E+02  0.00000000000E+00 0.  1.
         11    1    1    2    0    0 -0.12354130102E+02 -0.16346270716E+02 -0.70987172759E+02  0.73885071518E+02  0.00000000000E+00 0. -1.
</event>
<event>
 7    1  0.2690635E-009  0.1685307E+03  0.7561462E-02  0.1179389E+00
          3   -1    0    0  501    0  0.00000000000E+00  0.00000000000E+00  0.12258240657E+04  0.12258240657E+04  0.00000000000E+00 0. -1.
         -3   -1    0    0    0  501 -0.00000000000E+00 -0.00000000000E+00 -0.26676183758E+02  0.26676183758E+02  0.00000000000E+00 0.  1.
         25    2    1    2    0    0 -0.54970768616E+01  0.13455394025E+03  0.46951035878E+03  0.50420462360E+03  0.12508934713E+03 0.  0.
          5    1    3    3  502    0 -0.55573158534E+02  0.32235756146E+02  0.23181147940E+03  0.24058585641E+03  0.41800000000E+01 0.  1.
         -5    1    3    3    0  502  0.50076081673E+02  0.10231818410E+03  0.23769887938E+03  0.26361876718E+03  0.41800000000E+01 0.  1.
        -11    1    1    2    0    0 -0.39114762059E+02 -0.70606325126E+02  0.26036828801E+03  0.27259285236E+03  0.00000000000E+00 0.  1.
         11    1    1    2    0    0  0.44611838920E+02 -0.63947615124E+02  0.46926923516E+03  0.47570277350E+03  0.00000000000E+00 0. -1.
</event>
<event>
 7    1  0.2690635E-009  0.9010179E+02  0.7561462E-02  0.1302605E+00
          1   -1    0    0  501    0  0.00000000000E+00  0.00000000000E+00  0.34970148286E+02  0.34970148286E+02  0.00000000000E+00 0. -1.
         -1   -1    0    0    0  501 -0.00000000000E+00 -0.00000000000E+00 -0.44384695121E+03  0.44384695121E+03  0.00000000000E+00 0.  1.
         25    2    1    2    0    0  0.46955026301E+02  0.36696943577E+02 -0.19764170840E+03  0.24137405411E+03  0.12509096265E+03 0.  0.
          5    1    3    3  502    0  0.11515258175E+02 -0.14828776882E+02 -0.17293862429E+03  0.17400498259E+03  0.41800000000E+01 0.  1.
         -5    1    3    3    0  502  0.35439768126E+02  0.51525720459E+02 -0.24703084115E+02  0.67369071527E+02  0.41800000000E+01 0.  1.
        -11    1    1    2    0    0 -0.59010383157E+02 -0.52109669909E+02 -0.19986797667E+03  0.21481352638E+03  0.00000000000E+00 0.  1.
         11    1    1    2    0    0  0.12055356856E+02  0.15412726332E+02 -0.11367117850E+02  0.22629518999E+02  0.00000000000E+00 0. -1.
</event>
<event>
 7    1  0.2690635E-009  0.1028914E+03  0.7561462E-02  0.1274331E+00
          2   -1    0    0  501    0  0.00000000000E+00  0.00000000000E+00  0.65272861754E+02  0.65272861754E+02  0.00000000000E+00 0.  1.
         -2   -1    0    0    0  501 -0.00000000000E+00 -0.00000000000E+00 -0.20925488201E+03  0.20925488201E+03  0.00000000000E+00 0. -1.
         25    2    1    2    0    0 -0.52407520675E+01  0.39788716702E+02 -0.61219794645E+02  0.14493406376E+03  0.12508961637E+03 0.  0.
          5    1    3    3  502    0 -0.59577655361E+02  0.46554061763E+02 -0.42960054465E+02  0.87062140822E+02  0.41800000000E+01 0. -1.
         -5    1    3    3    0  502  0.54336903293E+02 -0.67653450606E+01 -0.18259740180E+02  0.57871922940E+02  0.41800000000E+01 0. -1.
        -11    1    1    2    0    0  0.34488722232E+02 -0.22065680615E+02 -0.98689383668E+00  0.40955343749E+02  0.00000000000E+00 0.  1.
         11    1    1    2    0    0 -0.29247970165E+02 -0.17723036088E+02 -0.81775331770E+02  0.88638336249E+02  0.00000000000E+00 0. -1.
</event>
<event>
 7    1  0.2690635E-009  0.1262956E+03  0.7561462E-02  0.1233058E+00
          1   -1    0    0  501    0  0.00000000000E+00  0.00000000000E+00  0.64051426628E+03  0.64051426628E+03  0.00000000000E+00 0. -1.
         -1   -1    0    0    0  501 -0.00000000000E+00 -0.00000000000E+00 -0.34633194946E+02  0.34633194946E+02  0.00000000000E+00 0.  1.
         25    2    1    2    0    0  0.31750070419E+02  0.63691667382E+02  0.16390045496E+03  0.21811934446E+03  0.12509194150E+03 0.  0.
          5    1    3    3  502    0 -0.83317464514E+01 -0.32668705902E+02  0.17320395144E+02  0.38133067437E+02  0.41800000000E+01 0.  1.
         -5    1    3    3    0  502  0.40081816871E+02  0.96360373283E+02  0.14658005981E+03  0.17998627702E+03  0.41800000000E+01 0.  1.
        -11    1    1    2    0    0 -0.24527769897E+02  0.19086032689E+02  0.84968392656E+02  0.90473840918E+02  0.00000000000E+00 0. -1.
         11    1    1    2    0    0 -0.72223005221E+01 -0.82777700070E+02  0.35701222372E+03  0.36655427585E+03  0.00000000000E+00 0.  1.
</event>
<event>
 7    1  0.2690635E-009  0.2430170E+03  0.7561462E-02  0.1117799E+00
         -1   -1    0    0    0  501 -0.00000000000E+00  0.00000000000E+00  0.66853380978E+02  0.66853380978E+02  0.00000000000E+00 0.  1.
          1   -1    0    0  501    0  0.00000000000E+00 -0.00000000000E+00 -0.10022130852E+04  0.10022130852E+04  0.00000000000E+00 0. -1.
         25    2    1    2    0    0  0.20522936900E+03  0.11554488429E+03 -0.47154857810E+03  0.54173328825E+03  0.12508868816E+03 0.  0.
          5    1    3    3  502    0  0.20000477105E+03  0.10635205544E+03 -0.33326756999E+03  0.40298562474E+03  0.41800000000E+01 0. -1.
         -5    1    3    3    0  502  0.52245979495E+01  0.91928288508E+01 -0.13828100811E+03  0.13874766351E+03  0.41800000000E+01 0. -1.
        -11    1    1    2    0    0 -0.18936091792E+03 -0.12745701437E+03 -0.40044167983E+03  0.46092991516E+03  0.00000000000E+00 0.  1.
         11    1    1    2    0    0 -0.15868451081E+02  0.11912130087E+02 -0.63369446342E+02  0.66403262816E+02  0.00000000000E+00 0. -1.
</event>
<event>
 7    1  0.2690635E-009  0.1625811E+03  0.7561462E-02  0.1185813E+00
         -2   -1    0    0    0  501 -0.00000000000E+00  0.00000000000E+00  0.26942323416E+03  0.26942323416E+03  0.00000000000E+00 0. -1.
          2   -1    0    0  501    0  0.00000000000E+00 -0.00000000000E+00 -0.16224069883E+03  0.16224069883E+03  0.00000000000E+00 0.  1.
         25    2    1    2    0    0 -0.43865808882E+01 -0.13943457810E+03  0.17001196259E+03  0.25300386648E+03  0.12508255422E+03 0.  0.
          5    1    3    3  502    0  0.19976434275E+02 -0.14166843457E+03  0.89633273466E+02  0.16888042927E+03  0.41800000000E+01 0. -1.
         -5    1    3    3    0  502 -0.24363015163E+02  0.22338564661E+01  0.80378689127E+02  0.84123437212E+02  0.41800000000E+01 0. -1.
        -11    1    1    2    0    0  0.37976479192E+02  0.87175768408E+02 -0.73536381492E+01  0.95372446563E+02  0.00000000000E+00 0. -1.
         11    1    1    2    0    0 -0.33589898304E+02  0.52258809692E+02 -0.55475789118E+02  0.83287619949E+02  0.00000000000E+00 0.  1.
</event>
<event>
 7    1  0.2690635E-009  0.1669057E+03  0.7561462E-02  0.1181114E+00
          1   -1    0    0  501    0  0.00000000000E+00  0.00000000000E+00  0.91057126402E+03  0.91057126402E+03  0.00000000000E+00 0. -1.
         -1   -1    0    0    0  501 -0.00000000000E+00 -0.00000000000E+00 -0.34927820977E+02  0.34927820977E+02  0.00000000000E+00 0.  1.
         25    2    1    2    0    0  0.80393162125E+02 -0.11254577173E+03  0.38642468672E+03  0.42907016982E+03  0.12509021095E+03 0.  0.
          5    1    3    3  502    0  0.93074187895E+02 -0.12263956970E+03  0.26506699560E+03  0.30656361993E+03  0.41800000000E+01 0. -1.
         -5    1    3    3    0  502 -0.12681025770E+02  0.10093797973E+02  0.12135769112E+03  0.12250654989E+03  0.41800000000E+01 0. -1.
        -11    1    1    2    0    0 -0.70267997129E+02  0.24477163305E+02  0.18053309723E+03  0.19526628521E+03  0.00000000000E+00 0.  1.
         11    1    1    2    0    0 -0.10125164997E+02  0.88068608427E+02  0.30868565909E+03  0.32116262997E+03  0.00000000000E+00 0. -1.
</event>
<event>
 7    1  0.2690635E-009  0.1959226E+03  0.7561462E-02  0.1153225E+00
          2   -1    0    0  501    0  0.00000000000E+00  0.00000000000E+00  0.13344095983E+03  0.13344095983E+03  0.00000000000E+00 0. -1.
         -2   -1    0    0    0  501 -0.00000000000E+00 -0.00000000000E+00 -0.33054413738E+03  0.33054413738E+03  0.00000000000E+00 0.  1.
         25    2    1    2    0    0 -0.16402044566E+03 -0.40819980391E+02 -0.17041137712E+03  0.27065972891E+03  0.12509066317E+03 0.  0.
          5    1    3    3  502    0 -0.10272679683E+03  0.37084148843E+02 -0.10674826833E+03  0.15277661495E+03  0.41800000000E+01 0. -1.
         -5    1    3    3    0  502 -0.61293648824E+02 -0.77904129234E+02 -0.63663108791E+02  0.11788311397E+03  0.41800000000E+01 0. -1.
        -11    1    1    2    0    0  0.53487108591E+02  0.48948234475E+02 -0.38105452085E+02  0.81907422876E+02  0.00000000000E+00 0.  1.
         11    1    1    2    0    0  0.11053333707E+03 -0.81282540841E+01  0.11413651662E+02  0.11141794542E+03  0.00000000000E+00 0. -1.
</event>
<event>
 7    1  0.2690635E-009  0.7472668E+02  0.7561462E-02  0.1344719E+00
          1   -1    0    0  501    0  0.00000000000E+00  0.00000000000E+00  0.30110863963E+03  0.30110863963E+03  0.00000000000E+00 0. -1.
         -1   -1    0    0    0  501 -0.00000000000E+00 -0.00000000000E+00 -0.42037903155E+02  0.42037903155E+02  0.00000000000E+00 0.  1.
         25    2    1    2    0    0 -0.18897238341E+02  0.16262841948E+02  0.16312016006E+03  0.20707108434E+03  0.12509461102E+03 0.  0.
          5    1    3    3  502    0  0.13785652438E+02 -0.34621144387E+01  0.16773920964E+03  0.16839223646E+03  0.41800000000E+01 0. -1.
         -5    1    3    3    0  502 -0.32682890779E+02  0.19724956387E+02 -0.46190495779E+01  0.38678847878E+02  0.41800000000E+01 0. -1.
        -11    1    1    2    0    0  0.27578552752E+02 -0.52322489685E+02  0.63704052797E+02  0.86927704683E+02  0.00000000000E+00 0.  1.
         11    1    1    2    0    0 -0.86813144114E+01  0.36059647736E+02  0.32246523620E+02  0.49147753767E+02  0.00000000000E+00 0. -1.
</event>
<event>
 7    1  0.2690635E-009  0.1126264E+03  0.7561462E-02  0.1255782E+00
         -1   -1    0    0    0  501 -0.00000000000E+00  0.00000000000E+00  0.59132439539E+02  0.59132439539E+02  0.00000000000E+00 0.  1.
          1   -1    0    0  501    0  0.00000000000E+00 -0.00000000000E+00 -0.28962669555E+03  0.28962669555E+03  0.00000000000E+00 0. -1.
         25    2    1    2    0    0 -0.71083114215E+02 -0.26436961309E+01 -0.11760948185E+03  0.18584425936E+03  0.12508517203E+03 0.  0.
          5    1    3    3  502    0  0.30707831712E+02  0.49896691878E+01 -0.18412792778E+01  0.31444084283E+02  0.41800000000E+01 0.  1.
         -5    1    3    3    0  502 -0.10179094593E+03 -0.76333653187E+01 -0.11576820257E+03  0.15440017508E+03  0.41800000000E+01 0.  1.
        -11    1    1    2    0    0  0.38279695872E+02  0.30279432492E+02 -0.78177225099E+01  0.49429706992E+02  0.00000000000E+00 0.  1.
         11    1    1    2    0    0  0.32803418343E+02 -0.27635736361E+02 -0.10506705165E+03  0.11348516873E+03  0.00000000000E+00 0. -1.
</event>
<event>
 7    1  0.2690635E-009  0.1027367E+03  0.7561462E-02  0.1274644E+00
          2   -1    0    0  501    0  0.00000000000E+00  0.00000000000E+00  0.12814786206E+03  0.12814786206E+03  0.00000000000E+00 0. -1.
         -2   -1    0    0    0  501 -0.00000000000E+00 -0.00000000000E+00 -0.14035536435E+03  0.14035536435E+03  0.00000000000E+00 0.  1.
         25    2    1    2    0    0 -0.59797637599E+01 -0.48118654317E+02 -0.54729739712E+02  0.14489240196E+03  0.12508917326E+03 0.  0.
          5    1    3    3  502    0 -0.30643889615E+02  0.31783357579E+02 -0.40316636886E+02  0.59934409145E+02  0.41800000000E+01 0.  1.
         -5    1    3    3    0  502  0.24664125855E+02 -0.79902011897E+02 -0.14413102825E+02  0.84957992810E+02  0.41800000000E+01 0.  1.
        -11    1    1    2    0    0  0.31009872127E+02  0.40943266300E+02 -0.20592846674E+02  0.55335599380E+02  0.00000000000E+00 0.  1.
         11    1    1    2    0    0 -0.25030108367E+02  0.71753880178E+01  0.63115084097E+02  0.68275225072E+02  0.00000000000E+00 0. -1.
</event>
<event>
 7    1  0.2690635E-009  0.8596585E+02  0.7561462E-02  0.1312926E+00
          2   -1    0    0  501    0  0.00000000000E+00  0.00000000000E+00  0.41473980990E+02  0.41473980990E+02  0.00000000000E+00 0.  1.
         -2   -1    0    0    0  501 -0.00000000000E+00 -0.00000000000E+00 -0.30243118509E+03  0.30243118509E+03  0.00000000000E+00 0. -1.
         25    2    1    2    0    0 -0.30950762532E+02  0.53252991994E+01 -0.18396889163E+03  0.22466917596E+03  0.12508148156E+03 0.  0.
          5    1    3    3  502    0 -0.82405786834E+01  0.61439953081E+02 -0.58688100470E+02  0.85466604638E+02  0.41800000000E+01 0.  1.
         -5    1    3    3    0  502 -0.22710183849E+02 -0.56114653882E+02 -0.12528079116E+03  0.13920257133E+03  0.41800000000E+01 0.  1.
        -11    1    1    2    0    0  0.16807880109E+02  0.16213629682E+02 -0.88123717826E+02  0.91165652878E+02  0.00000000000E+00 0. -1.
         11    1    1    2    0    0  0.14142882423E+02 -0.21538928881E+02  0.11135405350E+02  0.28070337242E+02  0.00000000000E+00 0.  1.
</event>
<event>
 7    1  0.2690635E-009  0.1296799E+03  0.7561462E-02  0.1227931E+00
          2   -1    0    0  501    0  0.00000000000E+00  0.00000000000E+00  0.31794516098E+03  0.31794516098E+03  0.00000000000E+00 0. -1.
         -2   -1    0    0    0  501 -0.00000000000E+00 -0.00000000000E+00 -0.76606340929E+02  0.76606340929E+02  0.00000000000E+00 0.  1.
         25    2    1    2    0    0 -0.17301627892E+02 -0.10416451995E+03  0.13898838993E+03  0.21474200587E+03  0.12508702173E+03 0.  0.
          5    1    3    3  502    0  0.48441397093E+01 -0.52588291073E+00  0.10232042008E+03  0.10252162215E+03  0.41800000000E+01 0. -1.
         -5    1    3    3    0  502 -0.22145767601E+02 -0.10363863704E+03  0.36667969850E+02  0.11222038372E+03  0.41800000000E+01 0. -1.
        -11    1    1    2    0    0  0.60410944453E+02  0.58954593891E+02  0.48616259437E+02  0.97409789201E+02  0.00000000000E+00 0.  1.
         11    1    1    2    0    0 -0.43109316561E+02  0.45209926055E+02  0.53734170681E+02  0.82399706839E+02  0.00000000000E+00 0. -1.
</event>
<event>
 7    1  0.2690635E-009  0.9403143E+02  0.7561462E-02  0.1293373E+00
          1   -1    0    0  501    0  0.00000000000E+00  0.00000000000E+00  0.58665143687E+02  0.58665143687E+02  0.00000000000E+00 0. -1.
         -1   -1    0    0    0  501 -0.00000000000E+00 -0.00000000000E+00 -0.23246643159E+03  0.23246643159E+03  0.00000000000E+00 0.  1.
         25    2    1    2    0    0  0.26189069848E+02  0.13007147790E+01 -0.13894710677E+03  0.18878719114E+03  0.12508695303E+03 0.  0.
          5    1    3    3  502    0 -0.46279502136E+02  0.23183293226E+02 -0.59337539649E+02  0.78852225171E+02  0.41800000000E+01 0.  1.
         -5    1    3    3    0  502  0.72468571984E+02 -0.21882578447E+02 -0.79609567124E+02  0.10993496597E+03  0.41800000000E+01 0.  1.
        -11    1    1    2    0    0 -0.43237065555E+02 -0.15978258629E+01  0.17959984631E+02  0.46846109051E+02  0.00000000000E+00 0. -1.
         11    1    1    2    0    0  0.17047995706E+02  0.29711108390E+00 -0.52814165761E+02  0.55498275087E+02  0.00000000000E+00 0.  1.
</event>
<event>
 7    1  0.2690635E-009  0.1381294E+03  0.7561462E-02  0.1215868E+00
          2   -1    0    0  501    0  0.00000000000E+00  0.00000000000E+00  0.42543914202E+03  0.42543914202E+03  0.00000000000E+00 0. -1.
         -2   -1    0    0    0  501 -0.00000000000E+00 -0.00000000000E+00 -0.52938941496E+02  0.52938941496E+02  0.00000000000E+00 0.  1.
         25    2    1    2    0    0  0.93556927146E+02  0.16280606703E+02  0.13587960242E+03  0.20767157002E+03  0.12508500257E+03 0.  0.
          5    1    3    3  502    0  0.39541614731E+02  0.69533600699E+02  0.81304648768E+02  0.11413316447E+03  0.41800000000E+01 0. -1.
         -5    1    3    3    0  502  0.54015312416E+02 -0.53252993996E+02  0.54574953655E+02  0.93538405542E+02  0.41800000000E+01 0. -1.
        -11    1    1    2    0    0  0.11863093953E+02 -0.82842465028E+01  0.82812982781E+02  0.84067543412E+02  0.00000000000E+00 0.  1.
         11    1    1    2    0    0 -0.10542002110E+03 -0.79963602000E+01  0.15380761532E+03  0.18663897009E+03  0.00000000000E+00 0. -1.
</event>
<event>
 7    1  0.2690635E-009  0.1624619E+03  0.7561462E-02  0.1185945E+00
         -2   -1    0    0    0  501 -0.00000000000E+00  0.00000000000E+00  0.16505675919E+02  0.16505675919E+02  0.00000000000E+00 0.  1.
          2   -1    0    0  501    0  0.00000000000E+00 -0.00000000000E+00 -0.23202330456E+04  0.23202330456E+04  0.00000000000E+00 0. -1.
         25    2    1    2    0    0 -0.12259170006E+03  0.49543775237E+02 -0.16516934692E+04  0.16616926893E+04  0.12509183436E+03 0.  0.
          5    1    3    3  502    0 -0.13567289351E+03  0.62740494192E+02 -0.15926212950E+04  0.15996260704E+04  0.41800000000E+01 0. -1.
         -5    1    3    3    0  502  0.13081193450E+02 -0.13196718955E+02 -0.59072174222E+02  0.62066618891E+02  0.41800000000E+01 0. -1.
        -11    1    1    2    0    0  0.35057470261E+02  0.23608325496E+02 -0.68683161514E+02  0.80645867404E+02  0.00000000000E+00 0.  1.
         11    1    1    2    0    0  0.87534229800E+02 -0.73152100733E+02 -0.58335073895E+03  0.59440016476E+03  0.00000000000E+00 0. -1.
</event>
<event>
 7    1  0.2690635E-009  0.2583330E+03  0.7561462E-02  0.1108149E+00
         -1   -1    0    0    0  501 -0.00000000000E+00  0.00000000000E+00  0.80897515277E+02  0.80897515277E+02  0.00000000000E+00 0.  1.
          1   -1    0    0  501    0  0.00000000000E+00 -0.00000000000E+00 -0.84143927773E+03  0.84143927773E+03  0.00000000000E+00 0. -1.
         25    2    1    2    0    0  0.46764335722E+02  0.23289146979E+03 -0.40062719636E+03  0.48226130274E+03  0.12509386019E+03 0.  0.
          5    1    3    3  502    0 -0.33830580048E+02  0.14060589700E+03 -0.23933175275E+03  0.27966352406E+03  0.41800000000E+01 0.  1.
         -5    1    3    3    0  502  0.80594915770E+02  0.92285572791E+02 -0.16129544361E+03  0.20259777867E+03  0.41800000000E+01 0.  1.
        -11    1    1    2    0    0  0.19078310064E+02 -0.25817568428E+02 -0.76401909873E+02  0.82872073623E+02  0.00000000000E+00 0. -1.
         11    1    1    2    0    0 -0.65842645786E+02 -0.20707390136E+03 -0.28351265621E+03  0.35720341664E+03  0.00000000000E+00 0.  1.
</event>
<event>
 7    1  0.2690635E-009  0.1636806E+03  0.7561462E-02  0.1184603E+00
          2   -1    0    0  501    0  0.00000000000E+00  0.00000000000E+00  0.21277005654E+03  0.21277005654E+03  0.00000000000E+00 0. -1.
         -2   -1    0    0    0  501 -0.00000000000E+00 -0.00000000000E+00 -0.18089734906E+03  0.18089734906E+03  0.00000000000E+00 0.  1.
         25    2    1    2    0    0  0.59167747674E+02  0.14034180245E+03  0.74910191066E+02  0.21084508277E+03  0.12508984101E+03 0.  0.
          5    1    3    3  502    0  0.20560836861E+02  0.43335116248E+02 -0.34746816248E+02  0.59375870116E+02  0.41800000000E+01 0.  1.
         -5    1    3    3    0  502  0.38606910813E+02  0.97006686200E+02  0.10965700731E+03  0.15146921266E+03  0.41800000000E+01 0.  1.
        -11    1    1    2    0    0 -0.53251726362E+02 -0.15232208372E+03 -0.48339783156E+02  0.16844731576E+03  0.00000000000E+00 0.  1.
         11    1    1    2    0    0 -0.59160213128E+01  0.11980281275E+02  0.53022995712E+01  0.14375007073E+02  0.00000000000E+00 0. -1.
</event>
<event>
 7    1  0.2690635E-009  0.1546092E+03  0.7561462E-02  0.1194921E+00
         -2   -1    0    0    0  501 -0.00000000000E+00  0.00000000000E+00  0.12520039212E+03  0.12520039212E+03  0.00000000000E+00 0.  1.
          2   -1    0    0  501    0  0.00000000000E+00 -0.00000000000E+00 -0.21346296299E+03  0.21346296299E+03  0.00000000000E+00 0. -1.
         25    2    1    2    0    0  0.88891451170E+02 -0.82657330674E+02 -0.79340397430E+01  0.17448477342E+03  0.12509221704E+03 0.  0.
          5    1    3    3  502    0  0.10718964212E+03 -0.31386862746E+02 -0.29796423011E+02  0.11567218229E+03  0.41800000000E+01 0.  1.
         -5    1    3    3    0  502 -0.18298190953E+02 -0.51270467928E+02  0.21862383268E+02  0.58812591133E+02  0.41800000000E+01 0.  1.
        -11    1    1    2    0    0 -0.16975842244E+02  0.67176903432E+02 -0.44564555121E+02  0.82382735738E+02  0.00000000000E+00 0. -1.
         11    1    1    2    0    0 -0.71915608926E+02  0.15480427242E+02 -0.35763976006E+02  0.81795845949E+02  0.00000000000E+00 0.  1.
</event>
<event>
 7    1  0.2690635E-009  0.1504922E+03  0.7561462E-02  0.1199870E+00
         -1   -1    0    0    0  501 -0.00000000000E+00  0.00000000000E+00  0.32381056321E+03  0.32381056321E+03  0.00000000000E+00 0.  1.
          1   -1    0    0  501    0  0.00000000000E+00 -0.00000000000E+00 -0.90051448447E+02  0.90051448447E+02  0.00000000000E+00 0. -1.
         25    2    1    2    0    0  0.26957541700E+02  0.12848921301E+03  0.11757790190E+03  0.21612203022E+03  0.12509189429E+03 0.  0.
          5    1    3    3  502    0 -0.10324090453E+02  0.12541201381E+03  0.43817819576E+02  0.13331254166E+03  0.41800000000E+01 0. -1.
         -5    1    3    3    0  502  0.37281632153E+02  0.30771991995E+01  0.73760082327E+02  0.82809488561E+02  0.41800000000E+01 0. -1.
        -11    1    1    2    0    0 -0.37103083665E+02 -0.84389838036E+02  0.12112929000E+03  0.15221888345E+03  0.00000000000E+00 0.  1.
         11    1    1    2    0    0  0.10145541965E+02 -0.44099374974E+02 -0.49480771405E+01  0.45521097990E+02  0.00000000000E+00 0. -1.
</event>
<event>
 7    1  0.2690635E-009  0.1047744E+03  0.7561462E-02  0.1270565E+00
         -2   -1    0    0    0  501 -0.00000000000E+00  0.00000000000E+00  0.30685632639E+03  0.30685632639E+03  0.00000000000E+00 0.  1.
          2   -1    0    0  501    0  0.00000000000E+00 -0.00000000000E+00 -0.77116383580E+02  0.77116383580E+02  0.00000000000E+00 0. -1.
         25    2    1    2    0    0 -0.95010838687E+02  0.29505762300E+02  0.17453522232E+03  0.23665513090E+03  0.12508180392E+03 0.  0.
          5    1    3    3  502    0 -0.99047055126E+02  0.26667191742E+02  0.54091676120E+02  0.11603809749E+03  0.41800000000E+01 0.  1.
         -5    1    3    3    0  502  0.40362164386E+01  0.28385705579E+01  0.12044354620E+03  0.12061703340E+03  0.41800000000E+01 0.  1.
        -11    1    1    2    0    0  0.51142182411E+02 -0.87255130912E+01  0.78009268880E+02  0.93686196591E+02  0.00000000000E+00 0.  1.
         11    1    1    2    0    0  0.43868656276E+02 -0.20780249209E+02 -0.22804548384E+02  0.53631382488E+02  0.00000000000E+00 0. -1.
</event>
<event>
 7    1  0.2690635E-009  0.1804619E+03  0.7561462E-02  0.1167357E+00
          4   -1    0    0  501    0  0.00000000000E+00  0.00000000000E+00  0.62790543113E+02  0.62790543113E+02  0.00000000000E+00 0.  1.
         -4   -1    0    0    0  501 -0.00000000000E+00 -0.00000000000E+00 -0.62888277855E+03  0.62888277855E+03  0.00000000000E+00 0. -1.
         25    2    1    2    0    0 -0.12628524810E+03 -0.92011380291E+02 -0.39281864082E+03  0.44087144236E+03  0.12508831327E+03 0.  0.
          5    1    3    3  502    0 -0.12745448437E+03 -0.46364968608E+02 -0.35931743143E+03  0.38408442409E+03  0.41800000000E+01 0. -1.
         -5    1    3    3    0  502  0.11692362615E+01 -0.45646411683E+02 -0.33501209392E+02  0.56787018267E+02  0.41800000000E+01 0. -1.
        -11    1    1    2    0    0  0.10764119958E+02 -0.17277032073E+02 -0.32880050769E+02  0.38671176014E+02  0.00000000000E+00 0. -1.
         11    1    1    2    0    0  0.11552112815E+03  0.10928841236E+03 -0.14039354385E+03  0.21213070329E+03  0.00000000000E+00 0.  1.
</event>
<event>
 7    1  0.2690635E-009  0.1044637E+03  0.7561462E-02  0.1271180E+00
         -1   -1    0    0    0  501 -0.00000000000E+00  0.00000000000E+00  0.17024313873E+03  0.17024313873E+03  0.00000000000E+00 0.  1.
          1   -1    0    0  501    0  0.00000000000E+00 -0.00000000000E+00 -0.78324792993E+02  0.78324792993E+02  0.00000000000E+00 0. -1.
         25    2    1    2    0    0  0.23810678356E+02 -0.75224255582E+01  0.91523283510E+02  0.15699538533E+03  0.12508998481E+03 0.  0.
          5    1    3    3  502    0 -0.48856256387E+02 -0.21310384003E+02  0.37338952955E+02  0.65213005316E+02  0.41800000000E+01 0. -1.
         -5    1    3    3    0  502  0.72666934744E+02  0.13787958445E+02  0.54184330555E+02  0.91782380013E+02  0.41800000000E+01 0. -1.
        -11    1    1    2    0    0  0.72206484026E+00  0.40373543085E+02  0.21187533891E+02  0.45601052085E+02  0.00000000000E+00 0.  1.
         11    1    1    2    0    0 -0.24532743197E+02 -0.32851117526E+02 -0.20792471662E+02  0.45971494312E+02  0.00000000000E+00 0. -1.
</event>
<event>
 7    1  0.2690635E-009  0.7906742E+02  0.7561462E-02  0.1331719E+00
         -2   -1    0    0    0  501 -0.00000000000E+00  0.00000000000E+00  0.48361947303E+02  0.48361947303E+02  0.00000000000E+00 0.  1.
          2   -1    0    0  501    0  0.00000000000E+00 -0.00000000000E+00 -0.28951011059E+03  0.28951011059E+03  0.00000000000E+00 0. -1.
         25    2    1    2    0    0 -0.44676608838E+02 -0.34105670448E+01 -0.16183293928E+03  0.20939323553E+03  0.12509194820E+03 0.  0.
          5    1    3    3  502    0 -0.60136706792E+01 -0.27011959442E+02  0.11450027879E+02  0.30238811589E+02  0.41800000000E+01 0. -1.
         -5    1    3    3    0  502 -0.38662938158E+02  0.23601392397E+02 -0.17328296716E+03  0.17915442394E+03  0.41800000000E+01 0. -1.
        -11    1    1    2    0    0 -0.10807893051E+02  0.23325357742E+02 -0.61874869210E+02  0.67002852967E+02  0.00000000000E+00 0. -1.
         11    1    1    2    0    0  0.55484501889E+02 -0.19914790697E+02 -0.17440354804E+02  0.61475969403E+02  0.00000000000E+00 0.  1.
</event>
<event>
 7    1  0.2690635E-009  0.1503800E+03  0.7561462E-02  0.1200007E+00
          1   -1    0    0  501    0  0.00000000000E+00  0.00000000000E+00  0.48118967996E+03  0.48118967996E+03  0.00000000000E+00 0. -1.
         -1   -1    0    0    0  501 -0.00000000000E+00 -0.00000000000E+00 -0.67002328345E+02  0.67002328345E+02  0.00000000000E+00 0.  1.
         25    2    1    2    0    0 -0.95456038437E+02 -0.93384060209E+02  0.29561480945E+03  0.34766133885E+03  0.12509137856E+03 0.  0.
          5    1    3    3  502    0 -0.82938839323E+02 -0.11460244076E+03  0.28903062980E+03  0.32182098729E+03  0.41800000000E+01 0.  1.
         -5    1    3    3    0  502 -0.12517199114E+02  0.21218380556E+02  0.65841796501E+01  0.25840351560E+02  0.41800000000E+01 0.  1.
        -11    1    1    2    0    0  0.74027898530E+02  0.63871786567E+02  0.12967708018E+03  0.16240652698E+03  0.00000000000E+00 0. -1.
         11    1    1    2    0    0  0.21428139907E+02  0.29512273641E+02 -0.11104538015E+02  0.38124142481E+02  0.00000000000E+00 0.  1.
</event>
<event>
 7    1  0.2690635E-009  0.1497299E+03  0.7561462E-02  0.1200805E+00
          1   -1    0    0  501    0  0.00000000000E+00  0.00000000000E+00  0.12090980201E+03  0.12090980201E+03  0.00000000000E+00 0. -1.
         -1   -1    0    0    0  501 -0.00000000000E+00 -0.00000000000E+00 -0.50957648338E+03  0.50957648338E+03  0.00000000000E+00 0.  1.
         25    2    1    2    0    0  0.53540719658E+02  0.12744475169E+03  0.21787376130E+02  0.18770478090E+03  0.12509844771E+03 0.  0.
          5    1    3    3  502    0 -0.36692897481E+01  0.24199550041E+02 -0.45454812909E+02  0.51794732609E+02  0.41800000000E+01 0. -1.
         -5    1    3    3    0  502  0.57210009406E+02  0.10324520165E+03  0.67242189039E+02  0.13591004829E+03  0.41800000000E+01 0. -1.
        -11    1    1    2    0    0 -0.13402086757E+02  0.77569604782E+01 -0.10551353511E+02  0.18738127607E+02  0.00000000000E+00 0. -1.
         11    1    1    2    0    0 -0.40138632901E+02 -0.13520171216E+03 -0.39990270398E+03  0.42404337688E+03  0.00000000000E+00 0.  1.
</event>
<event>
 7    1  0.2690635E-009  0.1024958E+03  0.7561462E-02  0.1275134E+00
          1   -1    0    0  501    0  0.00000000000E+00  0.00000000000E+00  0.42583015296E+03  0.42583015296E+03  0.00000000000E+00 0. -1.
         -1   -1    0    0    0  501 -0.00000000000E+00 -0.00000000000E+00 -0.29428601054E+02  0.29428601054E+02  0.00000000000E+00 0.  1.
         25    2    1    2    0    0  0.25316019665E+01  0.19246460998E+02  0.18106680645E+03  0.22092801252E+03  0.12508862078E+03 0.  0.
          5    1    3    3  502    0  0.63285818793E+02  0.27676647954E+01  0.89182967274E+02  0.10947067589E+03  0.41800000000E+01 0.  1.
         -5    1    3    3    0  502 -0.60754216826E+02  0.16478796202E+02  0.91883839174E+02  0.11145733663E+03  0.41800000000E+01 0.  1.
        -11    1    1    2    0    0 -0.39131476766E+02 -0.13359668109E+02  0.49958520222E+02  0.64850651104E+02  0.00000000000E+00 0.  1.
         11    1    1    2    0    0  0.36599874799E+02 -0.58867928886E+01  0.16537622523E+03  0.16948009039E+03  0.00000000000E+00 0. -1.
</event>
<event>
 7    1  0.2690635E-009  0.1046430E+03  0.7561462E-02  0.1270825E+00
          1   -1    0    0  501    0  0.00000000000E+00  0.00000000000E+00  0.16602385678E+03  0.16602385678E+03  0.00000000000E+00 0. -1.
         -1   -1    0    0    0  501 -0.00000000000E+00 -0.00000000000E+00 -0.11623756098E+03  0.11623756098E+03  0.00000000000E+00 0.  1.
         25    2    1    2    0    0  0.12834988520E+02 -0.41838449201E+01  0.11384968452E+03  0.16967042087E+03  0.12507621502E+03 0.  0.
          5    1    3    3  502    0  0.64715083191E+02  0.99381967416E+01  0.35620259029E+02  0.74653097727E+02  0.41800000000E+01 0. -1.
         -5    1    3    3    0  502 -0.51880094671E+02 -0.14122041662E+02  0.78229425495E+02  0.95017323142E+02  0.41800000000E+01 0. -1.
        -11    1    1    2    0    0  0.37928361736E+02 -0.46854071802E+01 -0.41257177542E+02  0.56237606308E+02  0.00000000000E+00 0. -1.
         11    1    1    2    0    0 -0.50763350256E+02  0.88692521002E+01 -0.22806211173E+02  0.56353390582E+02  0.00000000000E+00 0.  1.
</event>
<event>
 7    1  0.2690635E-009  0.6378402E+02  0.7561462E-02  0.1382605E+00
         -1   -1    0    0    0  501 -0.00000000000E+00  0.00000000000E+00  0.84946253272E+03  0.84946253272E+03  0.00000000000E+00 0.  1.
          1   -1    0    0  501    0  0.00000000000E+00 -0.00000000000E+00 -0.16699012297E+02  0.16699012297E+02  0.00000000000E+00 0. -1.
         25    2    1    2    0    0  0.53759948328E+01  0.30085045480E+02  0.59523335425E+03  0.60900135725E+03  0.12508355546E+03 0.  0.
          5    1    3    3  502    0  0.48982278120E+01  0.11743638412E+02 -0.77230025279E-01  0.13393432843E+02  0.41800000000E+01 0.  1.
         -5    1    3    3    0  502  0.47776702089E+00  0.18341407069E+02  0.59531058427E+03  0.59560792441E+03  0.41800000000E+01 0.  1.
        -11    1    1    2    0    0  0.39342027286E+02 -0.31828884776E+02  0.15796590596E+03  0.16587374857E+03  0.00000000000E+00 0.  1.
         11    1    1    2    0    0 -0.44718022119E+02  0.17438392958E+01  0.79564260216E+02  0.91286439198E+02  0.00000000000E+00 0. -1.
</event>
<event>
 7    1  0.2690635E-009  0.1699039E+03  0.7561462E-02  0.1177948E+00
         -2   -1    0    0    0  501 -0.00000000000E+00  0.00000000000E+00  0.42751118544E+02  0.42751118544E+02  0.00000000000E+00 0.  1.
          2   -1    0    0  501    0  0.00000000000E+00 -0.00000000000E+00 -0.87843301192E+03  0.87843301192E+03  0.00000000000E+00 0. -1.
         25    2    1    2    0    0 -0.28464625398E+02  0.15423409083E+03 -0.35953013491E+03  0.41171323003E+03  0.12508987247E+03 0.  0.
          5    1    3    3  502    0 -0.25989474035E+02  0.77143415849E+02 -0.56964806331E+02  0.99443556502E+02  0.41800000000E+01 0. -1.
         -5    1    3    3    0  502 -0.24751513629E+01  0.77090674983E+02 -0.30256532858E+03  0.31226967352E+03  0.41800000000E+01 0. -1.
        -11    1    1    2    0    0 -0.33080969594E+02 -0.48407374968E+02 -0.14417194822E+03  0.15563796180E+03  0.00000000000E+00 0.  1.
         11    1    1    2    0    0  0.61545594992E+02 -0.10582671586E+03 -0.33197981024E+03  0.35383293863E+03  0.00000000000E+00 0. -1.
</event>
<event>
 7    1  0.2690635E-009  0.1096495E+03  0.7561462E-02  0.1261220E+00
          2   -1    0    0  501    0  0.00000000000E+00  0.00000000000E+00  0.89488715788E+03  0.89488715788E+03  0.00000000000E+00 0.  1.
         -2   -1    0    0    0  501 -0.00000000000E+00 -0.00000000000E+00 -0.49564014592E+02  0.49564014592E+02  0.00000000000E+00 0. -1.
         25    2    1    2    0    0 -0.65498967308E+02  0.47825262672E+02  0.79996457870E+03  0.81373765972E+03  0.12509309018E+03 0.  0.
          5    1    3    3  502    0 -0.81610493334E+02  0.41639482985E+02  0.78549618668E+03  0.79083237848E+03  0.41800000000E+01 0.  1.
         -5    1    3    3    0  502  0.16111526026E+02  0.61857796866E+01  0.14468392022E+02  0.22905281245E+02  0.41800000000E+01 0.  1.
        -11    1    1    2    0    0  0.13651137434E+01  0.17925615044E+02  0.33609688386E+02  0.38115644605E+02  0.00000000000E+00 0.  1.
         11    1    1    2    0    0  0.64133853564E+02 -0.65750877715E+02  0.11748876207E+02  0.92597868148E+02  0.00000000000E+00 0. -1.
</event>
<event>
 7    1  0.2690635E-009  0.9735374E+02  0.7561462E-02  0.1285961E+00
          1   -1    0    0  501    0  0.00000000000E+00  0.00000000000E+00  0.68639544291E+03  0.68639544291E+03  0.00000000000E+00 0. -1.
         -1   -1    0    0    0  501 -0.00000000000E+00 -0.00000000000E+00 -0.19981184961E+02  0.19981184961E+02  0.00000000000E+00 0.  1.
         25    2    1    2    0    0  0.33883475455E+02 -0.85484645793E+01  0.29544699961E+03  0.32273517602E+03  0.12509155889E+03 0.  0.
          5    1    3    3  502    0  0.16859216005E+02  0.40947391348E+02  0.33781511293E+02  0.55853244559E+02  0.41800000000E+01 0. -1.
         -5    1    3    3    0  502  0.17024259450E+02 -0.49495855927E+02  0.26166548831E+03  0.26688193146E+03  0.41800000000E+01 0. -1.
        -11    1    1    2    0    0  0.31571486838E+02 -0.91267048769E+00  0.11292606250E+03  0.11725991361E+03  0.00000000000E+00 0.  1.
         11    1    1    2    0    0 -0.65454962293E+02  0.94611350670E+01  0.25804119584E+03  0.26638153824E+03  0.00000000000E+00 0. -1.
</event>
<event>
 7    1  0.2690635E-009  0.9606156E+02  0.7561462E-02  0.1288803E+00
          2   -1    0    0  501    0  0.00000000000E+00  0.00000000000E+00  0.19718390996E+03  0.19718390996E+03  0.00000000000E+00 0. -1.
         -2   -1    0    0    0  501 -0.00000000000E+00 -0.00000000000E+00 -0.59134632816E+02  0.59134632816E+02  0.00000000000E+00 0.  1.
         25    2    1    2    0    0  0.39076601768E+02 -0.21655284305E+02  0.65416833757E+02  0.14805016338E+03  0.12507420435E+03 0.  0.
          5    1    3    3  502    0 -0.39986219263E+02 -0.32626898035E+02  0.16513593200E+02  0.54346880009E+02  0.41800000000E+01 0. -1.
         -5    1    3    3    0  502  0.79062821031E+02  0.10971613729E+02  0.48903240557E+02  0.93703283370E+02  0.41800000000E+01 0. -1.
        -11    1    1    2    0    0 -0.44365936655E+02  0.71012622585E+01  0.79508058022E+02  0.91325218595E+02  0.00000000000E+00 0. -1.
         11    1    1    2    0    0  0.52893348862E+01  0.14554022047E+02 -0.68756146382E+01  0.16943160801E+02  0.00000000000E+00 0.  1.
</event>
<event>
 7    1  0.2690635E-009  0.7879207E+02  0.7561462E-02  0.1332515E+00
         -1   -1    0    0    0  501 -0.00000000000E+00  0.00000000000E+00  0.18560374151E+03  0.18560374151E+03  0.00000000000E+00 0. -1.
          1   -1    0    0  501    0  0.00000000000E+00 -0.00000000000E+00 -0.16554943667E+03  0.16554943667E+03  0.00000000000E+00 0.  1.
         25    2    1    2    0    0  0.25326660845E+02  0.47755784571E+02 -0.11553866333E+03  0.17865900018E+03  0.12509117039E+03 0.  0.
          5    1    3    3  502    0  0.22471341941E+01  0.34992180725E+02  0.19953868192E+02  0.40560221644E+02  0.41800000000E+01 0. -1.
         -5    1    3    3    0  502  0.23079526651E+02  0.12763603846E+02 -0.13549253152E+03  0.13809877853E+03  0.41800000000E+01 0. -1.
        -11    1    1    2    0    0  0.23565705589E+02  0.45164407786E+01  0.74905752983E+02  0.78655022390E+02  0.00000000000E+00 0. -1.
         11    1    1    2    0    0 -0.48892366434E+02 -0.52272225349E+02  0.60687215194E+02  0.93839155615E+02  0.00000000000E+00 0.  1.
</event>
<event>
 7    1  0.2690635E-009  0.1671231E+03  0.7561462E-02  0.1180882E+00
         -1   -1    0    0    0  501 -0.00000000000E+00  0.00000000000E+00  0.32978491728E+03  0.32978491728E+03  0.00000000000E+00 0.  1.
          1   -1    0    0  501    0  0.00000000000E+00 -0.00000000000E+00 -0.10540697401E+03  0.10540697401E+03  0.00000000000E+00 0. -1.
         25    2    1    2    0    0  0.11569532312E+03  0.96463294305E+02  0.13204714769E+03  0.23617195360E+03  0.12510062956E+03 0.  0.
          5    1    3    3  502    0  0.11865986257E+03  0.73377776069E+02  0.15117514097E+03  0.20575679005E+03  0.41800000000E+01 0. -1.
         -5    1    3    3    0  502 -0.29645394476E+01  0.23085518236E+02 -0.19127993287E+02  0.30415163546E+02  0.41800000000E+01 0. -1.
        -11    1    1    2    0    0 -0.93812352627E+01 -0.56768005961E+02  0.90223155110E+01  0.58241018647E+02  0.00000000000E+00 0.  1.
         11    1    1    2    0    0 -0.10631408786E+03 -0.39695288344E+02  0.83308480070E+02  0.14077891904E+03  0.00000000000E+00 0. -1.
</event>
<event>
 7    1  0.2690635E-009  0.1029203E+03  0.7561462E-02  0.1274272E+00
          2   -1    0    0  501    0  0.00000000000E+00  0.00000000000E+00  0.80149134576E+02  0.80149134576E+02  0.00000000000E+00 0. -1.
         -2   -1    0    0    0  501 -0.00000000000E+00 -0.00000000000E+00 -0.17854855296E+03  0.17854855296E+03  0.00000000000E+00 0.  1.
         25    2    1    2    0    0  0.70042487000E+01  0.22327709599E+02 -0.10346902774E+03  0.16400918099E+03  0.12508231543E+03 0.  0.
          5    1    3    3  502    0 -0.32122523856E+02 -0.35779639972E+02 -0.13908601811E+02  0.50229083007E+02  0.41800000000E+01 0.  1.
         -5    1    3    3    0  502  0.39126772556E+02  0.58107349571E+02 -0.89560425926E+02  0.11378009798E+03  0.41800000000E+01 0.  1.
        -11    1    1    2    0    0  0.30561449233E+02 -0.36179876083E+02 -0.15295121556E+02  0.49768728696E+02  0.00000000000E+00 0.  1.
         11    1    1    2    0    0 -0.37565697933E+02  0.13852166484E+02  0.20364730905E+02  0.44919777853E+02  0.00000000000E+00 0. -1.
</event>
<event>
 7    1  0.2775093E-009  0.1333749E+03  0.7561462E-02  0.1222532E+00
          1   -1    0    0  501    0  0.00000000000E+00  0.00000000000E+00  0.51075066081E+03  0.51075066081E+03  0.00000000000E+00 0. -1.
         -1   -1    0    0    0  501 -0.00000000000E+00 -0.00000000000E+00 -0.46603606186E+02  0.46603606186E+02  0.00000000000E+00 0.  1.
         25    2    1    2    0    0  0.44649782139E+02 -0.90090547550E+02  0.32694482438E+03  0.36421261431E+03  0.12509196788E+03 0.  0.
          5    1    3    3  502    0 -0.14176887685E+02 -0.85496392644E+02  0.11434651875E+03  0.14353820415E+03  0.41800000000E+01 0. -1.
         -5    1    3    3    0  502  0.58826669824E+02 -0.45941549057E+01  0.21259830563E+03  0.22067441016E+03  0.41800000000E+01 0. -1.
        -11    1    1    2    0    0 -0.59687400091E+02  0.49491354780E+02  0.12677920208E+03  0.14861004679E+03  0.00000000000E+00 0.  1.
         11    1    1    2    0    0  0.15037617952E+02  0.40599192770E+02  0.10423028154E+02  0.44531605890E+02  0.00000000000E+00 0. -1.
</event>
<event>
 7    1  0.2690635E-009  0.1067345E+03  0.7561462E-02  0.1266739E+00
          2   -1    0    0  501    0  0.00000000000E+00  0.00000000000E+00  0.38066565211E+02  0.38066565211E+02  0.00000000000E+00 0. -1.
         -2   -1    0    0    0  501 -0.00000000000E+00 -0.00000000000E+00 -0.63448454020E+03  0.63448454020E+03  0.00000000000E+00 0.  1.
         25    2    1    2    0    0 -0.32263999925E+02 -0.26986305275E+02 -0.57260033520E+03  0.58761195469E+03  0.12508972401E+03 0.  0.
          5    1    3    3  502    0 -0.35157561311E+02 -0.75382761920E+02 -0.35573072162E+03  0.36534974150E+03  0.41800000000E+01 0.  1.
         -5    1    3    3    0  502  0.28935613862E+01  0.48396456645E+02 -0.21686961359E+03  0.22226221319E+03  0.41800000000E+01 0.  1.
        -11    1    1    2    0    0  0.42951231219E+02  0.43963503240E+02 -0.18478568659E+02  0.64179867405E+02  0.00000000000E+00 0. -1.
         11    1    1    2    0    0 -0.10687231294E+02 -0.16977197966E+02 -0.53390711273E+01  0.20759283321E+02  0.00000000000E+00 0.  1.
</event>
<event>
 7    1  0.2690635E-009  0.1587267E+03  0.7561462E-02  0.1190142E+00
          1   -1    0    0  501    0  0.00000000000E+00  0.00000000000E+00  0.84341493084E+03  0.84341493084E+03  0.00000000000E+00 0. -1.
         -1   -1    0    0    0  501 -0.00000000000E+00 -0.00000000000E+00 -0.48833611904E+02  0.48833611904E+02  0.00000000000E+00 0.  1.
         25    2    1    2    0    0  0.79250689170E+02 -0.13438172833E+03  0.57090625193E+03  0.60491171074E+03  0.12508040873E+03 0.  0.
          5    1    3    3  502    0  0.27689455681E+02 -0.35412620561E+02  0.34007420353E+02  0.56522001822E+02  0.41800000000E+01 0. -1.
         -5    1    3    3    0  502  0.51561233488E+02 -0.98969107774E+02  0.53689883158E+03  0.54838970891E+03  0.41800000000E+01 0. -1.
        -11    1    1    2    0    0 -0.30345170442E+02  0.88563300080E+02  0.19115304475E+03  0.21284683227E+03  0.00000000000E+00 0.  1.
         11    1    1    2    0    0 -0.48905518728E+02  0.45818428254E+02  0.32522022258E+02  0.74489999741E+02  0.00000000000E+00 0. -1.
</event>
<event>
 7    1  0.2690635E-009  0.2422080E+03  0.7561462E-02  0.1118331E+00
          1   -1    0    0  501    0  0.00000000000E+00  0.00000000000E+00  0.10427012980E+04  0.10427012980E+04  0.00000000000E+00 0. -1.
         -1   -1    0    0    0  501 -0.00000000000E+00 -0.00000000000E+00 -0.81929555637E+02  0.81929555637E+02  0.00000000000E+00 0.  1.
         25    2    1    2    0    0  0.22186154047E+03  0.33826109906E+02  0.19763966136E+03  0.32415349564E+03  0.12508918476E+03 0.  0.
          5    1    3    3  502    0  0.23362071299E+03  0.37521964302E+02  0.16356084966E+03  0.28767370280E+03  0.41800000000E+01 0. -1.
         -5    1    3    3    0  502 -0.11759172525E+02 -0.36958543963E+01  0.34078811706E+02  0.36479792838E+02  0.41800000000E+01 0. -1.
        -11    1    1    2    0    0 -0.13712009147E+03  0.13336201866E+02  0.35053831607E+03  0.37663893160E+03  0.00000000000E+00 0.  1.
         11    1    1    2    0    0 -0.84741448993E+02 -0.47162311771E+02  0.41259376496E+03  0.42383842643E+03  0.00000000000E+00 0. -1.
</event>
<event>
 7    1  0.2690635E-009  0.7135189E+02  0.7561462E-02  0.1355555E+00
          2   -1    0    0  501    0  0.00000000000E+00  0.00000000000E+00  0.36556537253E+03  0.36556537253E+03  0.00000000000E+00 0.  1.
         -2   -1    0    0    0  501 -0.00000000000E+00 -0.00000000000E+00 -0.48757439859E+02  0.48757439859E+02  0.00000000000E+00 0. -1.
         25    2    1    2    0    0 -0.55731495924E+02  0.28395513740E+02  0.10217208841E+03  0.17321098580E+03  0.12510237853E+03 0.  0.
          5    1    3    3  502    0 -0.78356018471E+01  0.18995646848E+02  0.11944131131E+03  0.12126801104E+03  0.41800000000E+01 0. -1.
         -5    1    3    3    0  502 -0.47895894077E+02  0.93998668923E+01 -0.17269222900E+02  0.51942974757E+02  0.41800000000E+01 0. -1.
        -11    1    1    2    0    0  0.20143013189E+02 -0.31102165768E+02  0.17877088350E+02  0.41142143645E+02  0.00000000000E+00 0. -1.
         11    1    1    2    0    0  0.35588482734E+02  0.27066520281E+01  0.19675875592E+03  0.19996968295E+03  0.00000000000E+00 0.  1.
</event>
<event>
 7    1  0.2690635E-009  0.1210497E+03  0.7561462E-02  0.1241375E+00
         -1   -1    0    0    0  501 -0.00000000000E+00  0.00000000000E+00  0.19709885605E+02  0.19709885605E+02  0.00000000000E+00 0.  1.
          1   -1    0    0  501    0  0.00000000000E+00 -0.00000000000E+00 -0.98158813247E+03  0.98158813247E+03  0.00000000000E+00 0. -1.
         25    2    1    2    0    0 -0.58660869200E+02  0.64347506802E+02 -0.47573592894E+03  0.49955298452E+03  0.12508721377E+03 0.  0.
          5    1    3    3  502    0 -0.26405510017E+02  0.79259863129E+02 -0.44373325856E+03  0.45154850682E+03  0.41800000000E+01 0. -1.
         -5    1    3    3    0  502 -0.32255359183E+02 -0.14912356327E+02 -0.32002670384E+02  0.48004477697E+02  0.41800000000E+01 0. -1.
        -11    1    1    2    0    0  0.21002827829E+02  0.20805471234E+02 -0.86959173715E+02  0.91847070194E+02  0.00000000000E+00 0.  1.
         11    1    1    2    0    0  0.37658041371E+02 -0.85152978036E+02 -0.39918314421E+03  0.40989796336E+03  0.00000000000E+00 0. -1.
</event>
<event>
 7    1  0.2690635E-009  0.1088954E+03  0.7561462E-02  0.1262629E+00
          2   -1    0    0  501    0  0.00000000000E+00  0.00000000000E+00  0.67999904369E+03  0.67999904369E+03  0.00000000000E+00 0. -1.
         -2   -1    0    0    0  501 -0.00000000000E+00 -0.00000000000E+00 -0.18430984432E+02  0.18430984432E+02  0.00000000000E+00 0.  1.
         25    2    1    2    0    0 -0.17394586136E+02  0.17891509616E+02  0.43372208591E+03  0.45208990171E+03  0.12509098162E+03 0.  0.
          5    1    3    3  502    0 -0.67767078919E+02 -0.11617029533E+02  0.24515789228E+03  0.25465112784E+03  0.41800000000E+01 0. -1.
         -5    1    3    3    0  502  0.50372492784E+02  0.29508539149E+02  0.18856419363E+03  0.19743877388E+03  0.41800000000E+01 0. -1.
        -11    1    1    2    0    0 -0.21403470299E+02 -0.40259481754E+02  0.82626376271E+02  0.94371883883E+02  0.00000000000E+00 0.  1.
         11    1    1    2    0    0  0.38798056435E+02  0.22367972138E+02  0.14521959708E+03  0.15196824253E+03  0.00000000000E+00 0. -1.
</event>
<event>
 7    1  0.2690635E-009  0.1111925E+03  0.7561462E-02  0.1258377E+00
         -2   -1    0    0    0  501 -0.00000000000E+00  0.00000000000E+00  0.48823899399E+03  0.48823899399E+03  0.00000000000E+00 0.  1.
          2   -1    0    0  501    0  0.00000000000E+00 -0.00000000000E+00 -0.50880457878E+02  0.50880457878E+02  0.00000000000E+00 0. -1.
         25    2    1    2    0    0  0.15230065166E+02 -0.43069557739E+02  0.41605806388E+03  0.43685049161E+03  0.12508836003E+03 0.  0.
          5    1    3    3  502    0 -0.37937782227E+02  0.24002950256E+02  0.18497530758E+03  0.19039105482E+03  0.41800000000E+01 0. -1.
         -5    1    3    3    0  502  0.53167847393E+02 -0.67072507995E+02  0.23108275630E+03  0.24645943680E+03  0.41800000000E+01 0. -1.
        -11    1    1    2    0    0 -0.42077360298E+02  0.14793477594E+01  0.30407295450E+02  0.51935501692E+02  0.00000000000E+00 0.  1.
         11    1    1    2    0    0  0.26847295132E+02  0.41590209980E+02 -0.91068232159E+01  0.50333458565E+02  0.00000000000E+00 0. -1.
</event>
<event>
 7    1  0.2690635E-009  0.1887456E+03  0.7561462E-02  0.1159598E+00
          1   -1    0    0  501    0  0.00000000000E+00  0.00000000000E+00  0.22038119124E+04  0.22038119124E+04  0.00000000000E+00 0. -1.
         -1   -1    0    0    0  501 -0.00000000000E+00 -0.00000000000E+00 -0.16896742004E+02  0.16896742004E+02  0.00000000000E+00 0.  1.
         25    2    1    2    0    0 -0.54408649731E+02 -0.14623818136E+03  0.13692135963E+04  0.13837411788E+04  0.12509145016E+03 0.  0.
          5    1    3    3  502    0  0.33266293374E+02 -0.54478301452E+01  0.21621254497E+03  0.21886448349E+03  0.41800000000E+01 0.  1.
         -5    1    3    3    0  502 -0.87674943105E+02 -0.14079035122E+03  0.11530010513E+04  0.11648766953E+04  0.41800000000E+01 0.  1.
        -11    1    1    2    0    0 -0.22510590959E+02  0.21900880598E+02  0.18006799442E+03  0.18278637228E+03  0.00000000000E+00 0. -1.
         11    1    1    2    0    0  0.76919240690E+02  0.12433730077E+03  0.63763357970E+03  0.65418110330E+03  0.00000000000E+00 0.  1.
</event>
<event>
 7    1  0.2690635E-009  0.1025363E+03  0.7561462E-02  0.1275051E+00
         -1   -1    0    0    0  501 -0.00000000000E+00  0.00000000000E+00  0.25742367161E+03  0.25742367161E+03  0.00000000000E+00 0.  1.
          1   -1    0    0  501    0  0.00000000000E+00 -0.00000000000E+00 -0.54180974921E+02  0.54180974921E+02  0.00000000000E+00 0. -1.
         25    2    1    2    0    0  0.19487621970E+02 -0.17058279457E+02  0.65762029554E+02  0.14367379529E+03  0.12508702017E+03 0.  0.
          5    1    3    3  502    0  0.15827190342E+02  0.46311286056E+02  0.63154775337E+02  0.80007707243E+02  0.41800000000E+01 0.  1.
         -5    1    3    3    0  502  0.36604316282E+01 -0.63369565513E+02  0.26072542169E+01  0.63666088050E+02  0.41800000000E+01 0.  1.
        -11    1    1    2    0    0  0.24480332065E+02 -0.22460352886E+02  0.27746368986E+02  0.43285275807E+02  0.00000000000E+00 0. -1.
         11    1    1    2    0    0 -0.43967954035E+02  0.39518632343E+02  0.10973429815E+03  0.12464557543E+03  0.00000000000E+00 0.  1.
</event>
<event>
 7    1  0.2690635E-009  0.2136429E+03  0.7561462E-02  0.1138713E+00
          1   -1    0    0  501    0  0.00000000000E+00  0.00000000000E+00  0.35174617251E+03  0.35174617251E+03  0.00000000000E+00 0. -1.
         -1   -1    0    0    0  501 -0.00000000000E+00 -0.00000000000E+00 -0.17317031148E+03  0.17317031148E+03  0.00000000000E+00 0.  1.
         25    2    1    2    0    0 -0.19166592476E+03  0.83383624306E+02  0.15457084431E+02  0.24407779716E+03  0.12508554709E+03 0.  0.
          5    1    3    3  502    0 -0.40543808555E+02  0.47976678516E+02  0.55282873562E+02  0.83780848664E+02  0.41800000000E+01 0. -1.
         -5    1    3    3    0  502 -0.15112211621E+03  0.35406945791E+02 -0.39825789131E+02  0.16029694849E+03  0.41800000000E+01 0. -1.
        -11    1    1    2    0    0  0.76719644760E+02 -0.31086702555E+02  0.11589809847E+02  0.83585947743E+02  0.00000000000E+00 0.  1.
         11    1    1    2    0    0  0.11494628000E+03 -0.52296921751E+02  0.15152896675E+03  0.19725273908E+03  0.00000000000E+00 0. -1.
</event>
<event>
 7    1  0.2690635E-009  0.1973611E+03  0.7561462E-02  0.1151985E+00
         -1   -1    0    0    0  501 -0.00000000000E+00  0.00000000000E+00  0.19668399300E+03  0.19668399300E+03  0.00000000000E+00 0.  1.
          1   -1    0    0  501    0  0.00000000000E+00 -0.00000000000E+00 -0.21370771992E+03  0.21370771992E+03  0.00000000000E+00 0. -1.
         25    2    1    2    0    0  0.98086678963E+02 -0.14253987069E+03 -0.20672956164E+02  0.21450946443E+03  0.12509327674E+03 0.  0.
          5    1    3    3  502    0 -0.18011898045E+01  0.13336738673E+02 -0.25643237548E+02  0.29260227530E+02  0.41800000000E+01 0.  1.
         -5    1    3    3    0  502  0.99887868767E+02 -0.15587660937E+03  0.49702813844E+01  0.18524923690E+03  0.41800000000E+01 0.  1.
        -11    1    1    2    0    0  0.94075276334E+01  0.57822146113E+02  0.68357343614E+01  0.58979906931E+02  0.00000000000E+00 0. -1.
         11    1    1    2    0    0 -0.10749420660E+03  0.84717724579E+02 -0.31865051166E+01  0.13690234156E+03  0.00000000000E+00 0.  1.
</event>
<event>
 7    1  0.5233038E-009  0.1759766E+03  0.7561462E-02  0.1171755E+00
         -2   -1    0    0    0  501 -0.00000000000E+00  0.00000000000E+00  0.27841739105E+02  0.27841739105E+02  0.00000000000E+00 0. -1.
          2   -1    0    0  501    0  0.00000000000E+00 -0.00000000000E+00 -0.15040593197E+04  0.15040593197E+04  0.00000000000E+00 0.  1.
         25    2    1    2    0    0  0.55114986899E+02  0.14410634576E+03 -0.10658762971E+04  0.10842250141E+04  0.12508916730E+03 0.  0.
          5    1    3    3  502    0 -0.20114463982E+02  0.11510355720E+03 -0.57703131927E+03  0.58875804569E+03  0.41800000000E+01 0. -1.
         -5    1    3    3    0  502  0.75229450881E+02  0.29002788564E+02 -0.48884497788E+03  0.49546696845E+03  0.41800000000E+01 0. -1.
        -11    1    1    2    0    0 -0.14498841726E+02 -0.40051692996E+02 -0.24151519859E+03  0.24524262613E+03  0.00000000000E+00 0.  1.
         11    1    1    2    0    0 -0.40616145173E+02 -0.10405465277E+03 -0.16882608482E+03  0.20243341851E+03  0.00000000000E+00 0. -1.
</event>
<event>
 7    1  0.2690635E-009  0.1093457E+03  0.7561462E-02  0.1261786E+00
          2   -1    0    0  501    0  0.00000000000E+00  0.00000000000E+00  0.70797393372E+03  0.70797393372E+03  0.00000000000E+00 0. -1.
         -2   -1    0    0    0  501 -0.00000000000E+00 -0.00000000000E+00 -0.36338925477E+02  0.36338925477E+02  0.00000000000E+00 0.  1.
         25    2    1    2    0    0  0.41731010726E+02  0.29122370263E+02  0.56816250649E+03  0.58399058558E+03  0.12508709190E+03 0.  0.
          5    1    3    3  502    0  0.49244840779E+02  0.54693466817E+02  0.53993744283E+03  0.54494618471E+03  0.41800000000E+01 0. -1.
         -5    1    3    3    0  502 -0.75138300535E+01 -0.25571096554E+02  0.28225063659E+02  0.39044400874E+02  0.41800000000E+01 0. -1.
        -11    1    1    2    0    0  0.25667420737E+02 -0.42152105443E+02  0.65056873610E+02  0.81657903993E+02  0.00000000000E+00 0.  1.
         11    1    1    2    0    0 -0.67398431463E+02  0.13029735181E+02  0.38415628141E+02  0.78664369622E+02  0.00000000000E+00 0. -1.
</event>
<event>
 7    1  0.2690635E-009  0.1077342E+03  0.7561462E-02  0.1264824E+00
          1   -1    0    0  501    0  0.00000000000E+00  0.00000000000E+00  0.23992146210E+03  0.23992146210E+03  0.00000000000E+00 0. -1.
         -1   -1    0    0    0  501 -0.00000000000E+00 -0.00000000000E+00 -0.56874325401E+02  0.56874325401E+02  0.00000000000E+00 0.  1.
         25    2    1    2    0    0  0.31168584545E+01  0.43727650275E+02  0.80606177834E+02  0.15513433524E+03  0.12508990311E+03 0.  0.
          5    1    3    3  502    0  0.23173141927E+02  0.80088451226E+02  0.76444916401E+02  0.11319210295E+03  0.41800000000E+01 0.  1.
         -5    1    3    3    0  502 -0.20056283472E+02 -0.36360800951E+02  0.41612614337E+01  0.41942232287E+02  0.41800000000E+01 0.  1.
        -11    1    1    2    0    0 -0.40993548639E+02 -0.20642254533E+02  0.24613207263E+02  0.52080549862E+02  0.00000000000E+00 0.  1.
         11    1    1    2    0    0  0.37876690184E+02 -0.23085395743E+02  0.77827751601E+02  0.89580902402E+02  0.00000000000E+00 0. -1.
</event>
<event>
 7    1  0.2690635E-009  0.1263124E+03  0.7561462E-02  0.1233032E+00
          2   -1    0    0  501    0  0.00000000000E+00  0.00000000000E+00  0.27816792881E+03  0.27816792881E+03  0.00000000000E+00 0. -1.
         -2   -1    0    0    0  501 -0.00000000000E+00 -0.00000000000E+00 -0.75450005250E+02  0.75450005250E+02  0.00000000000E+00 0.  1.
         25    2    1    2    0    0 -0.68668039996E+02  0.32991277708E+02  0.40331295027E+02  0.15191444073E+03  0.12509060645E+03 0.  0.
          5    1    3    3  502    0 -0.48327461837E+02 -0.44081844159E+02  0.89849217420E+01  0.66158550247E+02  0.41800000000E+01 0. -1.
         -5    1    3    3    0  502 -0.20340578159E+02  0.77073121867E+02  0.31346373286E+02  0.85755890482E+02  0.41800000000E+01 0. -1.
        -11    1    1    2    0    0  0.32086256220E+02 -0.55642404719E+02  0.13807414564E+03  0.15228287735E+03  0.00000000000E+00 0. -1.
         11    1    1    2    0    0  0.36581783776E+02  0.22651127011E+02  0.24312482893E+02  0.49420615977E+02  0.00000000000E+00 0.  1.
</event>
<event>
 7    1  0.2690635E-009  0.1390048E+03  0.7561462E-02  0.1214674E+00
         -3   -1    0    0    0  501 -0.00000000000E+00  0.00000000000E+00  0.29513395339E+03  0.29513395339E+03  0.00000000000E+00 0.  1.
          3   -1    0    0  501    0  0.00000000000E+00 -0.00000000000E+00 -0.10891165978E+03  0.10891165978E+03  0.00000000000E+00 0. -1.
         25    2    1    2    0    0 -0.89643808068E+02 -0.98756327362E+02  0.42479012251E+02  0.18772543781E+03  0.12509016348E+03 0.  0.
          5    1    3    3  502    0 -0.57486786402E+02 -0.29365247835E+02 -0.39290756049E+02  0.75685429919E+02  0.41800000000E+01 0. -1.
         -5    1    3    3    0  502 -0.32157021667E+02 -0.69391079528E+02  0.81769768300E+02  0.11204000789E+03  0.41800000000E+01 0. -1.
        -11    1    1    2    0    0  0.76323382225E+02  0.64343210170E+02  0.42381738698E+02  0.10845053778E+03  0.00000000000E+00 0. -1.
         11    1    1    2    0    0  0.13320425843E+02  0.34413117192E+02  0.10136154267E+03  0.10786963758E+03  0.00000000000E+00 0.  1.
</event>
<event>
 7    1  0.2690635E-009  0.1211802E+03  0.7561462E-02  0.1241163E+00
         -2   -1    0    0    0  501 -0.00000000000E+00  0.00000000000E+00  0.65908155386E+02  0.65908155386E+02  0.00000000000E+00 0.  1.
          2   -1    0    0  501    0  0.00000000000E+00 -0.00000000000E+00 -0.43710592495E+03  0.43710592495E+03  0.00000000000E+00 0. -1.
         25    2    1    2    0    0 -0.62261637994E+02  0.71735862956E+02 -0.32819622179E+03  0.36384853845E+03  0.12510177192E+03 0.  0.
          5    1    3    3  502    0 -0.39465739856E+02  0.24086715618E+01 -0.26272557722E+03  0.26571704433E+03  0.41800000000E+01 0.  1.
         -5    1    3    3    0  502 -0.22795898138E+02  0.69327191394E+02 -0.65470644569E+02  0.98131494123E+02  0.41800000000E+01 0.  1.
        -11    1    1    2    0    0  0.24058073428E+02 -0.85557363478E+02 -0.15789253902E+02  0.90267125140E+02  0.00000000000E+00 0.  1.
         11    1    1    2    0    0  0.38203564566E+02  0.13821500522E+02 -0.27212293872E+02  0.48898416743E+02  0.00000000000E+00 0. -1.
</event>
<event>
 7    1  0.2690635E-009  0.1420143E+03  0.7561462E-02  0.1210644E+00
          1   -1    0    0  501    0  0.00000000000E+00  0.00000000000E+00  0.12573015412E+03  0.12573015412E+03  0.00000000000E+00 0. -1.
         -1   -1    0    0    0  501 -0.00000000000E+00 -0.00000000000E+00 -0.23314919930E+03  0.23314919930E+03  0.00000000000E+00 0.  1.
         25    2    1    2    0    0 -0.45826528514E+02  0.11391261836E+03 -0.95091188190E+01  0.17553717415E+03  0.12508685314E+03 0.  0.
          5    1    3    3  502    0 -0.28340419294E+02  0.13183139167E+03  0.20253974464E+02  0.13641990719E+03  0.41800000000E+01 0.  1.
         -5    1    3    3    0  502 -0.17486109219E+02 -0.17918773310E+02 -0.29763093282E+02  0.39117266959E+02  0.41800000000E+01 0.  1.
        -11    1    1    2    0    0  0.24945145391E+02 -0.41950950334E+02  0.12056292424E+02  0.50274215056E+02  0.00000000000E+00 0. -1.
         11    1    1    2    0    0  0.20881383123E+02 -0.71961668025E+02 -0.10996621879E+03  0.13306796422E+03  0.00000000000E+00 0.  1.
</event>
<event>
 7    1  0.2690635E-009  0.1551016E+03  0.7561462E-02  0.1194341E+00
         -1   -1    0    0    0  501 -0.00000000000E+00  0.00000000000E+00  0.44541409023E+03  0.44541409023E+03  0.00000000000E+00 0.  1.
          1   -1    0    0  501    0  0.00000000000E+00 -0.00000000000E+00 -0.70706825680E+02  0.70706825680E+02  0.00000000000E+00 0. -1.
         25    2    1    2    0    0 -0.47780307021E+02 -0.11065775620E+03  0.30302081975E+03  0.34927974573E+03  0.12508647739E+03 0.  0.
          5    1    3    3  502    0 -0.74134595767E+02 -0.12328708946E+03  0.25841642349E+03  0.29579074537E+03  0.41800000000E+01 0.  1.
         -5    1    3    3    0  502  0.26354288746E+02  0.12629333254E+02  0.44604396260E+02  0.53489000360E+02  0.41800000000E+01 0.  1.
        -11    1    1    2    0    0  0.59606855947E+02  0.59377172513E+02  0.76865587010E+02  0.11396027535E+03  0.00000000000E+00 0.  1.
         11    1    1    2    0    0 -0.11826548926E+02  0.51280583692E+02 -0.51791422182E+01  0.52880894824E+02  0.00000000000E+00 0. -1.
</event>
<event>
 7    1  0.2690635E-009  0.2575968E+03  0.7561462E-02  0.1108596E+00
          1   -1    0    0  501    0  0.00000000000E+00  0.00000000000E+00  0.97566753537E+03  0.97566753537E+03  0.00000000000E+00 0. -1.
         -1   -1    0    0    0  501 -0.00000000000E+00 -0.00000000000E+00 -0.72461305051E+02  0.72461305051E+02  0.00000000000E+00 0.  1.
         25    2    1    2    0    0 -0.22949537013E+03 -0.48051375676E+02  0.34078467512E+03  0.43215502667E+03  0.12508682053E+03 0.  0.
          5    1    3    3  502    0 -0.93556900941E-02 -0.35149975765E+02  0.54639462882E+02  0.65103488292E+02  0.41800000000E+01 0.  1.
         -5    1    3    3    0  502 -0.22948601444E+03 -0.12901399911E+02  0.28614521223E+03  0.36705153838E+03  0.41800000000E+01 0.  1.
        -11    1    1    2    0    0  0.46005674111E+02 -0.25062848763E+02  0.14511865152E+03  0.15428574613E+03  0.00000000000E+00 0.  1.
         11    1    1    2    0    0  0.18348969602E+03  0.73114224439E+02  0.41730290369E+03  0.46168806762E+03  0.00000000000E+00 0. -1.
</event>
<event>
 7    1  0.2690635E-009  0.8965785E+02  0.7561462E-02  0.1303682E+00
         -2   -1    0    0    0  501 -0.00000000000E+00  0.00000000000E+00  0.79366394482E+03  0.79366394482E+03  0.00000000000E+00 0.  1.
          2   -1    0    0  501    0  0.00000000000E+00 -0.00000000000E+00 -0.16091420908E+02  0.16091420908E+02  0.00000000000E+00 0. -1.
         25    2    1    2    0    0  0.32235437012E+02 -0.10061649939E+02  0.41965773680E+03  0.43920448880E+03  0.12509039421E+03 0.  0.
          5    1    3    3  502    0  0.56998754785E+02 -0.12865577092E+02  0.40652823956E+03  0.41072748031E+03  0.41800000000E+01 0.  1.
         -5    1    3    3    0  502 -0.24763317773E+02  0.28039271528E+01  0.13129497241E+02  0.28477008487E+02  0.41800000000E+01 0.  1.
        -11    1    1    2    0    0  0.22469045791E+02 -0.22503403675E+02  0.13725188644E+03  0.14088769119E+03  0.00000000000E+00 0.  1.
         11    1    1    2    0    0 -0.54704482803E+02  0.32565053614E+02  0.22066290066E+03  0.22966318574E+03  0.00000000000E+00 0. -1.
</event>
<event>
 7    1  0.2690635E-009  0.8292593E+02  0.7561462E-02  0.1320947E+00
         -1   -1    0    0    0  501 -0.00000000000E+00  0.00000000000E+00  0.24110858741E+03  0.24110858741E+03  0.00000000000E+00 0.  1.
          1   -1    0    0  501    0  0.00000000000E+00 -0.00000000000E+00 -0.59385592552E+02  0.59385592552E+02  0.00000000000E+00 0. -1.
         25    2    1    2    0    0  0.10335083071E+02  0.38756881762E+02  0.66004840787E+02  0.14701422171E+03  0.12509049744E+03 0.  0.
          5    1    3    3  502    0 -0.28118249959E+02  0.30358956223E+02  0.91102344534E+02  0.10014695094E+03  0.41800000000E+01 0.  1.
         -5    1    3    3    0  502  0.38453333030E+02  0.83979255392E+01 -0.25097503747E+02  0.46867270763E+02  0.41800000000E+01 0.  1.
        -11    1    1    2    0    0 -0.17615384757E+02  0.19322202527E+02  0.28049309767E+01  0.26296709460E+02  0.00000000000E+00 0. -1.
         11    1    1    2    0    0  0.72803016860E+01 -0.58079084289E+02  0.11291322310E+03  0.12718324880E+03  0.00000000000E+00 0.  1.
</event>
<event>
 7    1  0.2690635E-009  0.1433201E+03  0.7561462E-02  0.1208930E+00
          2   -1    0    0  501    0  0.00000000000E+00  0.00000000000E+00  0.65631315114E+03  0.65631315114E+03  0.00000000000E+00 0.  1.
         -2   -1    0    0    0  501 -0.00000000000E+00 -0.00000000000E+00 -0.35375705588E+02  0.35375705588E+02  0.00000000000E+00 0. -1.
         25    2    1    2    0    0  0.66427909045E+02 -0.80025117201E+02  0.28549720599E+03  0.32859193515E+03  0.12508924308E+03 0.  0.
          5    1    3    3  502    0  0.70865304716E+02  0.73088307708E+01  0.93897894725E+02  0.11793895647E+03  0.41800000000E+01 0.  1.
         -5    1    3    3    0  502 -0.44373956709E+01 -0.87333947972E+02  0.19159931127E+03  0.21065297868E+03  0.41800000000E+01 0.  1.
        -11    1    1    2    0    0  0.14330960783E+02  0.28595095053E+02  0.33402166141E+02  0.46246736112E+02  0.00000000000E+00 0. -1.
         11    1    1    2    0    0 -0.80758869829E+02  0.51430022148E+02  0.30203807341E+03  0.31685018546E+03  0.00000000000E+00 0.  1.
</event>
<event>
 7    1  0.2690635E-009  0.9281582E+02  0.7561462E-02  0.1296173E+00
         -1   -1    0    0    0  501 -0.00000000000E+00  0.00000000000E+00  0.69436208675E+03  0.69436208675E+03  0.00000000000E+00 0.  1.
          1   -1    0    0  501    0  0.00000000000E+00 -0.00000000000E+00 -0.26986150963E+02  0.26986150963E+02  0.00000000000E+00 0. -1.
         25    2    1    2    0    0  0.57247550626E+02 -0.11209300042E+02  0.54208813811E+03  0.55938391630E+03  0.12509151003E+03 0.  0.
          5    1    3    3  502    0  0.72880960957E+02 -0.25615406857E+02  0.52777938588E+03  0.53341947481E+03  0.41800000000E+01 0. -1.
         -5    1    3    3    0  502 -0.15633410330E+02  0.14406106815E+02  0.14308752226E+02  0.25964441500E+02  0.41800000000E+01 0. -1.
        -11    1    1    2    0    0 -0.33151720768E+02  0.38093539175E+02  0.11309740323E+03  0.12385950482E+03  0.00000000000E+00 0.  1.
         11    1    1    2    0    0 -0.24095829859E+02 -0.26884239133E+02  0.12190394446E+02  0.38104816586E+02  0.00000000000E+00 0. -1.
</event>
<event>
 7    1  0.2690635E-009  0.1047275E+03  0.7561462E-02  0.1270657E+00
         -2   -1    0    0    0  501 -0.00000000000E+00  0.00000000000E+00  0.15749485351E+03  0.15749485351E+03  0.00000000000E+00 0.  1.
          2   -1    0    0  501    0  0.00000000000E+00 -0.00000000000E+00 -0.13698604345E+03  0.13698604345E+03  0.00000000000E+00 0. -1.
         25    2    1    2    0    0 -0.74117877363E+02  0.61830638702E+02  0.32998757321E+02  0.16141252968E+03  0.12509436089E+03 0.  0.
          5    1    3    3  502    0 -0.64558734394E+02  0.58902254925E+02 -0.33760695927E+02  0.93779330406E+02  0.41800000000E+01 0. -1.
         -5    1    3    3    0  502 -0.95591429685E+01  0.29283837770E+01  0.66759453249E+02  0.67633199273E+02  0.41800000000E+01 0. -1.
        -11    1    1    2    0    0  0.56667051023E+02 -0.11453283853E+02  0.29778426531E+02  0.65031431396E+02  0.00000000000E+00 0.  1.
         11    1    1    2    0    0  0.17450826340E+02 -0.50377354849E+02 -0.42268373798E+02  0.68036935888E+02  0.00000000000E+00 0. -1.
</event>
<event>
 7    1  0.2690635E-009  0.7640660E+02  0.7561462E-02  0.1339570E+00
          2   -1    0    0  501    0  0.00000000000E+00  0.00000000000E+00  0.10899618870E+03  0.10899618870E+03  0.00000000000E+00 0. -1.
         -2   -1    0    0    0  501 -0.00000000000E+00 -0.00000000000E+00 -0.19789445126E+03  0.19789445126E+03  0.00000000000E+00 0.  1.
         25    2    1    2    0    0  0.28542056550E+02  0.65006605562E+02  0.22727257565E+02  0.14561847039E+03  0.12509077873E+03 0.  0.
          5    1    3    3  502    0  0.24133445101E+02  0.66727443402E+02 -0.40679617489E+02  0.81897976498E+02  0.41800000000E+01 0. -1.
         -5    1    3    3    0  502  0.44086114490E+01 -0.17208378395E+01  0.63406875054E+02  0.63720493892E+02  0.41800000000E+01 0. -1.
        -11    1    1    2    0    0 -0.30224619955E+01 -0.38518958339E+02  0.50227518164E+01  0.38962462241E+02  0.00000000000E+00 0. -1.
         11    1    1    2    0    0 -0.25519594555E+02 -0.26487647223E+02 -0.11664827193E+03  0.12230970733E+03  0.00000000000E+00 0.  1.
</event>
<event>
 7    1  0.2690635E-009  0.9630664E+02  0.7561462E-02  0.1288260E+00
         -1   -1    0    0    0  501 -0.00000000000E+00  0.00000000000E+00  0.31348063057E+02  0.31348063057E+02  0.00000000000E+00 0.  1.
          1   -1    0    0  501    0  0.00000000000E+00 -0.00000000000E+00 -0.51600030792E+03  0.51600030792E+03  0.00000000000E+00 0. -1.
         25    2    1    2    0    0  0.36996687862E+02  0.30690423533E+02 -0.37787440952E+03  0.40093267736E+03  0.12508910982E+03 0.  0.
          5    1    3    3  502    0  0.67806189408E+02  0.10776550277E+02 -0.34405236446E+03  0.35086082034E+03  0.41800000000E+01 0. -1.
         -5    1    3    3    0  502 -0.30809501545E+02  0.19913873256E+02 -0.33822045063E+02  0.50071857024E+02  0.41800000000E+01 0. -1.
        -11    1    1    2    0    0 -0.19172581328E+02  0.23227922785E+02 -0.59573743794E+01  0.30702028943E+02  0.00000000000E+00 0.  1.
         11    1    1    2    0    0 -0.17824106534E+02 -0.53918346319E+02 -0.10082046096E+03  0.11571366467E+03  0.00000000000E+00 0. -1.
</event>
<event>
 7    1  0.3471792E-009  0.9622817E+02  0.7561462E-02  0.1288434E+00
         -1   -1    0    0    0  501 -0.00000000000E+00  0.00000000000E+00  0.56188486687E+03  0.56188486687E+03  0.00000000000E+00 0.  1.
          1   -1    0    0  501    0  0.00000000000E+00 -0.00000000000E+00 -0.33054666815E+02  0.33054666815E+02  0.00000000000E+00 0. -1.
         25    2    1    2    0    0  0.48891083930E+02  0.46102041457E+02  0.39395823184E+03  0.41876807085E+03  0.12509145620E+03 0.  0.
          5    1    3    3  502    0  0.81355477332E+02  0.33469291034E+02  0.16402624760E+03  0.18617462082E+03  0.41800000000E+01 0.  1.
         -5    1    3    3    0  502 -0.32464393402E+02  0.12632750423E+02  0.22993198424E+03  0.23259345003E+03  0.41800000000E+01 0.  1.
        -11    1    1    2    0    0 -0.11798639145E+02 -0.22297245804E+02  0.12931025295E+03  0.13174792816E+03  0.00000000000E+00 0.  1.
         11    1    1    2    0    0 -0.37092444785E+02 -0.23804795652E+02  0.55617152600E+01  0.44423534673E+02  0.00000000000E+00 0. -1.
</event>
<event>
 7    1  0.2690635E-009  0.8862701E+02  0.7561462E-02  0.1306211E+00
          1   -1    0    0  501    0  0.00000000000E+00  0.00000000000E+00  0.63831200842E+03  0.63831200842E+03  0.00000000000E+00 0. -1.
         -1   -1    0    0    0  501 -0.00000000000E+00 -0.00000000000E+00 -0.22920072634E+02  0.22920072634E+02  0.00000000000E+00 0.  1.
         25    2    1    2    0    0  0.40214564350E+02 -0.15413161813E+01  0.43899685563E+03  0.45824051583E+03  0.12508614734E+03 0.  0.
          5    1    3    3  502    0  0.13665097645E+02  0.54460259072E+02  0.11155230642E+03  0.12495616903E+03  0.41800000000E+01 0. -1.
         -5    1    3    3    0  502  0.26549466706E+02 -0.56001575254E+02  0.32744454921E+03  0.33328434680E+03  0.41800000000E+01 0. -1.
        -11    1    1    2    0    0 -0.25280907690E+02 -0.20266988210E+02  0.17338818140E+03  0.17638972916E+03  0.00000000000E+00 0. -1.
         11    1    1    2    0    0 -0.14933656660E+02  0.21808304391E+02  0.30068987561E+01  0.26601836061E+02  0.00000000000E+00 0.  1.
</event>
<event>
 7    1  0.2690635E-009  0.1188724E+03  0.7561462E-02  0.1244969E+00
         -2   -1    0    0    0  501 -0.00000000000E+00  0.00000000000E+00  0.99246007332E+02  0.99246007332E+02  0.00000000000E+00 0.  1.
          2   -1    0    0  501    0  0.00000000000E+00 -0.00000000000E+00 -0.23909924516E+03  0.23909924516E+03  0.00000000000E+00 0. -1.
         25    2    1    2    0    0 -0.62314830948E+01  0.74065949361E+02  0.12053422795E+02  0.14600384952E+03  0.12508893971E+03 0.  0.
          5    1    3    3  502    0  0.33334169235E+02  0.93630541489E+02  0.18563156069E+02  0.10119243204E+03  0.41800000000E+01 0.  1.
         -5    1    3    3    0  502 -0.39565652330E+02 -0.19564592128E+02 -0.65097332747E+01  0.44811417482E+02  0.41800000000E+01 0.  1.
        -11    1    1    2    0    0  0.31883068665E+02 -0.45250618685E+02 -0.14215049400E+03  0.15254806293E+03  0.00000000000E+00 0. -1.
         11    1    1    2    0    0 -0.25651585570E+02 -0.28815330676E+02 -0.97561666140E+01  0.39793340036E+02  0.00000000000E+00 0.  1.
</event>
<event>
 7    1  0.2690635E-009  0.1273171E+03  0.7561462E-02  0.1231492E+00
         -2   -1    0    0    0  501 -0.00000000000E+00  0.00000000000E+00  0.49969965039E+02  0.49969965039E+02  0.00000000000E+00 0. -1.
          2   -1    0    0  501    0  0.00000000000E+00 -0.00000000000E+00 -0.48318914298E+03  0.48318914298E+03  0.00000000000E+00 0.  1.
         25    2    1    2    0    0 -0.57859912294E+02  0.48218229914E+02 -0.37095119472E+03  0.39865402393E+03  0.12508986686E+03 0.  0.
          5    1    3    3  502    0 -0.23494810459E+02 -0.39013792018E+02 -0.71811447408E+02  0.85137761686E+02  0.41800000000E+01 0. -1.
         -5    1    3    3    0  502 -0.34365101834E+02  0.87232021932E+02 -0.29913974731E+03  0.31351626225E+03  0.41800000000E+01 0. -1.
        -11    1    1    2    0    0  0.86241288381E+01 -0.63043875573E+02 -0.16666058265E+02  0.65777377141E+02  0.00000000000E+00 0. -1.
         11    1    1    2    0    0  0.49235783456E+02  0.14825645659E+02 -0.45601924963E+02  0.68727706946E+02  0.00000000000E+00 0.  1.
</event>
<event>
 7    1  0.2690635E-009  0.9644124E+02  0.7561462E-02  0.1287963E+00
         -2   -1    0    0    0  501 -0.00000000000E+00  0.00000000000E+00  0.91717441717E+02  0.91717441717E+02  0.00000000000E+00 0.  1.
          2   -1    0    0  501    0  0.00000000000E+00 -0.00000000000E+00 -0.16271056445E+03  0.16271056445E+03  0.00000000000E+00 0. -1.
         25    2    1    2    0    0 -0.18769027646E+02  0.48185352115E+02 -0.17200162349E+02  0.13644564569E+03  0.12508982407E+03 0.  0.
          5    1    3    3  502    0  0.41530429741E+01  0.80017298893E+02 -0.41278263840E+02  0.90229614616E+02  0.41800000000E+01 0.  1.
         -5    1    3    3    0  502 -0.22922070620E+02 -0.31831946778E+02  0.24078101491E+02  0.46216031078E+02  0.41800000000E+01 0.  1.
        -11    1    1    2    0    0  0.11257954601E+02 -0.58982621693E+02  0.25726475513E+01  0.60102493451E+02  0.00000000000E+00 0.  1.
         11    1    1    2    0    0  0.75110730444E+01  0.10797269578E+02 -0.56365607937E+02  0.57879867024E+02  0.00000000000E+00 0. -1.
</event>
<event>
 7    1  0.2690635E-009  0.8553665E+02  0.7561462E-02  0.1314035E+00
         -2   -1    0    0    0  501 -0.00000000000E+00  0.00000000000E+00  0.30583529759E+02  0.30583529759E+02  0.00000000000E+00 0.  1.
          2   -1    0    0  501    0  0.00000000000E+00 -0.00000000000E+00 -0.47095581914E+03  0.47095581914E+03  0.00000000000E+00 0. -1.
         25    2    1    2    0    0 -0.20540075890E+01 -0.45697053778E+02 -0.29157321979E+03  0.32055403177E+03  0.12508998809E+03 0.  0.
          5    1    3    3  502    0 -0.29277224988E+02 -0.67304170745E+02 -0.91174364584E+02  0.11712064062E+03  0.41800000000E+01 0.  1.
         -5    1    3    3    0  502  0.27223217399E+02  0.21607116968E+02 -0.20039885520E+03  0.20343339115E+03  0.41800000000E+01 0.  1.
        -11    1    1    2    0    0  0.21910088215E+02  0.17377504815E+02 -0.14325233982E+03  0.14595637191E+03  0.00000000000E+00 0. -1.
         11    1    1    2    0    0 -0.19856080626E+02  0.28319548963E+02 -0.55467297768E+01  0.35028945210E+02  0.00000000000E+00 0.  1.
</event>
<event>
 7    1  0.2690635E-009  0.9018849E+02  0.7561462E-02  0.1302396E+00
         -1   -1    0    0    0  501 -0.00000000000E+00  0.00000000000E+00  0.69428505222E+02  0.69428505222E+02  0.00000000000E+00 0.  1.
          1   -1    0    0  501    0  0.00000000000E+00 -0.00000000000E+00 -0.26465600588E+03  0.26465600588E+03  0.00000000000E+00 0. -1.
         25    2    1    2    0    0 -0.53889222139E+02 -0.49961618544E+02 -0.15329849546E+03  0.21105898909E+03  0.12508100006E+03 0.  0.
          5    1    3    3  502    0 -0.10434964051E+01 -0.74316731057E+01 -0.14188463520E+03  0.14214443625E+03  0.41800000000E+01 0.  1.
         -5    1    3    3    0  502 -0.52845725734E+02 -0.42529945438E+02 -0.11413860255E+02  0.68914552841E+02  0.41800000000E+01 0.  1.
        -11    1    1    2    0    0  0.36482073329E+02 -0.12823745154E+02  0.97317160998E+01  0.39876012996E+02  0.00000000000E+00 0.  1.
         11    1    1    2    0    0  0.17407148809E+02  0.62785363698E+02 -0.51660721298E+02  0.83149509015E+02  0.00000000000E+00 0. -1.
</event>
<event>
 7    1  0.2690635E-009  0.1035788E+03  0.7561462E-02  0.1272945E+00
          1   -1    0    0  501    0  0.00000000000E+00  0.00000000000E+00  0.19465009075E+03  0.19465009075E+03  0.00000000000E+00 0. -1.
         -1   -1    0    0    0  501 -0.00000000000E+00 -0.00000000000E+00 -0.99871010683E+02  0.99871010683E+02  0.00000000000E+00 0.  1.
         25    2    1    2    0    0 -0.52556007683E+02  0.31051432850E+02  0.11650558621E+03  0.18151330091E+03  0.12508877392E+03 0.  0.
          5    1    3    3  502    0 -0.15608870230E+02  0.75567334810E+02  0.44934842607E+02  0.89390555431E+02  0.41800000000E+01 0.  1.
         -5    1    3    3    0  502 -0.36947137453E+02 -0.44515901961E+02  0.71570743607E+02  0.92122745475E+02  0.41800000000E+01 0.  1.
        -11    1    1    2    0    0  0.65147386263E+01  0.88260586014E+01  0.30726093038E+02  0.32625663567E+02  0.00000000000E+00 0. -1.
         11    1    1    2    0    0  0.46041269057E+02 -0.39877491451E+02 -0.52452599186E+02  0.80382136959E+02  0.00000000000E+00 0.  1.
</event>
<event>
 7    1  0.2690635E-009  0.1618095E+03  0.7561462E-02  0.1186669E+00
         -3   -1    0    0    0  501 -0.00000000000E+00  0.00000000000E+00  0.41483268007E+03  0.41483268007E+03  0.00000000000E+00 0.  1.
          3   -1    0    0  501    0  0.00000000000E+00 -0.00000000000E+00 -0.68183746797E+02  0.68183746797E+02  0.00000000000E+00 0. -1.
         25    2    1    2    0    0 -0.12723046265E+03 -0.16106527954E+02  0.17438470412E+03  0.25000848174E+03  0.12508878863E+03 0.  0.
          5    1    3    3  502    0 -0.53445477500E+02 -0.68197044467E+02  0.10398791098E+03  0.13541866182E+03  0.41800000000E+01 0. -1.
         -5    1    3    3    0  502 -0.73784985153E+02  0.52090516512E+02  0.70396793139E+02  0.11458981992E+03  0.41800000000E+01 0. -1.
        -11    1    1    2    0    0  0.57471317734E+02  0.42913138313E+02  0.12637655526E+03  0.14531181480E+03  0.00000000000E+00 0.  1.
         11    1    1    2    0    0  0.69759144918E+02 -0.26806610359E+02  0.45887673890E+02  0.87696130324E+02  0.00000000000E+00 0. -1.
</event>
<event>
 7    1  0.2690635E-009  0.1366730E+03  0.7561462E-02  0.1217877E+00
         -1   -1    0    0    0  501 -0.00000000000E+00  0.00000000000E+00  0.81081588194E+02  0.81081588194E+02  0.00000000000E+00 0.  1.
          1   -1    0    0  501    0  0.00000000000E+00 -0.00000000000E+00 -0.29389446456E+03  0.29389446456E+03  0.00000000000E+00 0. -1.
         25    2    1    2    0    0 -0.55744977350E+02 -0.81849073211E+02 -0.61236518493E+02  0.17089064464E+03  0.12508768102E+03 0.  0.
          5    1    3    3  502    0 -0.64978398484E+02 -0.10361644722E+03 -0.21190501324E+02  0.12419770590E+03  0.41800000000E+01 0. -1.
         -5    1    3    3    0  502  0.92334211333E+01  0.21767374009E+02 -0.40046017169E+02  0.46692938740E+02  0.41800000000E+01 0. -1.
        -11    1    1    2    0    0  0.12963033961E+01  0.71527987285E+02 -0.12158977422E+03  0.14107447169E+03  0.00000000000E+00 0. -1.
         11    1    1    2    0    0  0.54448673954E+02  0.10321085925E+02 -0.29986583651E+02  0.63010936425E+02  0.00000000000E+00 0.  1.
</event>
<event>
 7    1  0.2690635E-009  0.9550311E+02  0.7561462E-02  0.1290047E+00
         -2   -1    0    0    0  501 -0.00000000000E+00  0.00000000000E+00  0.46148011255E+02  0.46148011255E+02  0.00000000000E+00 0.  1.
          2   -1    0    0  501    0  0.00000000000E+00 -0.00000000000E+00 -0.30042779430E+03  0.30042779430E+03  0.00000000000E+00 0. -1.
         25    2    1    2    0    0  0.49124787998E+00 -0.31310633233E+02 -0.97161582081E+02  0.16145683502E+03  0.12508932595E+03 0.  0.
          5    1    3    3  502    0 -0.41291245109E+02  0.25448009262E+02 -0.71157170233E+02  0.86217071243E+02  0.41800000000E+01 0.  1.
         -5    1    3    3    0  502  0.41782492989E+02 -0.56758642495E+02 -0.26004411848E+02  0.75239763781E+02  0.41800000000E+01 0.  1.
        -11    1    1    2    0    0  0.20719091485E+02  0.42833821976E+02 -0.15350665890E+03  0.16071188937E+03  0.00000000000E+00 0. -1.
         11    1    1    2    0    0 -0.21210339365E+02 -0.11523188743E+02 -0.36115420613E+01  0.24407081162E+02  0.00000000000E+00 0.  1.
</event>
<event>
 7    1  0.2690635E-009  0.1452376E+03  0.7561462E-02  0.1206450E+00
          2   -1    0    0  501    0  0.00000000000E+00  0.00000000000E+00  0.22220651935E+03  0.22220651935E+03  0.00000000000E+00 0. -1.
         -2   -1    0    0    0  501 -0.00000000000E+00 -0.00000000000E+00 -0.10664720688E+03  0.10664720688E+03  0.00000000000E+00 0.  1.
         25    2    1    2    0    0 -0.84579831147E+02  0.69006290093E+02  0.63523054025E+02  0.17776282200E+03  0.12509527003E+03 0.  0.
          5    1    3    3  502    0 -0.96791993389E+02  0.73842687576E+01  0.15086613026E+02  0.98327492096E+02  0.41800000000E+01 0.  1.
         -5    1    3    3    0  502  0.12212162242E+02  0.61622021335E+02  0.48436440999E+02  0.79435329903E+02  0.41800000000E+01 0.  1.
        -11    1    1    2    0    0  0.21737689146E+02 -0.63676748618E+02  0.56506568767E+02  0.87864940435E+02  0.00000000000E+00 0. -1.
         11    1    1    2    0    0  0.62842142001E+02 -0.53295414753E+01 -0.44703103198E+01  0.63225963797E+02  0.00000000000E+00 0.  1.
</event>
<event>
 7    1  0.2690635E-009  0.1868503E+03  0.7561462E-02  0.1161333E+00
         -1   -1    0    0    0  501 -0.00000000000E+00  0.00000000000E+00  0.78466151916E+02  0.78466151916E+02  0.00000000000E+00 0.  1.
          1   -1    0    0  501    0  0.00000000000E+00 -0.00000000000E+00 -0.53626329359E+03  0.53626329359E+03  0.00000000000E+00 0. -1.
         25    2    1    2    0    0 -0.14284075084E+03  0.96149262409E+02 -0.28093136364E+03  0.35244624547E+03  0.12509102328E+03 0.  0.
          5    1    3    3  502    0 -0.40841571152E+02  0.61185571317E+02 -0.21190742375E+03  0.22435226033E+03  0.41800000000E+01 0.  1.
         -5    1    3    3    0  502 -0.10199917969E+03  0.34963691092E+02 -0.69023939889E+02  0.12809398515E+03  0.41800000000E+01 0.  1.
        -11    1    1    2    0    0  0.59862852619E+02  0.63908831920E+01 -0.71418037996E+02  0.93407390836E+02  0.00000000000E+00 0. -1.
         11    1    1    2    0    0  0.82977898226E+02 -0.10254014560E+03 -0.10544774004E+03  0.16887580920E+03  0.00000000000E+00 0.  1.
</event>
<event>
 7    1  0.2690635E-009  0.5326712E+02  0.7561462E-02  0.1428476E+00
         -1   -1    0    0    0  501 -0.00000000000E+00  0.00000000000E+00  0.23040997099E+02  0.23040997099E+02  0.00000000000E+00 0.  1.
          1   -1    0    0  501    0  0.00000000000E+00 -0.00000000000E+00 -0.41759989043E+03  0.41759989043E+03  0.00000000000E+00 0. -1.
         25    2    1    2    0    0 -0.13153942425E+02  0.39292718665E+01 -0.37252391748E+03  0.39320380771E+03  0.12508676958E+03 0.  0.
          5    1    3    3  502    0  0.20666275009E+02 -0.26154837155E+02 -0.32751662404E+03  0.32923514674E+03  0.41800000000E+01 0.  1.
         -5    1    3    3    0  502 -0.33820217434E+02  0.30084109022E+02 -0.45007293445E+02  0.63968660969E+02  0.41800000000E+01 0.  1.
        -11    1    1    2    0    0  0.77068669023E+01  0.99421540146E+01 -0.28530342220E+02  0.31180485100E+02  0.00000000000E+00 0. -1.
         11    1    1    2    0    0  0.54470755225E+01 -0.13871425881E+02  0.64953663662E+01  0.16256594722E+02  0.00000000000E+00 0.  1.
</event>
<event>
 7    1  0.2690635E-009  0.1689126E+03  0.7561462E-02  0.1178987E+00
         -1   -1    0    0    0  501 -0.00000000000E+00  0.00000000000E+00  0.77536765225E+03  0.77536765225E+03  0.00000000000E+00 0.  1.
          1   -1    0    0  501    0  0.00000000000E+00 -0.00000000000E+00 -0.47671013240E+02  0.47671013240E+02  0.00000000000E+00 0. -1.
         25    2    1    2    0    0  0.12441538713E+03  0.89540870319E+02  0.48081426289E+03  0.51993043134E+03  0.12509413264E+03 0.  0.
          5    1    3    3  502    0  0.96358548902E+00  0.44613131147E+02  0.25281933735E+03  0.25676126987E+03  0.41800000000E+01 0.  1.
         -5    1    3    3    0  502  0.12345180164E+03  0.44927739173E+02  0.22799492554E+03  0.26316916146E+03  0.41800000000E+01 0.  1.
        -11    1    1    2    0    0 -0.74612003850E+02 -0.22266212849E+02  0.59875338026E+02  0.98223171690E+02  0.00000000000E+00 0.  1.
         11    1    1    2    0    0 -0.49803383278E+02 -0.67274657470E+02  0.18700703810E+03  0.20488506247E+03  0.00000000000E+00 0. -1.
</event>
<event>
 7    1  0.2690635E-009  0.6412934E+02  0.7561462E-02  0.1381277E+00
          2   -1    0    0  501    0  0.00000000000E+00  0.00000000000E+00  0.85850744055E+03  0.85850744055E+03  0.00000000000E+00 0. -1.
         -2   -1    0    0    0  501 -0.00000000000E+00 -0.00000000000E+00 -0.14062308403E+02  0.14062308403E+02  0.00000000000E+00 0.  1.
         25    2    1    2    0    0  0.31157504829E+01  0.15330902212E+02  0.53288365269E+03  0.54759222942E+03  0.12509003940E+03 0.  0.
          5    1    3    3  502    0  0.46313946021E+01  0.24832195052E+02  0.53602938070E+03  0.53664052876E+03  0.41800000000E+01 0. -1.
         -5    1    3    3    0  502 -0.15156441192E+01 -0.95012928396E+01 -0.31457280150E+01  0.10951700665E+02  0.41800000000E+01 0. -1.
        -11    1    1    2    0    0 -0.98914202105E+01  0.37560415251E+02  0.11971512451E+03  0.12585839672E+03  0.00000000000E+00 0.  1.
         11    1    1    2    0    0  0.67756697276E+01 -0.52891317463E+02  0.19184635495E+03  0.19911912282E+03  0.00000000000E+00 0. -1.
</event>
<event>
 7    1  0.2690635E-009  0.9826878E+02  0.7561462E-02  0.1283979E+00
          3   -1    0    0  501    0  0.00000000000E+00  0.00000000000E+00  0.64051814585E+03  0.64051814585E+03  0.00000000000E+00 0. -1.
         -3   -1    0    0    0  501 -0.00000000000E+00 -0.00000000000E+00 -0.20011363845E+02  0.20011363845E+02  0.00000000000E+00 0.  1.
         25    2    1    2    0    0  0.25439702944E+02  0.14476038061E+02  0.39859430165E+03  0.41878618157E+03  0.12509082461E+03 0.  0.
          5    1    3    3  502    0  0.56507116432E+02  0.42423373830E+02  0.33622833421E+03  0.34359825666E+03  0.41800000000E+01 0.  1.
         -5    1    3    3    0  502 -0.31067413488E+02 -0.27947335769E+02  0.62365967440E+02  0.75187924909E+02  0.41800000000E+01 0.  1.
        -11    1    1    2    0    0 -0.22173361121E+02 -0.46527171432E+02  0.18812602714E+03  0.19505854945E+03  0.00000000000E+00 0. -1.
         11    1    1    2    0    0 -0.32663418226E+01  0.32051133371E+02  0.33786453204E+02  0.46684778668E+02  0.00000000000E+00 0.  1.
</event>
<event>
 7    1  0.3260331E-009  0.1309211E+03  0.7561462E-02  0.1226095E+00
          1   -1    0    0  501    0  0.00000000000E+00  0.00000000000E+00  0.15792131274E+03  0.15792131274E+03  0.00000000000E+00 0.  1.
         -1   -1    0    0    0  501 -0.00000000000E+00 -0.00000000000E+00 -0.15250860896E+03  0.15250860896E+03  0.00000000000E+00 0. -1.
         25    2    1    2    0    0  0.39295643193E+02 -0.88319132666E+02  0.56312967267E+02  0.16781640308E+03  0.12508708204E+03 0.  0.
          5    1    3    3  502    0 -0.36076834121E+02 -0.72114939828E+02  0.25329177770E+02  0.84623531911E+02  0.41800000000E+01 0.  1.
         -5    1    3    3    0  502  0.75372477315E+02 -0.16204192837E+02  0.30983789498E+02  0.83192871171E+02  0.41800000000E+01 0.  1.
        -11    1    1    2    0    0 -0.23858618348E+02  0.13331943465E+02 -0.59593518655E+02  0.65561893289E+02  0.00000000000E+00 0. -1.
         11    1    1    2    0    0 -0.15437024845E+02  0.74987189200E+02  0.86932551711E+01  0.77051625328E+02  0.00000000000E+00 0.  1.
</event>
<event>
 7    1  0.2690635E-009  0.1842687E+03  0.7561462E-02  0.1163735E+00
          2   -1    0    0  501    0  0.00000000000E+00  0.00000000000E+00  0.70155514059E+03  0.70155514059E+03  0.00000000000E+00 0. -1.
         -2   -1    0    0    0  501 -0.00000000000E+00 -0.00000000000E+00 -0.85777400964E+02  0.85777400964E+02  0.00000000000E+00 0.  1.
         25    2    1    2    0    0 -0.76371751330E+02  0.14928882466E+03  0.54517121912E+03  0.58393453053E+03  0.12509228681E+03 0.  0.
          5    1    3    3  502    0 -0.87262451700E+02  0.15660111745E+03  0.54038099262E+03  0.56935729999E+03  0.41800000000E+01 0. -1.
         -5    1    3    3    0  502  0.10890700370E+02 -0.73122927901E+01  0.47902265008E+01  0.14577230544E+02  0.41800000000E+01 0. -1.
        -11    1    1    2    0    0 -0.36335431465E+01 -0.39150652449E+02 -0.15564150889E+02  0.42287338718E+02  0.00000000000E+00 0.  1.
         11    1    1    2    0    0  0.80005294476E+02 -0.11013817221E+03  0.86170671396E+02  0.16111067231E+03  0.00000000000E+00 0. -1.
</event>
<event>
 7    1  0.2690635E-009  0.7083490E+02  0.7561462E-02  0.1357277E+00
          1   -1    0    0  501    0  0.00000000000E+00  0.00000000000E+00  0.11051953229E+03  0.11051953229E+03  0.00000000000E+00 0. -1.
         -1   -1    0    0    0  501 -0.00000000000E+00 -0.00000000000E+00 -0.13094781145E+03  0.13094781145E+03  0.00000000000E+00 0.  1.
         25    2    1    2    0    0 -0.10546272930E+02  0.28228405755E+02  0.32240032285E+02  0.13264575339E+03  0.12508960567E+03 0.  0.
          5    1    3    3  502    0 -0.31461622952E+02  0.51741901269E+02  0.63673407888E+02  0.87970639067E+02  0.41800000000E+01 0.  1.
         -5    1    3    3    0  502  0.20915350022E+02 -0.23513495514E+02 -0.31433375603E+02  0.44675114321E+02  0.41800000000E+01 0.  1.
        -11    1    1    2    0    0 -0.14691081738E+02 -0.13782539150E+02  0.21315519952E+02  0.29328103568E+02  0.00000000000E+00 0. -1.
         11    1    1    2    0    0  0.25237354668E+02 -0.14445866605E+02 -0.73983831403E+02  0.79493486788E+02  0.00000000000E+00 0.  1.
</event>
<event>
 7    1  0.2690635E-009  0.1126490E+03  0.7561462E-02  0.1255742E+00
          2   -1    0    0  501    0  0.00000000000E+00  0.00000000000E+00  0.41476786891E+03  0.41476786891E+03  0.00000000000E+00 0.  1.
         -2   -1    0    0    0  501 -0.00000000000E+00 -0.00000000000E+00 -0.44555294804E+02  0.44555294804E+02  0.00000000000E+00 0. -1.
         25    2    1    2    0    0 -0.53152142742E+02  0.14041510417E+02  0.10208457368E+03  0.17056140569E+03  0.12509044182E+03 0.  0.
          5    1    3    3  502    0  0.38912338418E+02  0.57140316805E+01  0.11788061341E+02  0.41270461948E+02  0.41800000000E+01 0.  1.
         -5    1    3    3    0  502 -0.92064481160E+02  0.83274787365E+01  0.90296512340E+02  0.12929094374E+03  0.41800000000E+01 0.  1.
        -11    1    1    2    0    0  0.48292078838E+02  0.24647935444E+02  0.22119860755E+03  0.22774650290E+03  0.00000000000E+00 0.  1.
         11    1    1    2    0    0  0.48600639043E+01 -0.38689445861E+02  0.46929392872E+02  0.61015255121E+02  0.00000000000E+00 0. -1.
</event>
<event>
 7    1  0.2690635E-009  0.2053065E+03  0.7561462E-02  0.1145338E+00
          1   -1    0    0  501    0  0.00000000000E+00  0.00000000000E+00  0.99217413769E+03  0.99217413769E+03  0.00000000000E+00 0. -1.
         -1   -1    0    0    0  501 -0.00000000000E+00 -0.00000000000E+00 -0.51788108943E+02  0.51788108943E+02  0.00000000000E+00 0.  1.
         25    2    1    2    0    0  0.50511036105E+01  0.19694080623E+03  0.54432303123E+03  0.59223883564E+03  0.12509229114E+03 0.  0.
          5    1    3    3  502    0 -0.12537517564E+02  0.16326340950E+03  0.27399781551E+03  0.31922469442E+03  0.41800000000E+01 0. -1.
         -5    1    3    3    0  502  0.17588621175E+02  0.33677396728E+02  0.27032521573E+03  0.27301414121E+03  0.41800000000E+01 0. -1.
        -11    1    1    2    0    0  0.31232471648E+02 -0.11090179539E+03  0.15441761874E+03  0.19266415464E+03  0.00000000000E+00 0.  1.
         11    1    1    2    0    0 -0.36283575258E+02 -0.86039010838E+02  0.24164537878E+03  0.25905925636E+03  0.00000000000E+00 0. -1.
</event>
<event>
 7    1  0.2690635E-009  0.1582521E+03  0.7561462E-02  0.1190684E+00
         -2   -1    0    0    0  501 -0.00000000000E+00  0.00000000000E+00  0.70556480967E+03  0.70556480967E+03  0.00000000000E+00 0.  1.
          2   -1    0    0  501    0  0.00000000000E+00 -0.00000000000E+00 -0.47108723729E+02  0.47108723729E+02  0.00000000000E+00 0. -1.
         25    2    1    2    0    0 -0.14200065347E+03 -0.23558264012E+02  0.39997727754E+03  0.44311257680E+03  0.12509099002E+03 0.  0.
          5    1    3    3  502    0  0.12117062211E+02 -0.93303952060E+01  0.18781311898E+01  0.15964938086E+02  0.41800000000E+01 0.  1.
         -5    1    3    3    0  502 -0.15411771568E+03 -0.14227868806E+02  0.39809914635E+03  0.42714763871E+03  0.41800000000E+01 0.  1.
        -11    1    1    2    0    0  0.95890910890E+02  0.47075381950E+01  0.82231063526E+02  0.12640876360E+03  0.00000000000E+00 0. -1.
         11    1    1    2    0    0  0.46109742577E+02  0.18850725817E+02  0.17624774488E+03  0.18315219300E+03  0.00000000000E+00 0.  1.
</event>
<event>
 7    1  0.2827610E-009  0.1561615E+03  0.7561462E-02  0.1193100E+00
         -1   -1    0    0    0  501 -0.00000000000E+00  0.00000000000E+00  0.55610779457E+03  0.55610779457E+03  0.00000000000E+00 0.  1.
          1   -1    0    0  501    0  0.00000000000E+00 -0.00000000000E+00 -0.57029042471E+02  0.57029042471E+02  0.00000000000E+00 0. -1.
         25    2    1    2    0    0  0.40028599695E+02  0.10616226644E+03  0.40744575189E+03  0.44106116518E+03  0.12510073978E+03 0.  0.
          5    1    3    3  502    0  0.47449383505E+02 -0.11456859781E+02  0.90888475418E+02  0.10325159076E+03  0.41800000000E+01 0. -1.
         -5    1    3    3    0  502 -0.74207838101E+01  0.11761912623E+03  0.31655727647E+03  0.33780957442E+03  0.41800000000E+01 0. -1.
        -11    1    1    2    0    0  0.26266904712E+02 -0.57344445888E+02  0.34834928005E+02  0.72054201588E+02  0.00000000000E+00 0.  1.
         11    1    1    2    0    0 -0.66295504407E+02 -0.48817820557E+02  0.56798072212E+02  0.10002147027E+03  0.00000000000E+00 0. -1.
</event>
<event>
 7    1  0.2690635E-009  0.1780012E+03  0.7561462E-02  0.1169752E+00
         -3   -1    0    0    0  501 -0.00000000000E+00  0.00000000000E+00  0.63257456248E+02  0.63257456248E+02  0.00000000000E+00 0.  1.
          3   -1    0    0  501    0  0.00000000000E+00 -0.00000000000E+00 -0.66290343520E+03  0.66290343520E+03  0.00000000000E+00 0. -1.
         25    2    1    2    0    0 -0.76986570059E+01 -0.15613332698E+03 -0.44460938973E+03  0.48760712884E+03  0.12508524114E+03 0.  0.
          5    1    3    3  502    0  0.18424862307E+02  0.37947126307E+01 -0.62860507215E+01  0.20269736768E+02  0.41800000000E+01 0. -1.
         -5    1    3    3    0  502 -0.26123519313E+02 -0.15992803961E+03 -0.43832333901E+03  0.46733739208E+03  0.41800000000E+01 0. -1.
        -11    1    1    2    0    0  0.40207326153E+02  0.53194855446E+02 -0.91747444812E+02  0.11341920187E+03  0.00000000000E+00 0. -1.
         11    1    1    2    0    0 -0.32508669147E+02  0.10293847153E+03 -0.63289144414E+02  0.12513456074E+03  0.00000000000E+00 0.  1.
</event>
<event>
 7    1  0.2690635E-009  0.1071139E+03  0.7561462E-02  0.1266010E+00
         -2   -1    0    0    0  501 -0.00000000000E+00  0.00000000000E+00  0.62291067322E+02  0.62291067322E+02  0.00000000000E+00 0.  1.
          2   -1    0    0  501    0  0.00000000000E+00 -0.00000000000E+00 -0.34659443169E+03  0.34659443169E+03  0.00000000000E+00 0. -1.
         25    2    1    2    0    0  0.55555320914E+02  0.20695818271E+02 -0.45591566385E+02  0.14575289775E+03  0.12510238088E+03 0.  0.
          5    1    3    3  502    0  0.37630029563E+02 -0.41128712252E+02 -0.57456746306E+02  0.80164457165E+02  0.41800000000E+01 0. -1.
         -5    1    3    3    0  502  0.17925291351E+02  0.61824530524E+02  0.11865179921E+02  0.65588440590E+02  0.41800000000E+01 0. -1.
        -11    1    1    2    0    0 -0.50707771325E+00  0.23327313559E+02 -0.13945872766E+03  0.14139716195E+03  0.00000000000E+00 0. -1.
         11    1    1    2    0    0 -0.55048243201E+02 -0.44023131831E+02 -0.99253070318E+02  0.12173543931E+03  0.00000000000E+00 0.  1.
</event>
<event>
 7    1  0.2690635E-009  0.1176583E+03  0.7561462E-02  0.1247011E+00
          2   -1    0    0  501    0  0.00000000000E+00  0.00000000000E+00  0.83615347662E+03  0.83615347662E+03  0.00000000000E+00 0. -1.
         -2   -1    0    0    0  501 -0.00000000000E+00 -0.00000000000E+00 -0.20453128893E+02  0.20453128893E+02  0.00000000000E+00 0.  1.
         25    2    1    2    0    0  0.61944202864E+02  0.64786209858E+02  0.62405832093E+03  0.64275225852E+03  0.12508933072E+03 0.  0.
          5    1    3    3  502    0 -0.26318504214E+02  0.44344583884E+02  0.35663476161E+03  0.36036777239E+03  0.41800000000E+01 0.  1.
         -5    1    3    3    0  502  0.88262707078E+02  0.20441625973E+02  0.26742355931E+03  0.28238448613E+03  0.41800000000E+01 0.  1.
        -11    1    1    2    0    0 -0.15405594865E+02 -0.33316014403E+02  0.55101841298E+02  0.66208021292E+02  0.00000000000E+00 0.  1.
         11    1    1    2    0    0 -0.46538607999E+02 -0.31470195455E+02  0.13654018550E+03  0.14764632570E+03  0.00000000000E+00 0. -1.
</event>
<event>
 7    1  0.2690635E-009  0.1111123E+03  0.7561462E-02  0.1258524E+00
          1   -1    0    0  501    0  0.00000000000E+00  0.00000000000E+00  0.22984449202E+03  0.22984449202E+03  0.00000000000E+00 0. -1.
         -1   -1    0    0    0  501 -0.00000000000E+00 -0.00000000000E+00 -0.62255650624E+02  0.62255650624E+02  0.00000000000E+00 0.  1.
         25    2    1    2    0    0  0.30110845922E+02 -0.37374577571E+02  0.91667365293E+02  0.16233907473E+03  0.12509015642E+03 0.  0.
          5    1    3    3  502    0  0.20406855881E+02  0.41685666605E+02  0.61274568216E+02  0.76981684038E+02  0.41800000000E+01 0.  1.
         -5    1    3    3    0  502  0.97039900417E+01 -0.79060244176E+02  0.30392797076E+02  0.85357390694E+02  0.41800000000E+01 0.  1.
        -11    1    1    2    0    0 -0.13558916987E+01 -0.26121804083E+02  0.48016777713E+02  0.54679045646E+02  0.00000000000E+00 0.  1.
         11    1    1    2    0    0 -0.28754954223E+02  0.63496381654E+02  0.27904698394E+02  0.75082022269E+02  0.00000000000E+00 0. -1.
</event>
<event>
 7    1  0.2690635E-009  0.1977029E+03  0.7561462E-02  0.1151692E+00
         -3   -1    0    0    0  501 -0.00000000000E+00  0.00000000000E+00  0.39339135618E+02  0.39339135618E+02  0.00000000000E+00 0.  1.
          3   -1    0    0  501    0  0.00000000000E+00 -0.00000000000E+00 -0.10472761957E+04  0.10472761957E+04  0.00000000000E+00 0. -1.
         25    2    1    2    0    0  0.10503064549E+03  0.13242168625E+03 -0.59812586846E+03  0.63401054714E+03  0.12509148602E+03 0.  0.
          5    1    3    3  502    0  0.46364689314E+02  0.13951496401E+03 -0.36603500887E+03  0.39447840210E+03  0.41800000000E+01 0. -1.
         -5    1    3    3    0  502  0.58665956176E+02 -0.70932777636E+01 -0.23209085959E+03  0.23953214504E+03  0.41800000000E+01 0. -1.
        -11    1    1    2    0    0  0.12246346520E+02 -0.33480974416E+02 -0.49668678973E+02  0.61138582923E+02  0.00000000000E+00 0.  1.
         11    1    1    2    0    0 -0.11727699201E+03 -0.98940711834E+02 -0.36014251266E+03  0.39146620127E+03  0.00000000000E+00 0. -1.
</event>
<event>
 7    1  0.2690635E-009  0.1609819E+03  0.7561462E-02  0.1187593E+00
          2   -1    0    0  501    0  0.00000000000E+00  0.00000000000E+00  0.47724545532E+03  0.47724545532E+03  0.00000000000E+00 0. -1.
         -2   -1    0    0    0  501 -0.00000000000E+00 -0.00000000000E+00 -0.10098544560E+03  0.10098544560E+03  0.00000000000E+00 0.  1.
         25    2    1    2    0    0  0.10230494259E+03 -0.99801468572E+02  0.29568901340E+02  0.19222218501E+03  0.12509362124E+03 0.  0.
          5    1    3    3  502    0  0.16501284611E+02  0.14224215347E+02  0.43449602746E+02  0.48784844725E+02  0.41800000000E+01 0. -1.
         -5    1    3    3    0  502  0.85803657982E+02 -0.11402568392E+03 -0.13880701406E+02  0.14343734028E+03  0.41800000000E+01 0. -1.
        -11    1    1    2    0    0 -0.43272509312E+02  0.26721561719E+01  0.17362446364E+03  0.17895559464E+03  0.00000000000E+00 0.  1.
         11    1    1    2    0    0 -0.59032433281E+02  0.97129312401E+02  0.17306664474E+03  0.20705312127E+03  0.00000000000E+00 0. -1.
</event>
<event>
 7    1  0.2993278E-009  0.8454722E+02  0.7561462E-02  0.1316621E+00
         -3   -1    0    0    0  501 -0.00000000000E+00  0.00000000000E+00  0.45276078635E+02  0.45276078635E+02  0.00000000000E+00 0.  1.
          3   -1    0    0  501    0  0.00000000000E+00 -0.00000000000E+00 -0.35886498676E+03  0.35886498676E+03  0.00000000000E+00 0. -1.
         25    2    1    2    0    0  0.17142413751E+02  0.17500413072E+02 -0.27251141835E+03  0.30084974978E+03  0.12509185429E+03 0.  0.
          5    1    3    3  502    0  0.44705784253E+02  0.19431836959E+02 -0.26813714265E+03  0.27256412659E+03  0.41800000000E+01 0.  1.
         -5    1    3    3    0  502 -0.27563370502E+02 -0.19314238878E+01 -0.43742756925E+01  0.28285623195E+02  0.41800000000E+01 0.  1.
        -11    1    1    2    0    0  0.31367274431E+01  0.35416064767E+02 -0.44894427455E+01  0.35837017158E+02  0.00000000000E+00 0.  1.
         11    1    1    2    0    0 -0.20279141194E+02 -0.52916477838E+02 -0.36588047039E+02  0.67454298458E+02  0.00000000000E+00 0. -1.
</event>
<event>
 7    1  0.2690635E-009  0.9280061E+02  0.7561462E-02  0.1296208E+00
         -2   -1    0    0    0  501 -0.00000000000E+00  0.00000000000E+00  0.18616497443E+03  0.18616497443E+03  0.00000000000E+00 0.  1.
          2   -1    0    0  501    0  0.00000000000E+00 -0.00000000000E+00 -0.73515710245E+02  0.73515710245E+02  0.00000000000E+00 0. -1.
         25    2    1    2    0    0 -0.10739134278E+02  0.34503664639E+02  0.66092226813E+02  0.14601849516E+03  0.12508951437E+03 0.  0.
          5    1    3    3  502    0 -0.67210222215E+02  0.12152737979E+02  0.43502105379E+02  0.81085193365E+02  0.41800000000E+01 0. -1.
         -5    1    3    3    0  502  0.56471087937E+02  0.22350926660E+02  0.22590121435E+02  0.64933301794E+02  0.41800000000E+01 0. -1.
        -11    1    1    2    0    0  0.27211926875E+02 -0.16189404911E+02  0.71751165073E+02  0.78427134877E+02  0.00000000000E+00 0.  1.
         11    1    1    2    0    0 -0.16472792597E+02 -0.18314259728E+02 -0.25194127697E+02  0.35235054644E+02  0.00000000000E+00 0. -1.
</event>
<event>
 7    1  0.2690635E-009  0.1410833E+03  0.7561462E-02  0.1211879E+00
         -2   -1    0    0    0  501 -0.00000000000E+00  0.00000000000E+00  0.36271539963E+03  0.36271539963E+03  0.00000000000E+00 0.  1.
          2   -1    0    0  501    0  0.00000000000E+00 -0.00000000000E+00 -0.81229769433E+02  0.81229769433E+02  0.00000000000E+00 0. -1.
         25    2    1    2    0    0 -0.13165562873E+03 -0.10125204572E+02  0.15711837513E+03  0.24035319628E+03  0.12509097016E+03 0.  0.
          5    1    3    3  502    0 -0.42826335658E+02  0.11869890303E+00 -0.15637058633E+02  0.45783175054E+02  0.41800000000E+01 0.  1.
         -5    1    3    3    0  502 -0.88829293072E+02 -0.10243903475E+02  0.17275543376E+03  0.19457002123E+03  0.41800000000E+01 0.  1.
        -11    1    1    2    0    0  0.72095975027E+02 -0.29699292805E+02  0.26607408319E+02  0.82388298839E+02  0.00000000000E+00 0. -1.
         11    1    1    2    0    0  0.59559653703E+02  0.39824497377E+02  0.97759846754E+02  0.12120367395E+03  0.00000000000E+00 0.  1.
</event>
<event>
 7    1  0.2690635E-009  0.1204247E+03  0.7561462E-02  0.1242398E+00
         -4   -1    0    0    0  501 -0.00000000000E+00  0.00000000000E+00  0.15524159002E+03  0.15524159002E+03  0.00000000000E+00 0.  1.
          4   -1    0    0  501    0  0.00000000000E+00 -0.00000000000E+00 -0.11273556764E+03  0.11273556764E+03  0.00000000000E+00 0. -1.
         25    2    1    2    0    0  0.70430292514E+02  0.14250817294E+02  0.47977258798E+02  0.15203011169E+03  0.12509126909E+03 0.  0.
          5    1    3    3  502    0  0.92596824411E+01  0.62064057423E+02  0.47496407700E+01  0.63069171789E+02  0.41800000000E+01 0.  1.
         -5    1    3    3    0  502  0.61170610073E+02 -0.47813240129E+02  0.43227618028E+02  0.88960939905E+02  0.41800000000E+01 0.  1.
        -11    1    1    2    0    0 -0.58795092959E+02 -0.40567940916E+02  0.23417306828E+02  0.75173073938E+02  0.00000000000E+00 0.  1.
         11    1    1    2    0    0 -0.11635199554E+02  0.26317123622E+02 -0.28888543247E+02  0.40773972033E+02  0.00000000000E+00 0. -1.
</event>
<event>
 7    1  0.2690635E-009  0.9895818E+02  0.7561462E-02  0.1282502E+00
         -4   -1    0    0    0  501 -0.00000000000E+00  0.00000000000E+00  0.79591742396E+02  0.79591742396E+02  0.00000000000E+00 0.  1.
          4   -1    0    0  501    0  0.00000000000E+00 -0.00000000000E+00 -0.15395924797E+03  0.15395924797E+03  0.00000000000E+00 0. -1.
         25    2    1    2    0    0  0.19876949814E+02 -0.71537282596E+01 -0.58309612865E+02  0.13962107572E+03  0.12509102634E+03 0.  0.
          5    1    3    3  502    0  0.43389999775E+02  0.49100058163E+02 -0.32840511918E+02  0.73413073871E+02  0.41800000000E+01 0. -1.
         -5    1    3    3    0  502 -0.23513049961E+02 -0.56253786423E+02 -0.25469100947E+02  0.66208001846E+02  0.41800000000E+01 0. -1.
        -11    1    1    2    0    0  0.22935892730E+02 -0.10003273976E+02  0.22623917336E+02  0.33733696821E+02  0.00000000000E+00 0.  1.
         11    1    1    2    0    0 -0.42812842545E+02  0.17157002236E+02 -0.38681810043E+02  0.60196217827E+02  0.00000000000E+00 0. -1.
</event>
<event>
 7    1  0.2690635E-009  0.8410347E+02  0.7561462E-02  0.1317794E+00
         -1   -1    0    0    0  501 -0.00000000000E+00  0.00000000000E+00  0.29829697286E+02  0.29829697286E+02  0.00000000000E+00 0.  1.
          1   -1    0    0  501    0  0.00000000000E+00 -0.00000000000E+00 -0.60319389143E+03  0.60319389143E+03  0.00000000000E+00 0. -1.
         25    2    1    2    0    0 -0.15489141298E+02 -0.58057541868E+02 -0.44005588256E+03  0.46142053051E+03  0.12509650091E+03 0.  0.
          5    1    3    3  502    0  0.12562845925E+02 -0.13502713914E+02 -0.72338229205E+00  0.18924694521E+02  0.41800000000E+01 0. -1.
         -5    1    3    3    0  502 -0.28051987223E+02 -0.44554827955E+02 -0.43933250026E+03  0.44249583599E+03  0.41800000000E+01 0. -1.
        -11    1    1    2    0    0  0.46263863031E+02  0.33835655905E+02 -0.38561115590E+02  0.69080795223E+02  0.00000000000E+00 0.  1.
         11    1    1    2    0    0 -0.30774721733E+02  0.24221885963E+02 -0.94747196002E+02  0.10252226299E+03  0.00000000000E+00 0. -1.
</event>
<event>
 7    1  0.2690635E-009  0.1295141E+03  0.7561462E-02  0.1228178E+00
          2   -1    0    0  501    0  0.00000000000E+00  0.00000000000E+00  0.24126992692E+04  0.24126992692E+04  0.00000000000E+00 0. -1.
         -2   -1    0    0    0  501 -0.00000000000E+00 -0.00000000000E+00 -0.87058792614E+01  0.87058792614E+01  0.00000000000E+00 0.  1.
         25    2    1    2    0    0  0.74654288749E+02  0.22491288940E+02  0.16921212366E+04  0.16985302972E+04  0.12510703445E+03 0.  0.
          5    1    3    3  502    0  0.98936382652E+02 -0.15593512587E+01  0.85768110874E+03  0.86338009942E+03  0.41800000000E+01 0. -1.
         -5    1    3    3    0  502 -0.24282093903E+02  0.24050640199E+02  0.83444012787E+03  0.83515019773E+03  0.41800000000E+01 0. -1.
        -11    1    1    2    0    0 -0.76096495984E+02  0.23425395421E+02  0.43864528301E+03  0.44581286451E+03  0.00000000000E+00 0.  1.
         11    1    1    2    0    0  0.14422072355E+01 -0.45916684361E+02  0.27322687031E+03  0.27706198679E+03  0.00000000000E+00 0. -1.
</event>
<event>
 7    1  0.2690635E-009  0.7882766E+02  0.7561462E-02  0.1332412E+00
         -1   -1    0    0    0  501 -0.00000000000E+00  0.00000000000E+00  0.23923242043E+03  0.23923242043E+03  0.00000000000E+00 0. -1.
          1   -1    0    0  501    0  0.00000000000E+00 -0.00000000000E+00 -0.51100542391E+02  0.51100542391E+02  0.00000000000E+00 0.  1.
         25    2    1    2    0    0  0.55482743172E+01  0.90980095943E+01  0.13524333482E+03  0.18453155356E+03  0.12509027748E+03 0.  0.
          5    1    3    3  502    0 -0.29623030771E+02  0.44681925711E+02  0.17528887615E+02  0.56557340269E+02  0.41800000000E+01 0.  1.
         -5    1    3    3    0  502  0.35171305088E+02 -0.35583916117E+02  0.11771444720E+03  0.12797421329E+03  0.41800000000E+01 0.  1.
        -11    1    1    2    0    0 -0.18211912065E+02  0.16844779938E+02  0.68590497457E+02  0.72938855856E+02  0.00000000000E+00 0. -1.
         11    1    1    2    0    0  0.12663637748E+02 -0.25942789532E+02 -0.15701954231E+02  0.32862553407E+02  0.00000000000E+00 0.  1.
</event>
<event>
 7    1  0.2690635E-009  0.1187781E+03  0.7561462E-02  0.1245126E+00
          1   -1    0    0  501    0  0.00000000000E+00  0.00000000000E+00  0.87454954595E+03  0.87454954595E+03  0.00000000000E+00 0. -1.
         -1   -1    0    0    0  501 -0.00000000000E+00 -0.00000000000E+00 -0.27841930733E+02  0.27841930733E+02  0.00000000000E+00 0.  1.
         25    2    1    2    0    0 -0.59257350660E+02 -0.81892401301E+02  0.56468234218E+03  0.58713415704E+03  0.12507026741E+03 0.  0.
          5    1    3    3  502    0 -0.20735954437E+02 -0.65082462718E+02  0.52413871936E+03  0.52858734027E+03  0.41800000000E+01 0.  1.
         -5    1    3    3    0  502 -0.38521396223E+02 -0.16809938583E+02  0.40543622818E+02  0.58546816765E+02  0.41800000000E+01 0.  1.
        -11    1    1    2    0    0  0.68849776531E+02  0.31721342462E+02  0.95860120156E+02  0.12221169311E+03  0.00000000000E+00 0.  1.
         11    1    1    2    0    0 -0.95924258712E+01  0.50171058838E+02  0.18616515288E+03  0.19304562654E+03  0.00000000000E+00 0. -1.
</event>
<event>
 7    1  0.2690635E-009  0.1200417E+03  0.7561462E-02  0.1243028E+00
         -1   -1    0    0    0  501 -0.00000000000E+00  0.00000000000E+00  0.86228473883E+03  0.86228473883E+03  0.00000000000E+00 0.  1.
          1   -1    0    0  501    0  0.00000000000E+00 -0.00000000000E+00 -0.19312092607E+02  0.19312092607E+02  0.00000000000E+00 0. -1.
         25    2    1    2    0    0 -0.40389654873E+02 -0.51380342288E+02  0.39875969430E+03  0.42299982554E+03  0.12509314457E+03 0.  0.
          5    1    3    3  502    0  0.24289298415E+02  0.18630678739E+02  0.20177779587E+03  0.20412942834E+03  0.41800000000E+01 0. -1.
         -5    1    3    3    0  502 -0.64678953288E+02 -0.70011021027E+02  0.19698189843E+03  0.21887039720E+03  0.41800000000E+01 0. -1.
        -11    1    1    2    0    0  0.53487648898E+02 -0.70052967939E+01  0.19794648220E+03  0.20516532988E+03  0.00000000000E+00 0. -1.
         11    1    1    2    0    0 -0.13097994025E+02  0.58385639082E+02  0.24626646973E+03  0.25343167602E+03  0.00000000000E+00 0.  1.
</event>
<event>
 7    1  0.2690635E-009  0.1178582E+03  0.7561462E-02  0.1246673E+00
         -2   -1    0    0    0  501 -0.00000000000E+00  0.00000000000E+00  0.54418906051E+02  0.54418906051E+02  0.00000000000E+00 0.  1.
          2   -1    0    0  501    0  0.00000000000E+00 -0.00000000000E+00 -0.32022412538E+03  0.32022412538E+03  0.00000000000E+00 0. -1.
         25    2    1    2    0    0 -0.44840559268E+02  0.15663903490E+02 -0.66688412367E+02  0.14950176589E+03  0.12508956804E+03 0.  0.
          5    1    3    3  502    0  0.66601759328E+01  0.62836593616E+02 -0.38223412186E+02  0.73968216687E+02  0.41800000000E+01 0. -1.
         -5    1    3    3    0  502 -0.51500735201E+02 -0.47172690125E+02 -0.28465000181E+02  0.75533549203E+02  0.41800000000E+01 0. -1.
        -11    1    1    2    0    0  0.72975404405E+02 -0.91576972024E+01 -0.11806980463E+03  0.13910338540E+03  0.00000000000E+00 0.  1.
         11    1    1    2    0    0 -0.28134845137E+02 -0.65062062878E+01 -0.81047002337E+02  0.86037880140E+02  0.00000000000E+00 0. -1.
</event>
<event>
 7    1  0.2690635E-009  0.2140592E+03  0.7561462E-02  0.1138391E+00
          1   -1    0    0  501    0  0.00000000000E+00  0.00000000000E+00  0.29331382952E+03  0.29331382952E+03  0.00000000000E+00 0. -1.
         -1   -1    0    0    0  501 -0.00000000000E+00 -0.00000000000E+00 -0.16133833040E+03  0.16133833040E+03  0.00000000000E+00 0.  1.
         25    2    1    2    0    0 -0.14604861558E+02 -0.18622500020E+03  0.48378025495E+02  0.22995660187E+03  0.12508618113E+03 0.  0.
          5    1    3    3  502    0 -0.68984166775E+02 -0.83186671208E+02  0.20252101154E+02  0.11002934851E+03  0.41800000000E+01 0.  1.
         -5    1    3    3    0  502  0.54379305217E+02 -0.10303832900E+03  0.28125924342E+02  0.11992725336E+03  0.41800000000E+01 0.  1.
        -11    1    1    2    0    0  0.44037940703E+02  0.64135153968E+02  0.82399332875E+01  0.78233974055E+02  0.00000000000E+00 0.  1.
         11    1    1    2    0    0 -0.29433079145E+02  0.12208984624E+03  0.75357540340E+02  0.14646158400E+03  0.00000000000E+00 0. -1.
</event>
<event>
 7    1  0.2690635E-009  0.1485559E+03  0.7561462E-02  0.1202259E+00
          1   -1    0    0  501    0  0.00000000000E+00  0.00000000000E+00  0.11884528242E+03  0.11884528242E+03  0.00000000000E+00 0. -1.
         -1   -1    0    0    0  501 -0.00000000000E+00 -0.00000000000E+00 -0.26571625859E+03  0.26571625859E+03  0.00000000000E+00 0.  1.
         25    2    1    2    0    0  0.11663042012E+03 -0.73325200574E+02 -0.10845292602E+03  0.21538234684E+03  0.12509307827E+03 0.  0.
          5    1    3    3  502    0  0.91124132681E+02 -0.20794306956E+02 -0.16369855889E+01  0.93574370853E+02  0.41800000000E+01 0.  1.
         -5    1    3    3    0  502  0.25506287434E+02 -0.52530893618E+02 -0.10681594043E+03  0.12180797599E+03  0.41800000000E+01 0.  1.
        -11    1    1    2    0    0 -0.10063718301E+03  0.40478012375E+02  0.95393379987E+01  0.10889128092E+03  0.00000000000E+00 0. -1.
         11    1    1    2    0    0 -0.15993237102E+02  0.32847188199E+02 -0.47957388146E+02  0.60287913245E+02  0.00000000000E+00 0.  1.
</event>
<event>
 7    1  0.2690635E-009  0.1922868E+03  0.7561462E-02  0.1156415E+00
          1   -1    0    0  501    0  0.00000000000E+00  0.00000000000E+00  0.54596367611E+02  0.54596367611E+02  0.00000000000E+00 0. -1.
         -1   -1    0    0    0  501 -0.00000000000E+00 -0.00000000000E+00 -0.78566944955E+03  0.78566944955E+03  0.00000000000E+00 0.  1.
         25    2    1    2    0    0 -0.14068806825E+03 -0.96880560087E+02 -0.30468050254E+03  0.37101621723E+03  0.12507537469E+03 0.  0.
          5    1    3    3  502    0 -0.86535776564E+02  0.50540366810E+01 -0.18683441380E+03  0.20600620013E+03  0.41800000000E+01 0.  1.
         -5    1    3    3    0  502 -0.54152291682E+02 -0.10193459677E+03 -0.11784608873E+03  0.16501001710E+03  0.41800000000E+01 0.  1.
        -11    1    1    2    0    0 -0.62114262219E+01  0.95436688418E+01 -0.17679626425E+01  0.11523416272E+02  0.00000000000E+00 0. -1.
         11    1    1    2    0    0  0.14689949447E+03  0.87336891245E+02 -0.42462461676E+03  0.45772618365E+03  0.00000000000E+00 0.  1.
</event>
<event>
 7    1  0.2690635E-009  0.3019034E+03  0.7561462E-02  0.1084293E+00
         -2   -1    0    0    0  501 -0.00000000000E+00  0.00000000000E+00  0.12235817281E+03  0.12235817281E+03  0.00000000000E+00 0.  1.
          2   -1    0    0  501    0  0.00000000000E+00 -0.00000000000E+00 -0.93290445409E+03  0.93290445409E+03  0.00000000000E+00 0. -1.
         25    2    1    2    0    0 -0.21297239193E+03 -0.20466754103E+03 -0.22094901314E+03  0.38950165598E+03  0.12508809508E+03 0.  0.
          5    1    3    3  502    0 -0.58504117929E+02 -0.43504064744E+02 -0.12858889079E+03  0.14787802642E+03  0.41800000000E+01 0. -1.
         -5    1    3    3    0  502 -0.15446827400E+03 -0.16116347628E+03 -0.92360122347E+02  0.24162362956E+03  0.41800000000E+01 0. -1.
        -11    1    1    2    0    0  0.17630555457E+03  0.11464492795E+03 -0.43454018852E+03  0.48275488969E+03  0.00000000000E+00 0. -1.
         11    1    1    2    0    0  0.36666837367E+02  0.90022613073E+02 -0.15505707962E+03  0.18300608123E+03  0.00000000000E+00 0.  1.
</event>
<event>
 7    1  0.2690635E-009  0.1503303E+03  0.7561462E-02  0.1200068E+00
         -2   -1    0    0    0  501 -0.00000000000E+00  0.00000000000E+00  0.20585316706E+02  0.20585316706E+02  0.00000000000E+00 0.  1.
          2   -1    0    0  501    0  0.00000000000E+00 -0.00000000000E+00 -0.13937069198E+04  0.13937069198E+04  0.00000000000E+00 0. -1.
         25    2    1    2    0    0 -0.87539458263E+02  0.84298325451E+02 -0.92334736259E+03  0.93967525001E+03  0.12509939669E+03 0.  0.
          5    1    3    3  502    0 -0.94419350635E+02  0.36804324536E+02 -0.81259613589E+03  0.81890141320E+03  0.41800000000E+01 0. -1.
         -5    1    3    3    0  502  0.68798923720E+01  0.47494000915E+02 -0.11075122670E+03  0.12077383681E+03  0.41800000000E+01 0. -1.
        -11    1    1    2    0    0 -0.15701143455E+02  0.28513974140E+01 -0.37012590407E+02  0.40306180936E+02  0.00000000000E+00 0.  1.
         11    1    1    2    0    0  0.10324060172E+03 -0.87149722865E+02 -0.41276165014E+03  0.43431080560E+03  0.00000000000E+00 0. -1.
</event>
<event>
 7    1  0.2690635E-009  0.2523347E+03  0.7561462E-02  0.1111838E+00
          2   -1    0    0  501    0  0.00000000000E+00  0.00000000000E+00  0.97560766298E+03  0.97560766298E+03  0.00000000000E+00 0.  1.
         -2   -1    0    0    0  501 -0.00000000000E+00 -0.00000000000E+00 -0.79376904987E+02  0.79376904987E+02  0.00000000000E+00 0. -1.
         25    2    1    2    0    0  0.23308644161E+03  0.57086545402E+02  0.29366821515E+03  0.39934526115E+03  0.12508978411E+03 0.  0.
          5    1    3    3  502    0  0.85054990257E+02  0.75771606547E+02  0.82331833797E+02  0.14061184510E+03  0.41800000000E+01 0. -1.
         -5    1    3    3    0  502  0.14803145135E+03 -0.18685061145E+02  0.21133638135E+03  0.25873341605E+03  0.41800000000E+01 0. -1.
        -11    1    1    2    0    0 -0.20047356613E+03 -0.39369820561E+02  0.57254881059E+03  0.60790770187E+03  0.00000000000E+00 0.  1.
         11    1    1    2    0    0 -0.32612875484E+02 -0.17716724841E+02  0.30013732257E+02  0.47731604943E+02  0.00000000000E+00 0. -1.
</event>
<event>
 7    1  0.2690635E-009  0.1116349E+03  0.7561462E-02  0.1257572E+00
          2   -1    0    0  501    0  0.00000000000E+00  0.00000000000E+00  0.58329965653E+02  0.58329965653E+02  0.00000000000E+00 0. -1.
         -2   -1    0    0    0  501 -0.00000000000E+00 -0.00000000000E+00 -0.23786457031E+03  0.23786457031E+03  0.00000000000E+00 0.  1.
         25    2    1    2    0    0 -0.36344930650E+02 -0.27299961680E+02 -0.96953265630E+02  0.16466150117E+03  0.12508889783E+03 0.  0.
          5    1    3    3  502    0 -0.55310044062E+02  0.32664067427E+02 -0.25128090300E+02  0.69101632377E+02  0.41800000000E+01 0. -1.
         -5    1    3    3    0  502  0.18965113412E+02 -0.59964029107E+02 -0.71825175329E+02  0.95559868797E+02  0.41800000000E+01 0. -1.
        -11    1    1    2    0    0 -0.81332162658E+01  0.46657146716E+02 -0.63932777919E+02  0.79564053686E+02  0.00000000000E+00 0.  1.
         11    1    1    2    0    0  0.44478146915E+02 -0.19357185036E+02 -0.18648561110E+02  0.51968981104E+02  0.00000000000E+00 0. -1.
</event>
<event>
 7    1  0.2690635E-009  0.9726675E+02  0.7561462E-02  0.1286151E+00
          4   -1    0    0  501    0  0.00000000000E+00  0.00000000000E+00  0.31772841969E+02  0.31772841969E+02  0.00000000000E+00 0.  1.
         -4   -1    0    0    0  501 -0.00000000000E+00 -0.00000000000E+00 -0.39950591587E+03  0.39950591587E+03  0.00000000000E+00 0. -1.
         25    2    1    2    0    0 -0.21160208451E+02  0.76869081764E+01 -0.24440071089E+03  0.27548310482E+03  0.12510951434E+03 0.  0.
          5    1    3    3  502    0 -0.14870844377E+02 -0.44302789658E+02 -0.20367989876E+03  0.20901400131E+03  0.41800000000E+01 0.  1.
         -5    1    3    3    0  502 -0.62893640744E+01  0.51989697834E+02 -0.40720812132E+02  0.66469103514E+02  0.41800000000E+01 0.  1.
        -11    1    1    2    0    0 -0.33369734569E+02  0.14272942703E+02 -0.50780551795E+02  0.62417309452E+02  0.00000000000E+00 0.  1.
         11    1    1    2    0    0  0.54529943020E+02 -0.21959850880E+02 -0.72551811216E+02  0.93378343566E+02  0.00000000000E+00 0. -1.
</event>
<event>
 7    1  0.2690635E-009  0.9493581E+02  0.7561462E-02  0.1291321E+00
          2   -1    0    0  501    0  0.00000000000E+00  0.00000000000E+00  0.77726926916E+02  0.77726926916E+02  0.00000000000E+00 0. -1.
         -2   -1    0    0    0  501 -0.00000000000E+00 -0.00000000000E+00 -0.21431285096E+03  0.21431285096E+03  0.00000000000E+00 0.  1.
         25    2    1    2    0    0 -0.46068207456E+02 -0.12826298625E+02 -0.16092698377E+02  0.13488168573E+03  0.12508917031E+03 0.  0.
          5    1    3    3  502    0 -0.63378683331E+02 -0.24454897705E+02  0.37155593674E+02  0.77542956249E+02  0.41800000000E+01 0.  1.
         -5    1    3    3    0  502  0.17310475875E+02  0.11628599080E+02 -0.53248292051E+02  0.57338729477E+02  0.41800000000E+01 0.  1.
        -11    1    1    2    0    0  0.71391755066E+02  0.20148884886E+02 -0.82903768832E+02  0.11124655114E+03  0.00000000000E+00 0.  1.
         11    1    1    2    0    0 -0.25323547610E+02 -0.73225862609E+01 -0.37589456839E+02  0.45911541017E+02  0.00000000000E+00 0. -1.
</event>
<event>
 7    1  0.2690635E-009  0.1071290E+03  0.7561462E-02  0.1265981E+00
         -2   -1    0    0    0  501 -0.00000000000E+00  0.00000000000E+00  0.70940465815E+02  0.70940465815E+02  0.00000000000E+00 0.  1.
          2   -1    0    0  501    0  0.00000000000E+00 -0.00000000000E+00 -0.25547765278E+03  0.25547765278E+03  0.00000000000E+00 0. -1.
         25    2    1    2    0    0 -0.60294566104E+02  0.71702387553E+00 -0.41774635366E+02  0.14501579648E+03  0.12509401362E+03 0.  0.
          5    1    3    3  502    0 -0.78334084728E+00 -0.39629848338E+02 -0.58776255872E+02  0.71015907771E+02  0.41800000000E+01 0. -1.
         -5    1    3    3    0  502 -0.59511225257E+02  0.40346872214E+02  0.17001620506E+02  0.73999888708E+02  0.41800000000E+01 0. -1.
        -11    1    1    2    0    0  0.73151968797E+02 -0.22975481692E+02 -0.13373851882E+03  0.15415925115E+03  0.00000000000E+00 0. -1.
         11    1    1    2    0    0 -0.12857402693E+02  0.22258457817E+02 -0.90240327814E+01  0.27243070973E+02  0.00000000000E+00 0.  1.
</event>
<event>
 7    1  0.2690635E-009  0.2185783E+03  0.7561462E-02  0.1134947E+00
          1   -1    0    0  501    0  0.00000000000E+00  0.00000000000E+00  0.26568270967E+03  0.26568270967E+03  0.00000000000E+00 0. -1.
         -1   -1    0    0    0  501 -0.00000000000E+00 -0.00000000000E+00 -0.29759761187E+03  0.29759761187E+03  0.00000000000E+00 0.  1.
         25    2    1    2    0    0 -0.82283050131E+02  0.19472418616E+03  0.13349856295E+03  0.27956548819E+03  0.12508791654E+03 0.  0.
          5    1    3    3  502    0 -0.17705382728E+02  0.11211469090E+03  0.50397452179E+01  0.11369281387E+03  0.41800000000E+01 0. -1.
         -5    1    3    3    0  502 -0.64577667402E+02  0.82609495258E+02  0.12845881773E+03  0.16587267432E+03  0.41800000000E+01 0. -1.
        -11    1    1    2    0    0 -0.16592106646E+01 -0.59192384461E+02 -0.81397775718E+01  0.59772463034E+02  0.00000000000E+00 0. -1.
         11    1    1    2    0    0  0.83942260795E+02 -0.13553180170E+03 -0.15727368759E+03  0.22394237032E+03  0.00000000000E+00 0.  1.
</event>
<event>
 7    1  0.2953874E-009  0.1409027E+03  0.7561462E-02  0.1212119E+00
         -1   -1    0    0    0  501 -0.00000000000E+00  0.00000000000E+00  0.16444577295E+03  0.16444577295E+03  0.00000000000E+00 0.  1.
          1   -1    0    0  501    0  0.00000000000E+00 -0.00000000000E+00 -0.19301403401E+03  0.19301403401E+03  0.00000000000E+00 0. -1.
         25    2    1    2    0    0 -0.29533630025E+02  0.11083811488E+03  0.67407542376E+02  0.18261727177E+03  0.12509183894E+03 0.  0.
          5    1    3    3  502    0  0.74964922651E+01 -0.24634606760E+02 -0.14898257497E+01  0.26129547016E+02  0.41800000000E+01 0.  1.
         -5    1    3    3    0  502 -0.37030122290E+02  0.13547272164E+03  0.68897368126E+02  0.15648772476E+03  0.41800000000E+01 0.  1.
        -11    1    1    2    0    0  0.12290761383E+02 -0.27668160621E+02  0.16042369219E+02  0.34262917822E+02  0.00000000000E+00 0.  1.
         11    1    1    2    0    0  0.17242868642E+02 -0.83169954258E+02 -0.11201817266E+03  0.14057961735E+03  0.00000000000E+00 0. -1.
</event>
<event>
 7    1  0.2690635E-009  0.1032953E+03  0.7561462E-02  0.1273515E+00
          2   -1    0    0  501    0  0.00000000000E+00  0.00000000000E+00  0.18007840426E+02  0.18007840426E+02  0.00000000000E+00 0. -1.
         -2   -1    0    0    0  501 -0.00000000000E+00 -0.00000000000E+00 -0.12228102586E+04  0.12228102586E+04  0.00000000000E+00 0.  1.
         25    2    1    2    0    0 -0.32916503654E+02  0.69702221233E+02 -0.92808939031E+03  0.93964750502E+03  0.12508245846E+03 0.  0.
          5    1    3    3  502    0 -0.25910527766E+02  0.17124451178E+01 -0.34223975168E+02  0.43162956267E+02  0.41800000000E+01 0. -1.
         -5    1    3    3    0  502 -0.70059758884E+01  0.67989776116E+02 -0.89386541514E+03  0.89648454875E+03  0.41800000000E+01 0. -1.
        -11    1    1    2    0    0  0.42623901994E+02 -0.12162383714E+01 -0.59443087147E+02  0.73155702898E+02  0.00000000000E+00 0. -1.
         11    1    1    2    0    0 -0.97073983394E+01 -0.68485982862E+02 -0.21726994074E+03  0.22801489114E+03  0.00000000000E+00 0.  1.
</event>
<event>
 7    1  0.2690635E-009  0.1779287E+03  0.7561462E-02  0.1169823E+00
         -2   -1    0    0    0  501 -0.00000000000E+00  0.00000000000E+00  0.61287053145E+02  0.61287053145E+02  0.00000000000E+00 0.  1.
          2   -1    0    0  501    0  0.00000000000E+00 -0.00000000000E+00 -0.53095398205E+03  0.53095398205E+03  0.00000000000E+00 0. -1.
         25    2    1    2    0    0  0.98527111351E+02  0.10573998292E+03 -0.22248773840E+03  0.29332029412E+03  0.12508982990E+03 0.  0.
          5    1    3    3  502    0 -0.25394537976E+02  0.39700862426E+02 -0.34104137827E+02  0.58323285687E+02  0.41800000000E+01 0. -1.
         -5    1    3    3    0  502  0.12392164933E+03  0.66039120491E+02 -0.18838360057E+03  0.23499700843E+03  0.41800000000E+01 0. -1.
        -11    1    1    2    0    0 -0.69404138916E+02 -0.12681426761E+02 -0.10085155419E+03  0.12308041707E+03  0.00000000000E+00 0. -1.
         11    1    1    2    0    0 -0.29122972434E+02 -0.93058556156E+02 -0.14632763632E+03  0.17584032401E+03  0.00000000000E+00 0.  1.
</event>
<event>
 7    1  0.2690635E-009  0.1180339E+03  0.7561462E-02  0.1246376E+00
          1   -1    0    0  501    0  0.00000000000E+00  0.00000000000E+00  0.23510421043E+03  0.23510421043E+03  0.00000000000E+00 0. -1.
         -1   -1    0    0    0  501 -0.00000000000E+00 -0.00000000000E+00 -0.73523467404E+02  0.73523467404E+02  0.00000000000E+00 0.  1.
         25    2    1    2    0    0  0.66611802669E+02  0.15443263553E+02  0.50825189187E+02  0.15135336564E+03  0.12509602228E+03 0.  0.
          5    1    3    3  502    0  0.52748796243E+02  0.62532802126E+02  0.19242047098E+01  0.81938768667E+02  0.41800000000E+01 0. -1.
         -5    1    3    3    0  502  0.13863006425E+02 -0.47089538573E+02  0.48900984477E+02  0.69414596974E+02  0.41800000000E+01 0. -1.
        -11    1    1    2    0    0 -0.83585788196E+02 -0.22410504636E+02  0.10850560154E+03  0.13878861723E+03  0.00000000000E+00 0.  1.
         11    1    1    2    0    0  0.16973985528E+02  0.69672410831E+01  0.22499522968E+01  0.18485694965E+02  0.00000000000E+00 0. -1.
</event>
<event>
 7    1  0.2690635E-009  0.1284186E+03  0.7561462E-02  0.1229821E+00
          4   -1    0    0  501    0  0.00000000000E+00  0.00000000000E+00  0.37477203146E+03  0.37477203146E+03  0.00000000000E+00 0.  1.
         -4   -1    0    0    0  501 -0.00000000000E+00 -0.00000000000E+00 -0.45600850383E+02  0.45600850383E+02  0.00000000000E+00 0. -1.
         25    2    1    2    0    0 -0.68294754390E+02 -0.17974532219E+02  0.16388202610E+03  0.21792659159E+03  0.12508966207E+03 0.  0.
          5    1    3    3  502    0 -0.91500115564E+02  0.22126615334E+02  0.12914835270E+03  0.15987065916E+03  0.41800000000E+01 0.  1.
         -5    1    3    3    0  502  0.23205361174E+02 -0.40101147553E+02  0.34733673403E+02  0.58055932431E+02  0.41800000000E+01 0.  1.
        -11    1    1    2    0    0  0.91490303452E+02  0.14582688286E+02  0.14079602926E+03  0.16854273132E+03  0.00000000000E+00 0.  1.
         11    1    1    2    0    0 -0.23195549062E+02  0.33918439330E+01  0.24493125709E+02  0.33903558937E+02  0.00000000000E+00 0. -1.
</event>
<event>
 7    1  0.2690635E-009  0.1029060E+03  0.7561462E-02  0.1274301E+00
         -1   -1    0    0    0  501 -0.00000000000E+00  0.00000000000E+00  0.48909962815E+02  0.48909962815E+02  0.00000000000E+00 0.  1.
          1   -1    0    0  501    0  0.00000000000E+00 -0.00000000000E+00 -0.26671909432E+03  0.26671909432E+03  0.00000000000E+00 0. -1.
         25    2    1    2    0    0 -0.28528950072E+02 -0.10540418598E+02 -0.93883158887E+02  0.15933091448E+03  0.12508913370E+03 0.  0.
          5    1    3    3  502    0 -0.68781730218E+02 -0.36357307985E+02 -0.41482743939E+02  0.88267041983E+02  0.41800000000E+01 0. -1.
         -5    1    3    3    0  502  0.40252780146E+02  0.25816889388E+02 -0.52400414948E+02  0.71063872494E+02  0.41800000000E+01 0. -1.
        -11    1    1    2    0    0  0.51354875073E+02 -0.60062481019E+01 -0.33572105404E+02  0.61648069485E+02  0.00000000000E+00 0.  1.
         11    1    1    2    0    0 -0.22825925001E+02  0.16546666699E+02 -0.90353867215E+02  0.94650073173E+02  0.00000000000E+00 0. -1.
</event>
<event>
 7    1  0.2690635E-009  0.6499573E+02  0.7561462E-02  0.1377988E+00
         -3   -1    0    0    0  501 -0.00000000000E+00  0.00000000000E+00  0.63539514601E+02  0.63539514601E+02  0.00000000000E+00 0.  1.
          3   -1    0    0  501    0  0.00000000000E+00 -0.00000000000E+00 -0.19079606447E+03  0.19079606447E+03  0.00000000000E+00 0. -1.
         25    2    1    2    0    0  0.22965370262E+01  0.60547224058E+01 -0.91463519462E+02  0.15509814326E+03  0.12509166600E+03 0.  0.
          5    1    3    3  502    0  0.44692709619E+02  0.52239939918E+01  0.89047336060E+01  0.46059690478E+02  0.41800000000E+01 0.  1.
         -5    1    3    3    0  502 -0.42396172593E+02  0.83072841406E+00 -0.10036825307E+03  0.10903845278E+03  0.41800000000E+01 0.  1.
        -11    1    1    2    0    0  0.93590916380E+01 -0.21144850092E+02 -0.62375468198E+02  0.66523652295E+02  0.00000000000E+00 0. -1.
         11    1    1    2    0    0 -0.11655628664E+02  0.15090127686E+02  0.26582437793E+02  0.32713783519E+02  0.00000000000E+00 0.  1.
</event>
<event>
 7    1  0.2690635E-009  0.1024380E+03  0.7561462E-02  0.1275251E+00
         -2   -1    0    0    0  501 -0.00000000000E+00  0.00000000000E+00  0.23245363474E+03  0.23245363474E+03  0.00000000000E+00 0. -1.
          2   -1    0    0  501    0  0.00000000000E+00 -0.00000000000E+00 -0.57336967675E+02  0.57336967675E+02  0.00000000000E+00 0.  1.
         25    2    1    2    0    0 -0.55343878189E+00  0.30948608377E+02  0.12996385804E+03  0.18302022453E+03  0.12509066926E+03 0.  0.
          5    1    3    3  502    0 -0.45602506638E+02 -0.11205117989E+02  0.10201454914E+02  0.48235727041E+02  0.41800000000E+01 0.  1.
         -5    1    3    3    0  502  0.45049067856E+02  0.42153726366E+02  0.11976240312E+03  0.13478449749E+03  0.41800000000E+01 0.  1.
        -11    1    1    2    0    0  0.43848995241E+02 -0.21621369358E+01  0.13633529316E+02  0.45970450742E+02  0.00000000000E+00 0.  1.
         11    1    1    2    0    0 -0.43295556459E+02 -0.28786471441E+02  0.31519279709E+02  0.60799927143E+02  0.00000000000E+00 0. -1.
</event>
<event>
 7    1  0.2690635E-009  0.5961410E+02  0.7561462E-02  0.1399458E+00
         -2   -1    0    0    0  501 -0.00000000000E+00  0.00000000000E+00  0.59143996869E+02  0.59143996869E+02  0.00000000000E+00 0.  1.
          2   -1    0    0  501    0  0.00000000000E+00 -0.00000000000E+00 -0.23129595563E+03  0.23129595563E+03  0.00000000000E+00 0. -1.
         25    2    1    2    0    0 -0.12119141140E+02  0.10202202907E+02 -0.15774950718E+03  0.20195305916E+03  0.12509665289E+03 0.  0.
          5    1    3    3  502    0  0.74024153721E+01  0.84511867913E+01  0.19870416696E+02  0.23206123571E+02  0.41800000000E+01 0. -1.
         -5    1    3    3    0  502 -0.19521556512E+02  0.17510161156E+01 -0.17761992388E+03  0.17874693559E+03  0.41800000000E+01 0. -1.
        -11    1    1    2    0    0  0.49330181739E+02 -0.74253472341E+01 -0.10399003979E+02  0.50958236780E+02  0.00000000000E+00 0. -1.
         11    1    1    2    0    0 -0.37211040599E+02 -0.27768556728E+01 -0.40034475988E+01  0.37528656551E+02  0.00000000000E+00 0.  1.
</event>
<event>
 7    1  0.2690635E-009  0.6744252E+02  0.7561462E-02  0.1369012E+00
          2   -1    0    0  501    0  0.00000000000E+00  0.00000000000E+00  0.27018464175E+03  0.27018464175E+03  0.00000000000E+00 0. -1.
         -2   -1    0    0    0  501 -0.00000000000E+00 -0.00000000000E+00 -0.46000476025E+02  0.46000476025E+02  0.00000000000E+00 0.  1.
         25    2    1    2    0    0  0.12285834953E+01  0.20334051929E+02  0.85249313861E+02  0.15273678154E+03  0.12508435488E+03 0.  0.
          5    1    3    3  502    0  0.40385624913E+00  0.38676309027E+02 -0.21425065636E+02  0.44413126633E+02  0.41800000000E+01 0. -1.
         -5    1    3    3    0  502  0.82472724614E+00 -0.18342257098E+02  0.10667437950E+03  0.10832365490E+03  0.41800000000E+01 0. -1.
        -11    1    1    2    0    0 -0.37228090344E+02 -0.17217299274E+02  0.10921175810E+03  0.11666007977E+03  0.00000000000E+00 0. -1.
         11    1    1    2    0    0  0.35999506849E+02 -0.31167526546E+01  0.29723093765E+02  0.46788256469E+02  0.00000000000E+00 0.  1.
</event>
<event>
 7    1  0.2690635E-009  0.1377496E+03  0.7561462E-02  0.1216389E+00
          2   -1    0    0  501    0  0.00000000000E+00  0.00000000000E+00  0.37863205616E+03  0.37863205616E+03  0.00000000000E+00 0. -1.
         -2   -1    0    0    0  501 -0.00000000000E+00 -0.00000000000E+00 -0.55993016897E+02  0.55993016897E+02  0.00000000000E+00 0.  1.
         25    2    1    2    0    0  0.73350461834E+02  0.60766870436E+02  0.20285570652E+03  0.25665394555E+03  0.12509159565E+03 0.  0.
          5    1    3    3  502    0 -0.33892916246E+02  0.28764669097E+02  0.48158084444E+02  0.65671983808E+02  0.41800000000E+01 0. -1.
         -5    1    3    3    0  502  0.10724337808E+03  0.32002201339E+02  0.15469762208E+03  0.19098196174E+03  0.41800000000E+01 0. -1.
        -11    1    1    2    0    0 -0.60487518490E+02 -0.77144030926E+02  0.60643005027E+02  0.11527148589E+03  0.00000000000E+00 0.  1.
         11    1    1    2    0    0 -0.12862943345E+02  0.16377160490E+02  0.59140327712E+02  0.62699641618E+02  0.00000000000E+00 0. -1.
</event>
<event>
 7    1  0.2881119E-009  0.1243980E+03  0.7561462E-02  0.1236013E+00
          2   -1    0    0  501    0  0.00000000000E+00  0.00000000000E+00  0.33028394526E+03  0.33028394526E+03  0.00000000000E+00 0. -1.
         -2   -1    0    0    0  501 -0.00000000000E+00 -0.00000000000E+00 -0.64289322135E+02  0.64289322135E+02  0.00000000000E+00 0.  1.
         25    2    1    2    0    0 -0.75910729292E+02 -0.59637018019E+02  0.13255109959E+03  0.20624218050E+03  0.12508809006E+03 0.  0.
          5    1    3    3  502    0 -0.97627771466E+02 -0.62872693472E+02  0.14067681851E+03  0.18245985041E+03  0.41800000000E+01 0. -1.
         -5    1    3    3    0  502  0.21717042174E+02  0.32356754532E+01 -0.81257189216E+01  0.23782330088E+02  0.41800000000E+01 0. -1.
        -11    1    1    2    0    0  0.77902035073E+02  0.34782950096E+02  0.45030121896E+02  0.96469127517E+02  0.00000000000E+00 0.  1.
         11    1    1    2    0    0 -0.19913057809E+01  0.24854067923E+02  0.88413401639E+02  0.91861959376E+02  0.00000000000E+00 0. -1.
</event>
<event>
 7    1  0.2690635E-009  0.1102358E+03  0.7561462E-02  0.1260134E+00
          1   -1    0    0  501    0  0.00000000000E+00  0.00000000000E+00  0.57154040759E+02  0.57154040759E+02  0.00000000000E+00 0. -1.
         -1   -1    0    0    0  501 -0.00000000000E+00 -0.00000000000E+00 -0.38027987917E+03  0.38027987917E+03  0.00000000000E+00 0.  1.
         25    2    1    2    0    0 -0.96195607439E+02 -0.27791058037E+02 -0.17588132737E+03  0.23792620045E+03  0.12509475506E+03 0.  0.
          5    1    3    3  502    0 -0.81220999567E+02 -0.46873807702E+02 -0.18826732176E+03  0.21037124676E+03  0.41800000000E+01 0. -1.
         -5    1    3    3    0  502 -0.14974607872E+02  0.19082749665E+02  0.12385994392E+02  0.27554953688E+02  0.41800000000E+01 0. -1.
        -11    1    1    2    0    0  0.40385974505E+02  0.18085492411E+01 -0.56185169026E+00  0.40430353256E+02  0.00000000000E+00 0. -1.
         11    1    1    2    0    0  0.55809632933E+02  0.25982508796E+02 -0.14668265935E+03  0.15907736623E+03  0.00000000000E+00 0.  1.
</event>
<event>
 7    1  0.2690635E-009  0.1054728E+03  0.7561462E-02  0.1269191E+00
          2   -1    0    0  501    0  0.00000000000E+00  0.00000000000E+00  0.11429472569E+03  0.11429472569E+03  0.00000000000E+00 0. -1.
         -2   -1    0    0    0  501 -0.00000000000E+00 -0.00000000000E+00 -0.16424991450E+03  0.16424991450E+03  0.00000000000E+00 0.  1.
         25    2    1    2    0    0  0.31001188204E+02  0.12944323923E+02  0.51735538294E+02  0.13947286061E+03  0.12508990260E+03 0.  0.
          5    1    3    3  502    0  0.63950098080E+02 -0.27179552366E+02  0.52807123997E+02  0.87375098604E+02  0.41800000000E+01 0.  1.
         -5    1    3    3    0  502 -0.32948909876E+02  0.40123876289E+02 -0.10715857028E+01  0.52097762010E+02  0.41800000000E+01 0.  1.
        -11    1    1    2    0    0 -0.19294318706E+02  0.34961163173E+02 -0.69578589938E+02  0.80223025638E+02  0.00000000000E+00 0.  1.
         11    1    1    2    0    0 -0.11706869498E+02 -0.47905487097E+02 -0.32112137162E+02  0.58848753942E+02  0.00000000000E+00 0. -1.
</event>
<event>
 7    1  0.2690635E-009  0.3028915E+03  0.7561462E-02  0.1083804E+00
          1   -1    0    0  501    0  0.00000000000E+00  0.00000000000E+00  0.19492336581E+04  0.19492336581E+04  0.00000000000E+00 0. -1.
         -1   -1    0    0    0  501 -0.00000000000E+00 -0.00000000000E+00 -0.69783647032E+02  0.69783647032E+02  0.00000000000E+00 0.  1.
         25    2    1    2    0    0 -0.15753162809E+03 -0.25802445860E+03  0.14476548228E+04  0.14841648312E+04  0.12509166619E+03 0.  0.
          5    1    3    3  502    0 -0.13121238548E+03 -0.21116216568E+03  0.13491714543E+04  0.13718918456E+04  0.41800000000E+01 0. -1.
         -5    1    3    3    0  502 -0.26319242605E+02 -0.46862292920E+02  0.98483368495E+02  0.11227298562E+03  0.41800000000E+01 0.  1.
        -11    1    1    2    0    0  0.61139541686E+02  0.12265072635E+03  0.27064348686E+03  0.30336305182E+03  0.00000000000E+00 0. -1.
         11    1    1    2    0    0  0.96392086404E+02  0.13537373225E+03  0.16115170139E+03  0.23148942215E+03  0.00000000000E+00 0.  1.
</event>
<event>
 7    1  0.2690635E-009  0.9562554E+02  0.7561462E-02  0.1289773E+00
         -1   -1    0    0    0  501 -0.00000000000E+00  0.00000000000E+00  0.16560933280E+03  0.16560933280E+03  0.00000000000E+00 0.  1.
          1   -1    0    0  501    0  0.00000000000E+00 -0.00000000000E+00 -0.76792956012E+02  0.76792956012E+02  0.00000000000E+00 0. -1.
         25    2    1    2    0    0  0.22679824163E+02 -0.85394084129E+01  0.58007264579E+02  0.13999643791E+03  0.12508742528E+03 0.  0.
          5    1    3    3  502    0  0.54609782736E+02 -0.28302028012E+02  0.76237586340E+02  0.98045270825E+02  0.41800000000E+01 0. -1.
         -5    1    3    3    0  502 -0.31929958573E+02  0.19762619600E+02 -0.18230321761E+02  0.41951167081E+02  0.41800000000E+01 0. -1.
        -11    1    1    2    0    0 -0.52538960883E+01 -0.39949294326E+02 -0.35906409104E+01  0.40452963345E+02  0.00000000000E+00 0. -1.
         11    1    1    2    0    0 -0.17425928074E+02  0.48488702739E+02  0.34399753122E+02  0.61952887564E+02  0.00000000000E+00 0.  1.
</event>
<event>
 7    1  0.2690635E-009  0.5236577E+02  0.7561462E-02  0.1432983E+00
          2   -1    0    0  501    0  0.00000000000E+00  0.00000000000E+00  0.10456293979E+03  0.10456293979E+03  0.00000000000E+00 0. -1.
         -2   -1    0    0    0  501 -0.00000000000E+00 -0.00000000000E+00 -0.12265268624E+03  0.12265268624E+03  0.00000000000E+00 0.  1.
         25    2    1    2    0    0  0.14176803093E+02 -0.24245071693E+02  0.30195771413E+02  0.13171051239E+03  0.12508824572E+03 0.  0.
          5    1    3    3  502    0 -0.95061041211E+01 -0.23107948844E+02  0.75919834522E+02  0.80035223428E+02  0.41800000000E+01 0.  1.
         -5    1    3    3    0  502  0.23682907214E+02 -0.11371228497E+01 -0.45724063109E+02  0.51675288966E+02  0.41800000000E+01 0.  1.
        -11    1    1    2    0    0 -0.31495354520E+02  0.10460955588E+02 -0.61387177072E+02  0.69783769295E+02  0.00000000000E+00 0.  1.
         11    1    1    2    0    0  0.17318551427E+02  0.13784116106E+02  0.13101659209E+02  0.25721344334E+02  0.00000000000E+00 0. -1.
</event>
<event>
 7    1  0.2690635E-009  0.1007225E+03  0.7561462E-02  0.1278784E+00
         -1   -1    0    0    0  501 -0.00000000000E+00  0.00000000000E+00  0.65148343076E+02  0.65148343076E+02  0.00000000000E+00 0.  1.
          1   -1    0    0  501    0  0.00000000000E+00 -0.00000000000E+00 -0.33888701477E+03  0.33888701477E+03  0.00000000000E+00 0. -1.
         25    2    1    2    0    0  0.38248783599E+02 -0.76671915633E+02 -0.22341711455E+03  0.27000605368E+03  0.12508600982E+03 0.  0.
          5    1    3    3  502    0  0.17436003888E+02 -0.42852396724E+02 -0.22529296174E+03  0.23003202635E+03  0.41800000000E+01 0.  1.
         -5    1    3    3    0  502  0.20812779711E+02 -0.33819518909E+02  0.18758471834E+01  0.39974027332E+02  0.41800000000E+01 0.  1.
        -11    1    1    2    0    0  0.23568914299E+02  0.26347335619E+02  0.67544073695E+01  0.35990246378E+02  0.00000000000E+00 0.  1.
         11    1    1    2    0    0 -0.61817697899E+02  0.50324580014E+02 -0.57075964507E+02  0.98039057785E+02  0.00000000000E+00 0. -1.
</event>
<event>
 7    1  0.2690635E-009  0.1370578E+03  0.7561462E-02  0.1217344E+00
          2   -1    0    0  501    0  0.00000000000E+00  0.00000000000E+00  0.32189485546E+03  0.32189485546E+03  0.00000000000E+00 0. -1.
         -2   -1    0    0    0  501 -0.00000000000E+00 -0.00000000000E+00 -0.63595429412E+02  0.63595429412E+02  0.00000000000E+00 0.  1.
         25    2    1    2    0    0 -0.86905748837E+02  0.29198789441E+02  0.16012387252E+03  0.22291802133E+03  0.12509041209E+03 0.  0.
          5    1    3    3  502    0  0.22302713430E+02  0.34813395805E+02  0.68844020774E+02  0.80413650273E+02  0.41800000000E+01 0. -1.
         -5    1    3    3    0  502 -0.10920846227E+03 -0.56146063636E+01  0.91279851747E+02  0.14250437106E+03  0.41800000000E+01 0. -1.
        -11    1    1    2    0    0  0.47721777943E+02 -0.57550342659E+02  0.83391360408E+02  0.11199789739E+03  0.00000000000E+00 0.  1.
         11    1    1    2    0    0  0.39183970894E+02  0.28351553218E+02  0.14784193118E+02  0.50574366146E+02  0.00000000000E+00 0. -1.
</event>
<event>
 7    1  0.2690635E-009  0.1518277E+03  0.7561462E-02  0.1198245E+00
          2   -1    0    0  501    0  0.00000000000E+00  0.00000000000E+00  0.36729248207E+03  0.36729248207E+03  0.00000000000E+00 0. -1.
         -2   -1    0    0    0  501 -0.00000000000E+00 -0.00000000000E+00 -0.94580215059E+02  0.94580215059E+02  0.00000000000E+00 0.  1.
         25    2    1    2    0    0  0.11705290729E+03  0.52095046244E+02  0.44395327315E+02  0.18448624905E+03  0.12509577952E+03 0.  0.
          5    1    3    3  502    0  0.64994390321E+02 -0.97063918705E+01  0.73329176798E+02  0.98555189545E+02  0.41800000000E+01 0.  1.
         -5    1    3    3    0  502  0.52058516973E+02  0.61801438115E+02 -0.28933849483E+02  0.85931059509E+02  0.41800000000E+01 0.  1.
        -11    1    1    2    0    0 -0.29703042962E+02  0.26187691940E+02  0.68878810172E+02  0.79450339591E+02  0.00000000000E+00 0. -1.
         11    1    1    2    0    0 -0.87349864332E+02 -0.78282738184E+02  0.15943812953E+03  0.19793610849E+03  0.00000000000E+00 0.  1.
</event>
<event>
 7    1  0.2690635E-009  0.1007768E+03  0.7561462E-02  0.1278671E+00
          2   -1    0    0  501    0  0.00000000000E+00  0.00000000000E+00  0.12913501609E+03  0.12913501609E+03  0.00000000000E+00 0. -1.
         -2   -1    0    0    0  501 -0.00000000000E+00 -0.00000000000E+00 -0.10677706344E+03  0.10677706344E+03  0.00000000000E+00 0.  1.
         25    2    1    2    0    0  0.35171913041E+02 -0.24519344710E+02  0.37460846464E+02  0.13743844281E+03  0.12509096215E+03 0.  0.
          5    1    3    3  502    0  0.76909865424E+02  0.10307120493E+02  0.21432686670E+02  0.80611392434E+02  0.41800000000E+01 0. -1.
         -5    1    3    3    0  502 -0.41737952383E+02 -0.34826465202E+02  0.16028159794E+02  0.56827050372E+02  0.41800000000E+01 0. -1.
        -11    1    1    2    0    0  0.12993535330E+02 -0.36876408059E+01 -0.36327684763E+02  0.38757339116E+02  0.00000000000E+00 0.  1.
         11    1    1    2    0    0 -0.48165448371E+02  0.28206985516E+02  0.21224790948E+02  0.59716297604E+02  0.00000000000E+00 0. -1.
</event>
<event>
 7    1  0.2690635E-009  0.1208809E+03  0.7561462E-02  0.1241651E+00
          2   -1    0    0  501    0  0.00000000000E+00  0.00000000000E+00  0.40384033658E+03  0.40384033658E+03  0.00000000000E+00 0. -1.
         -2   -1    0    0    0  501 -0.00000000000E+00 -0.00000000000E+00 -0.66329869077E+02  0.66329869077E+02  0.00000000000E+00 0.  1.
         25    2    1    2    0    0 -0.66646827979E+02  0.42406581969E+02  0.46224958835E+02  0.15499452215E+03  0.12508571942E+03 0.  0.
          5    1    3    3  502    0 -0.23998053690E+02  0.69877024126E+02 -0.14862718766E+02  0.75478989731E+02  0.41800000000E+01 0.  1.
         -5    1    3    3    0  502 -0.42648774289E+02 -0.27470442157E+02  0.61087677601E+02  0.79515532416E+02  0.41800000000E+01 0.  1.
        -11    1    1    2    0    0  0.82230346358E+02 -0.53166877960E+02  0.20991956815E+03  0.23163499706E+03  0.00000000000E+00 0.  1.
         11    1    1    2    0    0 -0.15583518379E+02  0.10760295991E+02  0.81365940520E+02  0.83540686444E+02  0.00000000000E+00 0. -1.
</event>
<event>
 7    1  0.2690635E-009  0.1887085E+03  0.7561462E-02  0.1159631E+00
         -1   -1    0    0    0  501 -0.00000000000E+00  0.00000000000E+00  0.11453993425E+03  0.11453993425E+03  0.00000000000E+00 0.  1.
          1   -1    0    0  501    0  0.00000000000E+00 -0.00000000000E+00 -0.36598071169E+03  0.36598071169E+03  0.00000000000E+00 0. -1.
         25    2    1    2    0    0  0.16653976402E+03  0.50016699541E+02 -0.13587437747E+03  0.25366690422E+03  0.12509152093E+03 0.  0.
          5    1    3    3  502    0  0.56861071882E+02  0.64470803138E+02 -0.11054968398E+03  0.14010128829E+03  0.41800000000E+01 0.  1.
         -5    1    3    3    0  502  0.10967869214E+03 -0.14454103597E+02 -0.25324693492E+02  0.11356561593E+03  0.41800000000E+01 0.  1.
        -11    1    1    2    0    0 -0.68435100353E+02  0.41876197287E+01 -0.87769859850E+02  0.11137525496E+03  0.00000000000E+00 0. -1.
         11    1    1    2    0    0 -0.98104663669E+02 -0.54204319269E+02 -0.27796540118E+02  0.11547848676E+03  0.00000000000E+00 0.  1.
</event>
<event>
 7    1  0.2690635E-009  0.9988361E+02  0.7561462E-02  0.1280541E+00
          2   -1    0    0  501    0  0.00000000000E+00  0.00000000000E+00  0.11210868367E+03  0.11210868367E+03  0.00000000000E+00 0. -1.
         -2   -1    0    0    0  501 -0.00000000000E+00 -0.00000000000E+00 -0.13680674683E+03  0.13680674683E+03  0.00000000000E+00 0.  1.
         25    2    1    2    0    0  0.23400521117E+02 -0.22201078301E+01  0.41961214595E+02  0.13402142593E+03  0.12509390797E+03 0.  0.
          5    1    3    3  502    0 -0.64330060671E+01 -0.52873048632E+02  0.51632609123E+02  0.74299001094E+02  0.41800000000E+01 0.  1.
         -5    1    3    3    0  502  0.29833527184E+02  0.50652940802E+02 -0.96713945273E+01  0.59722424836E+02  0.41800000000E+01 0.  1.
        -11    1    1    2    0    0  0.31936539506E+02  0.28723956101E+01 -0.57118200102E+01  0.32570202640E+02  0.00000000000E+00 0. -1.
         11    1    1    2    0    0 -0.55337060623E+02 -0.65228778001E+00 -0.60947457744E+02  0.82323801924E+02  0.00000000000E+00 0.  1.
</event>
<event>
 7    1  0.2690635E-009  0.1213650E+03  0.7561462E-02  0.1240862E+00
         -1   -1    0    0    0  501 -0.00000000000E+00  0.00000000000E+00  0.27390984087E+02  0.27390984087E+02  0.00000000000E+00 0.  1.
          1   -1    0    0  501    0  0.00000000000E+00 -0.00000000000E+00 -0.57509806656E+03  0.57509806656E+03  0.00000000000E+00 0. -1.
         25    2    1    2    0    0  0.95416450869E+01  0.62688143756E+02 -0.27668532012E+03  0.31019789545E+03  0.12508845515E+03 0.  0.
          5    1    3    3  502    0  0.13028952879E+02  0.10039818329E+03 -0.21525527368E+03  0.23791144165E+03  0.41800000000E+01 0. -1.
         -5    1    3    3    0  502 -0.34873077920E+01 -0.37710039533E+02 -0.61430046440E+02  0.72286453799E+02  0.41800000000E+01 0. -1.
        -11    1    1    2    0    0 -0.44530014844E+02 -0.22090190948E+02 -0.82678232520E+02  0.96470663368E+02  0.00000000000E+00 0.  1.
         11    1    1    2    0    0  0.34988369757E+02 -0.40597952808E+02 -0.18834352983E+03  0.19582049183E+03  0.00000000000E+00 0. -1.
</event>
<event>
 7    1  0.2690635E-009  0.1290387E+03  0.7561462E-02  0.1228889E+00
          2   -1    0    0  501    0  0.00000000000E+00  0.00000000000E+00  0.82280652571E+03  0.82280652571E+03  0.00000000000E+00 0. -1.
         -2   -1    0    0    0  501 -0.00000000000E+00 -0.00000000000E+00 -0.30777263360E+02  0.30777263360E+02  0.00000000000E+00 0.  1.
         25    2    1    2    0    0 -0.10574827328E+03 -0.69294309343E+01  0.55392776185E+03  0.57768024628E+03  0.12509111591E+03 0.  0.
          5    1    3    3  502    0 -0.44905069709E+02 -0.34239996852E+02  0.45369648670E+03  0.45721637888E+03  0.41800000000E+01 0. -1.
         -5    1    3    3    0  502 -0.60843203568E+02  0.27310565918E+02  0.10023127515E+03  0.12046386740E+03  0.41800000000E+01 0. -1.
        -11    1    1    2    0    0  0.78650754792E+02  0.42904375073E+02  0.18967875699E+03  0.20977310953E+03  0.00000000000E+00 0. -1.
         11    1    1    2    0    0  0.27097518485E+02 -0.35974944139E+02  0.48422743512E+02  0.66130433259E+02  0.00000000000E+00 0.  1.
</event>
<event>
 7    1  0.2690635E-009  0.1056312E+03  0.7561462E-02  0.1268881E+00
         -1   -1    0    0    0  501 -0.00000000000E+00  0.00000000000E+00  0.10660178105E+03  0.10660178105E+03  0.00000000000E+00 0.  1.
          1   -1    0    0  501    0  0.00000000000E+00 -0.00000000000E+00 -0.10774407170E+03  0.10774407170E+03  0.00000000000E+00 0. -1.
         25    2    1    2    0    0  0.18581115008E+01 -0.70408344902E+01  0.35221121411E+00  0.12530419621E+03  0.12509193262E+03 0.  0.
          5    1    3    3  502    0 -0.63235025953E+01  0.58468122216E+02  0.36645904598E+01  0.59071225007E+02  0.41800000000E+01 0. -1.
         -5    1    3    3    0  502  0.81816140961E+01 -0.65508956706E+02 -0.33123792457E+01  0.66232971202E+02  0.41800000000E+01 0. -1.
        -11    1    1    2    0    0  0.32101035535E+02  0.30975262139E+02  0.10442384883E+02  0.45814700142E+02  0.00000000000E+00 0.  1.
         11    1    1    2    0    0 -0.33959147036E+02 -0.23934427649E+02 -0.11936886749E+02  0.43226956399E+02  0.00000000000E+00 0. -1.
</event>
<event>
 7    1  0.2690635E-009  0.1042001E+03  0.7561462E-02  0.1271704E+00
          2   -1    0    0  501    0  0.00000000000E+00  0.00000000000E+00  0.27757215988E+03  0.27757215988E+03  0.00000000000E+00 0. -1.
         -2   -1    0    0    0  501 -0.00000000000E+00 -0.00000000000E+00 -0.85101426316E+02  0.85101426316E+02  0.00000000000E+00 0.  1.
         25    2    1    2    0    0 -0.64903251655E+02 -0.77340066812E+02  0.57419453713E+02  0.17070204835E+03  0.12509307589E+03 0.  0.
          5    1    3    3  502    0 -0.86398148484E+01 -0.27025929273E+02 -0.38856547698E+02  0.48294419478E+02  0.41800000000E+01 0.  1.
         -5    1    3    3    0  502 -0.56263436807E+02 -0.50314137539E+02  0.96276001411E+02  0.12240762887E+03  0.41800000000E+01 0.  1.
        -11    1    1    2    0    0  0.41789993359E+02  0.29995178792E+02  0.50351042081E+01  0.51686231920E+02  0.00000000000E+00 0.  1.
         11    1    1    2    0    0  0.23113258296E+02  0.47344888019E+02  0.13001617564E+03  0.14028530593E+03  0.00000000000E+00 0. -1.
</event>
<event>
 7    1  0.2690635E-009  0.1511526E+03  0.7561462E-02  0.1199064E+00
         -1   -1    0    0    0  501 -0.00000000000E+00  0.00000000000E+00  0.44917971129E+03  0.44917971129E+03  0.00000000000E+00 0.  1.
          1   -1    0    0  501    0  0.00000000000E+00 -0.00000000000E+00 -0.78757850332E+02  0.78757850332E+02  0.00000000000E+00 0. -1.
         25    2    1    2    0    0  0.10047174652E+03  0.77977193554E+02  0.32252724290E+03  0.36857266037E+03  0.12508784514E+03 0.  0.
          5    1    3    3  502    0  0.10837318660E+03  0.13861098972E+02  0.23961530887E+03  0.26338156026E+03  0.41800000000E+01 0. -1.
         -5    1    3    3    0  502 -0.79014400761E+01  0.64116094583E+02  0.82911934022E+02  0.10519110011E+03  0.41800000000E+01 0. -1.
        -11    1    1    2    0    0 -0.51613144871E+02 -0.29709885638E+02  0.65437932900E+02  0.88480037807E+02  0.00000000000E+00 0. -1.
         11    1    1    2    0    0 -0.48858601652E+02 -0.48267307916E+02 -0.17543314841E+02  0.70884863437E+02  0.00000000000E+00 0.  1.
</event>
<event>
 7    1  0.2690635E-009  0.1082439E+03  0.7561462E-02  0.1263857E+00
         -2   -1    0    0    0  501 -0.00000000000E+00  0.00000000000E+00  0.10285030085E+03  0.10285030085E+03  0.00000000000E+00 0.  1.
          2   -1    0    0  501    0  0.00000000000E+00 -0.00000000000E+00 -0.30510838794E+03  0.30510838794E+03  0.00000000000E+00 0. -1.
         25    2    1    2    0    0 -0.20373235700E+02  0.25881397121E+02  0.48344146742E+02  0.13809150719E+03  0.12508873804E+03 0.  0.
          5    1    3    3  502    0 -0.10395717864E+02  0.70019097217E+02 -0.11231188570E+01  0.70918817819E+02  0.41800000000E+01 0.  1.
         -5    1    3    3    0  502 -0.99775178364E+01 -0.44137700095E+02  0.49467265599E+02  0.67172689374E+02  0.41800000000E+01 0.  1.
        -11    1    1    2    0    0 -0.35160999947E+02  0.66332487994E+01 -0.89293070861E+02  0.96195365848E+02  0.00000000000E+00 0. -1.
         11    1    1    2    0    0  0.55534235647E+02 -0.32514645921E+02 -0.16130916297E+03  0.17367181575E+03  0.00000000000E+00 0.  1.
</event>
<event>
 7    1  0.2690635E-009  0.2264492E+03  0.7561462E-02  0.1129164E+00
         -2   -1    0    0    0  501 -0.00000000000E+00  0.00000000000E+00  0.25009376735E+02  0.25009376735E+02  0.00000000000E+00 0.  1.
          2   -1    0    0  501    0  0.00000000000E+00 -0.00000000000E+00 -0.23458810867E+04  0.23458810867E+04  0.00000000000E+00 0. -1.
         25    2    1    2    0    0 -0.14320784866E+03 -0.14162878586E+03 -0.15831859526E+04  0.16008407196E+04  0.12508416398E+03 0.  0.
          5    1    3    3  502    0 -0.12744958208E+02 -0.91390198054E+02 -0.79423646315E+03  0.79958966605E+03  0.41800000000E+01 0. -1.
         -5    1    3    3    0  502 -0.13046289045E+03 -0.50238587805E+02 -0.78894948945E+03  0.80125105354E+03  0.41800000000E+01 0. -1.
        -11    1    1    2    0    0  0.58287668481E+01 -0.12745163976E+02 -0.56202140095E+02  0.57923175664E+02  0.00000000000E+00 0.  1.
         11    1    1    2    0    0  0.13737908181E+03  0.15437394984E+03 -0.68148361730E+03  0.71212656821E+03  0.00000000000E+00 0. -1.
</event>
<event>
 7    1  0.2690635E-009  0.1492109E+03  0.7561462E-02  0.1201446E+00
         -1   -1    0    0    0  501 -0.00000000000E+00  0.00000000000E+00  0.34041882430E+02  0.34041882430E+02  0.00000000000E+00 0.  1.
          1   -1    0    0  501    0  0.00000000000E+00 -0.00000000000E+00 -0.78332987417E+03  0.78332987417E+03  0.00000000000E+00 0. -1.
         25    2    1    2    0    0  0.75256813858E+02  0.75646255275E+02 -0.28528711526E+03  0.32927460952E+03  0.12508831429E+03 0.  0.
          5    1    3    3  502    0  0.41014451338E+02  0.10752821202E+03 -0.17609807425E+03  0.21041032710E+03  0.41800000000E+01 0.  1.
         -5    1    3    3    0  502  0.34242362520E+02 -0.31881956743E+02 -0.10918904101E+03  0.11886428241E+03  0.41800000000E+01 0.  1.
        -11    1    1    2    0    0  0.17727673141E+02 -0.24267586672E+02 -0.34971627845E+02  0.46110746166E+02  0.00000000000E+00 0.  1.
         11    1    1    2    0    0 -0.92984486999E+02 -0.51378668603E+02 -0.42902924864E+03  0.44198640092E+03  0.00000000000E+00 0. -1.
</event>
<event>
 7    1  0.2690635E-009  0.8719318E+02  0.7561462E-02  0.1309795E+00
          1   -1    0    0  501    0  0.00000000000E+00  0.00000000000E+00  0.95673856367E+02  0.95673856367E+02  0.00000000000E+00 0. -1.
         -1   -1    0    0    0  501 -0.00000000000E+00 -0.00000000000E+00 -0.17171715721E+03  0.17171715721E+03  0.00000000000E+00 0.  1.
         25    2    1    2    0    0 -0.41907685726E+02  0.55163317326E+01 -0.99271387724E+02  0.16519625774E+03  0.12509320970E+03 0.  0.
          5    1    3    3  502    0 -0.62978597082E+02 -0.39525553665E+01 -0.11884973794E+03  0.13462785370E+03  0.41800000000E+01 0. -1.
         -5    1    3    3    0  502  0.21070911356E+02  0.94688870990E+01  0.19578350216E+02  0.30568404038E+02  0.41800000000E+01 0. -1.
        -11    1    1    2    0    0  0.52953908027E+02 -0.29963023014E+02 -0.76144422836E+01  0.61317851029E+02  0.00000000000E+00 0.  1.
         11    1    1    2    0    0 -0.11046222301E+02  0.24446691281E+02  0.30842529162E+02  0.40876904810E+02  0.00000000000E+00 0. -1.
</event>
<event>
 7    1  0.2690635E-009  0.1271811E+03  0.7561462E-02  0.1231699E+00
          1   -1    0    0  501    0  0.00000000000E+00  0.00000000000E+00  0.58489457889E+02  0.58489457889E+02  0.00000000000E+00 0. -1.
         -1   -1    0    0    0  501 -0.00000000000E+00 -0.00000000000E+00 -0.50384550178E+03  0.50384550178E+03  0.00000000000E+00 0.  1.
         25    2    1    2    0    0  0.83916406446E+01 -0.10997520779E+03 -0.11491443688E+03  0.20252626039E+03  0.12508633973E+03 0.  0.
          5    1    3    3  502    0  0.31830475490E+02 -0.44334243212E+02  0.13480395439E+02  0.56372845877E+02  0.41800000000E+01 0. -1.
         -5    1    3    3    0  502 -0.23438834846E+02 -0.65640964574E+02 -0.12839483232E+03  0.14615341452E+03  0.41800000000E+01 0. -1.
        -11    1    1    2    0    0 -0.22595620736E+02  0.40863490368E+01 -0.16748445405E+02  0.28421307999E+02  0.00000000000E+00 0. -1.
         11    1    1    2    0    0  0.14203980092E+02  0.10588885875E+03 -0.31369316161E+03  0.33138739128E+03  0.00000000000E+00 0.  1.
</event>
<event>
 7    1  0.2690635E-009  0.1109429E+03  0.7561462E-02  0.1258834E+00
          1   -1    0    0  501    0  0.00000000000E+00  0.00000000000E+00  0.17641799267E+03  0.17641799267E+03  0.00000000000E+00 0. -1.
         -1   -1    0    0    0  501 -0.00000000000E+00 -0.00000000000E+00 -0.10347404640E+03  0.10347404640E+03  0.00000000000E+00 0.  1.
         25    2    1    2    0    0 -0.12329127997E+02 -0.37446644261E+02 -0.32262998637E+02  0.13506916578E+03  0.12509404422E+03 0.  0.
          5    1    3    3  502    0 -0.23071407084E+02  0.42374985097E+02 -0.23845191562E+02  0.53981429654E+02  0.41800000000E+01 0. -1.
         -5    1    3    3    0  502  0.10742279086E+02 -0.79821629358E+02 -0.84178070745E+01  0.81087736122E+02  0.41800000000E+01 0. -1.
        -11    1    1    2    0    0  0.46550013877E+02  0.71386509549E+01  0.27134197249E+02  0.54351897756E+02  0.00000000000E+00 0.  1.
         11    1    1    2    0    0 -0.34220885879E+02  0.30307993306E+02  0.78072747661E+02  0.90470975544E+02  0.00000000000E+00 0. -1.
</event>
<event>
 7    1  0.2690635E-009  0.1144729E+03  0.7561462E-02  0.1252504E+00
         -3   -1    0    0    0  501 -0.00000000000E+00  0.00000000000E+00  0.64814335443E+02  0.64814335443E+02  0.00000000000E+00 0.  1.
          3   -1    0    0  501    0  0.00000000000E+00 -0.00000000000E+00 -0.25224058801E+03  0.25224058801E+03  0.00000000000E+00 0. -1.
         25    2    1    2    0    0  0.47939785747E+02  0.34088176952E+02 -0.63901719171E+02  0.15228141097E+03  0.12508385807E+03 0.  0.
          5    1    3    3  502    0  0.82246674515E+02  0.22738693672E+02 -0.75589220639E+02  0.11407351286E+03  0.41800000000E+01 0.  1.
         -5    1    3    3    0  502 -0.34306888768E+02  0.11349483280E+02  0.11687501468E+02  0.38207898113E+02  0.41800000000E+01 0.  1.
        -11    1    1    2    0    0  0.19650066158E+02 -0.34317146590E+02 -0.31300918002E+02  0.50433511853E+02  0.00000000000E+00 0.  1.
         11    1    1    2    0    0 -0.67589851905E+02  0.22896963822E+00 -0.92223615395E+02  0.11434000063E+03  0.00000000000E+00 0. -1.
</event>
<event>
 7    1  0.3087685E-009  0.2089665E+03  0.7561462E-02  0.1142387E+00
         -1   -1    0    0    0  501 -0.00000000000E+00  0.00000000000E+00  0.40855253358E+02  0.40855253358E+02  0.00000000000E+00 0.  1.
          1   -1    0    0  501    0  0.00000000000E+00 -0.00000000000E+00 -0.13389662089E+04  0.13389662089E+04  0.00000000000E+00 0. -1.
         25    2    1    2    0    0 -0.18041413144E+03  0.65272258961E+02 -0.44201489504E+03  0.49782906569E+03  0.12508750776E+03 0.  0.
          5    1    3    3  502    0 -0.11082186222E+03  0.94972491721E+02 -0.34574882066E+03  0.37531450641E+03  0.41800000000E+01 0. -1.
         -5    1    3    3    0  502 -0.69592269218E+02 -0.29700232760E+02 -0.96266074371E+02  0.12251455928E+03  0.41800000000E+01 0. -1.
        -11    1    1    2    0    0  0.86089251488E+02 -0.96213553277E+01 -0.21825289911E+03  0.23481536933E+03  0.00000000000E+00 0.  1.
         11    1    1    2    0    0  0.94324879954E+02 -0.55650903633E+02 -0.63784316138E+03  0.64717702723E+03  0.00000000000E+00 0. -1.
</event>
<event>
 7    1  0.2690635E-009  0.6288682E+02  0.7561462E-02  0.1386101E+00
         -2   -1    0    0    0  501 -0.00000000000E+00  0.00000000000E+00  0.12480903151E+03  0.12480903151E+03  0.00000000000E+00 0.  1.
          2   -1    0    0  501    0  0.00000000000E+00 -0.00000000000E+00 -0.98936545994E+02  0.98936545994E+02  0.00000000000E+00 0. -1.
         25    2    1    2    0    0  0.12038729791E+02  0.32494123342E+01  0.34559596381E+02  0.13037456397E+03  0.12509065326E+03 0.  0.
          5    1    3    3  502    0  0.24176509435E+02  0.29556752647E+02  0.72742520076E+02  0.82262092500E+02  0.41800000000E+01 0. -1.
         -5    1    3    3    0  502 -0.12137779643E+02 -0.26307340312E+02 -0.38182923695E+02  0.48112471469E+02  0.41800000000E+01 0. -1.
        -11    1    1    2    0    0 -0.28495179254E+02 -0.19838629193E+02  0.31502324648E+02  0.46882223787E+02  0.00000000000E+00 0.  1.
         11    1    1    2    0    0  0.16456449463E+02  0.16589216858E+02 -0.40189435515E+02  0.46488789745E+02  0.00000000000E+00 0. -1.
</event>
<event>
 7    1  0.2690635E-009  0.9494899E+02  0.7561462E-02  0.1291291E+00
         -1   -1    0    0    0  501 -0.00000000000E+00  0.00000000000E+00  0.66503208889E+03  0.66503208889E+03  0.00000000000E+00 0.  1.
          1   -1    0    0  501    0  0.00000000000E+00 -0.00000000000E+00 -0.26585663553E+02  0.26585663553E+02  0.00000000000E+00 0. -1.
         25    2    1    2    0    0  0.20358844717E+02  0.34962589291E+02  0.51885248638E+03  0.53525058400E+03  0.12509364427E+03 0.  0.
          5    1    3    3  502    0 -0.66675965375E+01  0.69303115919E+02  0.17158761579E+03  0.18522192368E+03  0.41800000000E+01 0. -1.
         -5    1    3    3    0  502  0.27026441254E+02 -0.34340526628E+02  0.34726487059E+03  0.35002866032E+03  0.41800000000E+01 0. -1.
        -11    1    1    2    0    0  0.23546447132E+02 -0.15728051438E+02  0.86732258396E+00  0.28329472693E+02  0.00000000000E+00 0. -1.
         11    1    1    2    0    0 -0.43905291849E+02 -0.19234537853E+02  0.11872661638E+03  0.12803769576E+03  0.00000000000E+00 0.  1.
</event>
<event>
 7    1  0.2690635E-009  0.1245056E+03  0.7561462E-02  0.1235844E+00
          2   -1    0    0  501    0  0.00000000000E+00  0.00000000000E+00  0.56029377824E+03  0.56029377824E+03  0.00000000000E+00 0.  1.
         -2   -1    0    0    0  501 -0.00000000000E+00 -0.00000000000E+00 -0.39887005957E+02  0.39887005957E+02  0.00000000000E+00 0. -1.
         25    2    1    2    0    0 -0.54338740020E+02 -0.86390681338E+02  0.27415326437E+03  0.31815746987E+03  0.12509242494E+03 0.  0.
          5    1    3    3  502    0 -0.61702895837E+02 -0.24403043312E+02  0.23529763160E+03  0.24451013009E+03  0.41800000000E+01 0. -1.
         -5    1    3    3    0  502  0.73641558173E+01 -0.61987638026E+02  0.38855632769E+02  0.73647339781E+02  0.41800000000E+01 0. -1.
        -11    1    1    2    0    0  0.11752532502E+02  0.74951460866E+02  0.80972593264E+02  0.11096127417E+03  0.00000000000E+00 0.  1.
         11    1    1    2    0    0  0.42586207517E+02  0.11439220471E+02  0.16528091465E+03  0.17106204016E+03  0.00000000000E+00 0. -1.
</event>
<event>
 7    1  0.2690635E-009  0.1130313E+03  0.7561462E-02  0.1255057E+00
         -3   -1    0    0    0  501 -0.00000000000E+00  0.00000000000E+00  0.50188820209E+03  0.50188820209E+03  0.00000000000E+00 0.  1.
          3   -1    0    0  501    0  0.00000000000E+00 -0.00000000000E+00 -0.27444352991E+02  0.27444352991E+02  0.00000000000E+00 0. -1.
         25    2    1    2    0    0 -0.34644769902E+02  0.29294637298E+02  0.27829556897E+03  0.30847687117E+03  0.12510443829E+03 0.  0.
          5    1    3    3  502    0  0.42128526580E+02  0.23592196447E+02  0.16079630478E+03  0.16794144371E+03  0.41800000000E+01 0. -1.
         -5    1    3    3    0  502 -0.76773296481E+02  0.57024408513E+01  0.11749926419E+03  0.14053542746E+03  0.41800000000E+01 0. -1.
        -11    1    1    2    0    0 -0.26648390197E+02 -0.28753911253E+02  0.61811156020E+02  0.73195239743E+02  0.00000000000E+00 0.  1.
         11    1    1    2    0    0  0.61293160099E+02 -0.54072604477E+00  0.13433712411E+03  0.14766044417E+03  0.00000000000E+00 0. -1.
</event>
<event>
 7    1  0.2690635E-009  0.1189085E+03  0.7561462E-02  0.1244909E+00
          2   -1    0    0  501    0  0.00000000000E+00  0.00000000000E+00  0.83585776499E+03  0.83585776499E+03  0.00000000000E+00 0. -1.
         -2   -1    0    0    0  501 -0.00000000000E+00 -0.00000000000E+00 -0.17080015810E+02  0.17080015810E+02  0.00000000000E+00 0.  1.
         25    2    1    2    0    0 -0.39254932814E+02 -0.31726422196E+02  0.45892992820E+03  0.47834730087E+03  0.12510773614E+03 0.  0.
          5    1    3    3  502    0 -0.24573535179E+02 -0.80151156639E+02  0.27336660035E+03  0.28596299958E+03  0.41800000000E+01 0.  1.
         -5    1    3    3    0  502 -0.14681397635E+02  0.48424734442E+02  0.18556332785E+03  0.19238430130E+03  0.41800000000E+01 0.  1.
        -11    1    1    2    0    0  0.35003453129E+02 -0.27011652575E+02  0.12977800974E+03  0.13710289172E+03  0.00000000000E+00 0.  1.
         11    1    1    2    0    0  0.42514796853E+01  0.58738074771E+02  0.23006981124E+03  0.23748758821E+03  0.00000000000E+00 0. -1.
</event>
<event>
 7    1  0.2690635E-009  0.1596411E+03  0.7561462E-02  0.1189103E+00
         -1   -1    0    0    0  501 -0.00000000000E+00  0.00000000000E+00  0.89902400986E+02  0.89902400986E+02  0.00000000000E+00 0.  1.
          1   -1    0    0  501    0  0.00000000000E+00 -0.00000000000E+00 -0.35780165721E+03  0.35780165721E+03  0.00000000000E+00 0. -1.
         25    2    1    2    0    0 -0.12970223415E+03 -0.95598901829E+01 -0.21502995039E+03  0.28071324869E+03  0.12509191573E+03 0.  0.
          5    1    3    3  502    0 -0.13356931665E+03  0.20511258541E+02 -0.11964250388E+03  0.18053607732E+03  0.41800000000E+01 0.  1.
         -5    1    3    3    0  502  0.38670825053E+01 -0.30071148723E+02 -0.95387446507E+02  0.10017717137E+03  0.41800000000E+01 0.  1.
        -11    1    1    2    0    0  0.53949259224E+02  0.44613899992E+02 -0.44838779022E+02  0.83135063286E+02  0.00000000000E+00 0. -1.
         11    1    1    2    0    0  0.75752974921E+02 -0.35054009809E+02 -0.80305268072E+01  0.83855746219E+02  0.00000000000E+00 0.  1.
</event>
<event>
 7    1  0.2690635E-009  0.1316054E+03  0.7561462E-02  0.1225093E+00
          1   -1    0    0  501    0  0.00000000000E+00  0.00000000000E+00  0.68676717609E+03  0.68676717609E+03  0.00000000000E+00 0. -1.
         -1   -1    0    0    0  501 -0.00000000000E+00 -0.00000000000E+00 -0.29569090763E+02  0.29569090763E+02  0.00000000000E+00 0.  1.
         25    2    1    2    0    0 -0.82682056881E+02 -0.82479300283E+01  0.45655937761E+03  0.48062275740E+03  0.12508964293E+03 0.  0.
          5    1    3    3  502    0 -0.67326966865E+02  0.53147400143E+02  0.28775610034E+03  0.30029753960E+03  0.41800000000E+01 0.  1.
         -5    1    3    3    0  502 -0.15355090017E+02 -0.61395330171E+02  0.16880327727E+03  0.18032521780E+03  0.41800000000E+01 0.  1.
        -11    1    1    2    0    0  0.63341047592E+02 -0.30725482090E+02  0.75513580178E+02  0.10323974211E+03  0.00000000000E+00 0.  1.
         11    1    1    2    0    0  0.19341009289E+02  0.38973412118E+02  0.12512512754E+03  0.13247376734E+03  0.00000000000E+00 0. -1.
</event>
<event>
 7    1  0.2690635E-009  0.1035290E+03  0.7561462E-02  0.1273045E+00
         -2   -1    0    0    0  501 -0.00000000000E+00  0.00000000000E+00  0.52927510951E+02  0.52927510951E+02  0.00000000000E+00 0.  1.
          2   -1    0    0  501    0  0.00000000000E+00 -0.00000000000E+00 -0.44719739133E+03  0.44719739133E+03  0.00000000000E+00 0. -1.
         25    2    1    2    0    0  0.12345303032E+02 -0.65202242794E+02 -0.72634177488E+02  0.15914607238E+03  0.12509200471E+03 0.  0.
          5    1    3    3  502    0  0.32753136542E+00  0.14089842159E+02  0.27261962843E+02  0.30972858230E+02  0.41800000000E+01 0. -1.
         -5    1    3    3    0  502  0.12017771666E+02 -0.79292084953E+02 -0.99896140331E+02  0.12817321415E+03  0.41800000000E+01 0. -1.
        -11    1    1    2    0    0 -0.51085978086E+02  0.27611129603E+02 -0.14222649900E+03  0.15362463556E+03  0.00000000000E+00 0.  1.
         11    1    1    2    0    0  0.38740675054E+02  0.37591113191E+02 -0.17940920390E+03  0.18735419434E+03  0.00000000000E+00 0. -1.
</event>
<event>
 7    1  0.2690635E-009  0.1066758E+03  0.7561462E-02  0.1266853E+00
         -2   -1    0    0    0  501 -0.00000000000E+00  0.00000000000E+00  0.80073983426E+02  0.80073983426E+02  0.00000000000E+00 0.  1.
          2   -1    0    0  501    0  0.00000000000E+00 -0.00000000000E+00 -0.16950595108E+03  0.16950595108E+03  0.00000000000E+00 0. -1.
         25    2    1    2    0    0  0.29887562733E+02  0.19909221754E+02 -0.69031107936E+02  0.14731943435E+03  0.12509227937E+03 0.  0.
          5    1    3    3  502    0 -0.33659609798E+02  0.35876700127E+02  0.34876341096E+01  0.49494877871E+02  0.41800000000E+01 0. -1.
         -5    1    3    3    0  502  0.63547172531E+02 -0.15967478373E+02 -0.72518742045E+02  0.97824556478E+02  0.41800000000E+01 0. -1.
        -11    1    1    2    0    0 -0.49092083434E+02 -0.45089114620E+02 -0.44556820092E+01  0.66805044835E+02  0.00000000000E+00 0.  1.
         11    1    1    2    0    0  0.19204520701E+02  0.25179892866E+02 -0.15945177713E+02  0.35455455327E+02  0.00000000000E+00 0. -1.
</event>
<event>
 7    1  0.2690635E-009  0.9059984E+02  0.7561462E-02  0.1301406E+00
          1   -1    0    0  501    0  0.00000000000E+00  0.00000000000E+00  0.11458528420E+03  0.11458528420E+03  0.00000000000E+00 0. -1.
         -1   -1    0    0    0  501 -0.00000000000E+00 -0.00000000000E+00 -0.11415373401E+03  0.11415373401E+03  0.00000000000E+00 0.  1.
         25    2    1    2    0    0  0.10941380674E+02 -0.14360187015E+02  0.49735826977E+02  0.13582143252E+03  0.12509148758E+03 0.  0.
          5    1    3    3  502    0 -0.22088603369E+02 -0.54185574644E+02  0.58876852951E+02  0.83114012727E+02  0.41800000000E+01 0. -1.
         -5    1    3    3    0  502  0.33029984043E+02  0.39825387629E+02 -0.91410259736E+01  0.52707419796E+02  0.41800000000E+01 0. -1.
        -11    1    1    2    0    0 -0.33014943202E+02 -0.12991790318E+02 -0.41869369365E+01  0.35725390568E+02  0.00000000000E+00 0. -1.
         11    1    1    2    0    0  0.22073562528E+02  0.27351977333E+02 -0.45117339854E+02  0.57192195116E+02  0.00000000000E+00 0.  1.
</event>
<event>
 7    1  0.2690635E-009  0.9156252E+02  0.7561462E-02  0.1299111E+00
          1   -1    0    0  501    0  0.00000000000E+00  0.00000000000E+00  0.24619818037E+02  0.24619818037E+02  0.00000000000E+00 0. -1.
         -1   -1    0    0    0  501 -0.00000000000E+00 -0.00000000000E+00 -0.51016752253E+03  0.51016752253E+03  0.00000000000E+00 0.  1.
         25    2    1    2    0    0 -0.66087265864E+01  0.89513448975E+00 -0.37154060440E+03  0.39209140646E+03  0.12509505891E+03 0.  0.
          5    1    3    3  502    0  0.24885552090E+02 -0.40961584987E+02 -0.29711079529E+03  0.30098079544E+03  0.41800000000E+01 0. -1.
         -5    1    3    3    0  502 -0.31494278677E+02  0.41856719477E+02 -0.74429809117E+02  0.91110611017E+02  0.41800000000E+01 0. -1.
        -11    1    1    2    0    0  0.96050309937E+01 -0.41070720177E+02 -0.77948416977E+02  0.88628530313E+02  0.00000000000E+00 0.  1.
         11    1    1    2    0    0 -0.29963044073E+01  0.40175585688E+02 -0.36058683112E+02  0.54067403796E+02  0.00000000000E+00 0. -1.
</event>
<event>
 7    1  0.2690635E-009  0.8806023E+02  0.7561462E-02  0.1307618E+00
         -1   -1    0    0    0  501 -0.00000000000E+00  0.00000000000E+00  0.48906522900E+03  0.48906522900E+03  0.00000000000E+00 0.  1.
          1   -1    0    0  501    0  0.00000000000E+00 -0.00000000000E+00 -0.24334493192E+02  0.24334493192E+02  0.00000000000E+00 0. -1.
         25    2    1    2    0    0  0.91471352267E+01  0.10561646174E+02  0.27985027496E+03  0.30685312993E+03  0.12508976176E+03 0.  0.
          5    1    3    3  502    0  0.87416028563E+01  0.46681055510E+02  0.34566029853E+02  0.58888193926E+02  0.41800000000E+01 0. -1.
         -5    1    3    3    0  502  0.40553237037E+00 -0.36119409336E+02  0.24528424511E+03  0.24796493600E+03  0.41800000000E+01 0. -1.
        -11    1    1    2    0    0  0.28516939032E+02 -0.36522759171E+02  0.94489319742E+02  0.10523953295E+03  0.00000000000E+00 0.  1.
         11    1    1    2    0    0 -0.37664074258E+02  0.25961112997E+02  0.90391141100E+02  0.10130705932E+03  0.00000000000E+00 0. -1.
</event>
<event>
 7    1  0.2690635E-009  0.1078125E+03  0.7561462E-02  0.1264675E+00
          1   -1    0    0  501    0  0.00000000000E+00  0.00000000000E+00  0.90789112734E+03  0.90789112734E+03  0.00000000000E+00 0. -1.
         -1   -1    0    0    0  501 -0.00000000000E+00 -0.00000000000E+00 -0.26559830906E+02  0.26559830906E+02  0.00000000000E+00 0.  1.
         25    2    1    2    0    0 -0.37493457601E+02 -0.29599648740E+02  0.75174919313E+03  0.76358234426E+03  0.12509695652E+03 0.  0.
          5    1    3    3  502    0  0.14852913195E+02 -0.49750775328E+02  0.59072718272E+03  0.59301924546E+03  0.41800000000E+01 0. -1.
         -5    1    3    3    0  502 -0.52346370796E+02  0.20151126588E+02  0.16102201041E+03  0.17056309881E+03  0.41800000000E+01 0. -1.
        -11    1    1    2    0    0  0.67245921619E+02  0.28912967919E+01  0.57876774869E+02  0.88769897154E+02  0.00000000000E+00 0.  1.
         11    1    1    2    0    0 -0.29752464018E+02  0.26708351948E+02  0.71705328432E+02  0.82098716826E+02  0.00000000000E+00 0. -1.
</event>
<event>
 7    1  0.2690635E-009  0.7736863E+02  0.7561462E-02  0.1336689E+00
         -1   -1    0    0    0  501 -0.00000000000E+00  0.00000000000E+00  0.65982867547E+02  0.65982867547E+02  0.00000000000E+00 0.  1.
          1   -1    0    0  501    0  0.00000000000E+00 -0.00000000000E+00 -0.33450148707E+03  0.33450148707E+03  0.00000000000E+00 0. -1.
         25    2    1    2    0    0 -0.36884085087E+02 -0.54594188930E+02 -0.24751241665E+03  0.28504488234E+03  0.12508887782E+03 0.  0.
          5    1    3    3  502    0 -0.98335058434E+01 -0.64980475711E+01 -0.22492653924E+03  0.22527392861E+03  0.41800000000E+01 0.  1.
         -5    1    3    3    0  502 -0.27050579244E+02 -0.48096141359E+02 -0.22585877418E+02  0.59770953730E+02  0.41800000000E+01 0.  1.
        -11    1    1    2    0    0 -0.10350879068E+02  0.33679024861E+02 -0.46088738201E+02  0.58013698400E+02  0.00000000000E+00 0. -1.
         11    1    1    2    0    0  0.47234964155E+02  0.20915164069E+02  0.25082535330E+02  0.57425773877E+02  0.00000000000E+00 0.  1.
</event>
<event>
 7    1  0.2690635E-009  0.9234552E+02  0.7561462E-02  0.1297269E+00
          1   -1    0    0  501    0  0.00000000000E+00  0.00000000000E+00  0.13739735491E+03  0.13739735491E+03  0.00000000000E+00 0. -1.
         -1   -1    0    0    0  501 -0.00000000000E+00 -0.00000000000E+00 -0.13658240034E+03  0.13658240034E+03  0.00000000000E+00 0.  1.
         25    2    1    2    0    0 -0.54943100409E+02 -0.47879473775E+02  0.36119510665E+02  0.14921008778E+03  0.12509133844E+03 0.  0.
          5    1    3    3  502    0 -0.74614332214E+02 -0.19961286367E+02  0.67484995074E+02  0.10265207492E+03  0.41800000000E+01 0.  1.
         -5    1    3    3    0  502  0.19671231805E+02 -0.27918187408E+02 -0.31365484409E+02  0.46558012856E+02  0.41800000000E+01 0.  1.
        -11    1    1    2    0    0  0.41877786702E+02  0.38054851119E+02 -0.67850285340E+02  0.88349204487E+02  0.00000000000E+00 0.  1.
         11    1    1    2    0    0  0.13065313707E+02  0.98246226561E+01  0.32545729237E+02  0.36420462987E+02  0.00000000000E+00 0. -1.
</event>
<event>
 7    1  0.2690635E-009  0.1940119E+03  0.7561462E-02  0.1154892E+00
         -4   -1    0    0    0  501 -0.00000000000E+00  0.00000000000E+00  0.39544568778E+03  0.39544568778E+03  0.00000000000E+00 0.  1.
          4   -1    0    0  501    0  0.00000000000E+00 -0.00000000000E+00 -0.12128069630E+03  0.12128069630E+03  0.00000000000E+00 0. -1.
         25    2    1    2    0    0  0.97402599996E+02 -0.16137116486E+03  0.17335188786E+03  0.28500300149E+03  0.12509162441E+03 0.  0.
          5    1    3    3  502    0  0.45452803842E+02 -0.13175366716E+03  0.17655053590E+03  0.22497233233E+03  0.41800000000E+01 0. -1.
         -5    1    3    3    0  502  0.51949796154E+02 -0.29617497697E+02 -0.31986480363E+01  0.60030669158E+02  0.41800000000E+01 0. -1.
        -11    1    1    2    0    0 -0.72084798553E+02  0.12564298193E+03  0.29174721320E+02  0.14776177265E+03  0.00000000000E+00 0.  1.
         11    1    1    2    0    0 -0.25317801443E+02  0.35728182926E+02  0.71638382296E+02  0.83961609936E+02  0.00000000000E+00 0. -1.
</event>
<event>
 7    1  0.2690635E-009  0.1918722E+03  0.7561462E-02  0.1156784E+00
         -2   -1    0    0    0  501 -0.00000000000E+00  0.00000000000E+00  0.12943833598E+03  0.12943833598E+03  0.00000000000E+00 0.  1.
          2   -1    0    0  501    0  0.00000000000E+00 -0.00000000000E+00 -0.32682402166E+03  0.32682402166E+03  0.00000000000E+00 0. -1.
         25    2    1    2    0    0  0.86486287001E+02 -0.14732553225E+03 -0.74474762847E+02  0.22444981062E+03  0.12508611791E+03 0.  0.
          5    1    3    3  502    0 -0.30267060336E+02 -0.19570216601E+02 -0.76639663704E+00  0.36292534811E+02  0.41800000000E+01 0.  1.
         -5    1    3    3    0  502  0.11675334734E+03 -0.12775531565E+03 -0.73708366210E+02  0.18815727581E+03  0.41800000000E+01 0.  1.
        -11    1    1    2    0    0 -0.12998960860E+02  0.45667165991E+01  0.14845160732E+02  0.20253559714E+02  0.00000000000E+00 0.  1.
         11    1    1    2    0    0 -0.73487326142E+02  0.14275881565E+03 -0.13775608357E+03  0.21155898731E+03  0.00000000000E+00 0. -1.
</event>
<event>
 7    1  0.2690635E-009  0.1243133E+03  0.7561462E-02  0.1236146E+00
         -1   -1    0    0    0  501 -0.00000000000E+00  0.00000000000E+00  0.43276178202E+02  0.43276178202E+02  0.00000000000E+00 0.  1.
          1   -1    0    0  501    0  0.00000000000E+00 -0.00000000000E+00 -0.48212448703E+03  0.48212448703E+03  0.00000000000E+00 0. -1.
         25    2    1    2    0    0  0.69341217511E+02  0.20687493937E+02 -0.13262070997E+03  0.19614246081E+03  0.12508970927E+03 0.  0.
          5    1    3    3  502    0 -0.68815391315E+01  0.55140400588E+02 -0.79071676067E+02  0.96734800945E+02  0.41800000000E+01 0.  1.
         -5    1    3    3    0  502  0.76222756643E+02 -0.34452906651E+02 -0.53549033905E+02  0.99407659861E+02  0.41800000000E+01 0.  1.
        -11    1    1    2    0    0 -0.25097159271E+02  0.31794483147E+02 -0.19003542313E+03  0.19430444824E+03  0.00000000000E+00 0. -1.
         11    1    1    2    0    0 -0.44244058240E+02 -0.52481977085E+02 -0.11619217573E+03  0.13495375619E+03  0.00000000000E+00 0.  1.
</event>
<event>
 7    1  0.2690635E-009  0.1027230E+03  0.7561462E-02  0.1274672E+00
          2   -1    0    0  501    0  0.00000000000E+00  0.00000000000E+00  0.27507467512E+03  0.27507467512E+03  0.00000000000E+00 0. -1.
         -2   -1    0    0    0  501 -0.00000000000E+00 -0.00000000000E+00 -0.49844981105E+02  0.49844981105E+02  0.00000000000E+00 0.  1.
         25    2    1    2    0    0 -0.35425813158E+02 -0.25938007418E+02  0.15019421128E+03  0.20033649028E+03  0.12509452334E+03 0.  0.
          5    1    3    3  502    0 -0.47365694929E+02  0.25473387729E+02  0.13480967940E+03  0.14520166872E+03  0.41800000000E+01 0.  1.
         -5    1    3    3    0  502  0.11939881771E+02 -0.51411395147E+02  0.15384531879E+02  0.55134821563E+02  0.41800000000E+01 0.  1.
        -11    1    1    2    0    0  0.63740605764E+02  0.29096081920E+02  0.45491661302E+02  0.83540038630E+02  0.00000000000E+00 0. -1.
         11    1    1    2    0    0 -0.28314792606E+02 -0.31580745019E+01  0.29543821433E+02  0.41043127314E+02  0.00000000000E+00 0.  1.
</event>
<event>
 7    1  0.2690635E-009  0.1267794E+03  0.7561462E-02  0.1232314E+00
         -2   -1    0    0    0  501 -0.00000000000E+00  0.00000000000E+00  0.48328549485E+02  0.48328549485E+02  0.00000000000E+00 0. -1.
          2   -1    0    0  501    0  0.00000000000E+00 -0.00000000000E+00 -0.46722331265E+03  0.46722331265E+03  0.00000000000E+00 0.  1.
         25    2    1    2    0    0  0.82063479575E+02  0.56404988176E+02 -0.27385219973E+03  0.31710784292E+03  0.12508564814E+03 0.  0.
          5    1    3    3  502    0  0.66961486567E+02  0.81813384237E+02 -0.26595580305E+03  0.28622933480E+03  0.41800000000E+01 0.  1.
         -5    1    3    3    0  502  0.15101993008E+02 -0.25408396061E+02 -0.78963966882E+01  0.30878508123E+02  0.41800000000E+01 0.  1.
        -11    1    1    2    0    0 -0.39223584525E+02  0.84994719044E+01 -0.10188219662E+03  0.10950211228E+03  0.00000000000E+00 0.  1.
         11    1    1    2    0    0 -0.42839895050E+02 -0.64904460080E+02 -0.43160366811E+02  0.88941906936E+02  0.00000000000E+00 0. -1.
</event>
<event>
 7    1  0.2690635E-009  0.1039941E+03  0.7561462E-02  0.1272114E+00
         -2   -1    0    0    0  501 -0.00000000000E+00  0.00000000000E+00  0.10495002475E+03  0.10495002475E+03  0.00000000000E+00 0.  1.
          2   -1    0    0  501    0  0.00000000000E+00 -0.00000000000E+00 -0.28556528042E+03  0.28556528042E+03  0.00000000000E+00 0. -1.
         25    2    1    2    0    0  0.78755169444E+02  0.59662347575E+02  0.68769101501E+01  0.15955195769E+03  0.12509021895E+03 0.  0.
          5    1    3    3  502    0  0.68525444387E+02  0.66993519465E+02  0.54357197762E+02  0.11025445808E+03  0.41800000000E+01 0. -1.
         -5    1    3    3    0  502  0.10229725057E+02 -0.73311718899E+01 -0.47480287612E+02  0.49297499609E+02  0.41800000000E+01 0. -1.
        -11    1    1    2    0    0 -0.25335650219E+02 -0.19360214029E+02  0.15883123110E-02  0.31885938308E+02  0.00000000000E+00 0.  1.
         11    1    1    2    0    0 -0.53419519225E+02 -0.40302133546E+02 -0.18749375414E+03  0.19907740917E+03  0.00000000000E+00 0. -1.
</event>
<event>
 7    1  0.2690635E-009  0.1003008E+03  0.7561462E-02  0.1279665E+00
         -1   -1    0    0    0  501 -0.00000000000E+00  0.00000000000E+00  0.20769001467E+02  0.20769001467E+02  0.00000000000E+00 0.  1.
          1   -1    0    0  501    0  0.00000000000E+00 -0.00000000000E+00 -0.11782262471E+04  0.11782262471E+04  0.00000000000E+00 0. -1.
         25    2    1    2    0    0  0.32307460151E+02  0.58651299483E+02 -0.98017464183E+03  0.99039080873E+03  0.12509148102E+03 0.  0.
          5    1    3    3  502    0 -0.36199617544E+02 -0.73717252887E+01 -0.46526937939E+03  0.46675242093E+03  0.41800000000E+01 0. -1.
         -5    1    3    3    0  502  0.68507077695E+02  0.66023024772E+02 -0.51490526244E+03  0.52363838780E+03  0.41800000000E+01 0. -1.
        -11    1    1    2    0    0 -0.10839760966E+02 -0.89801421205E+01  0.75782292075E+01  0.15986648436E+02  0.00000000000E+00 0.  1.
         11    1    1    2    0    0 -0.21467699185E+02 -0.49671157363E+02 -0.18486083301E+03  0.19261779140E+03  0.00000000000E+00 0. -1.
</event>
<event>
 7    1  0.2690635E-009  0.9690818E+02  0.7561462E-02  0.1286935E+00
          1   -1    0    0  501    0  0.00000000000E+00  0.00000000000E+00  0.34023598284E+03  0.34023598284E+03  0.00000000000E+00 0. -1.
         -1   -1    0    0    0  501 -0.00000000000E+00 -0.00000000000E+00 -0.48742693104E+02  0.48742693104E+02  0.00000000000E+00 0.  1.
         25    2    1    2    0    0 -0.11349366563E+02  0.15461291013E+02  0.62372854198E+02  0.14108719117E+03  0.12508941973E+03 0.  0.
          5    1    3    3  502    0 -0.59755447288E+02 -0.62272614367E+01  0.63966562085E+02  0.87856051189E+02  0.41800000000E+01 0. -1.
         -5    1    3    3    0  502  0.48406080725E+02  0.21688552450E+02 -0.15937078870E+01  0.53231139978E+02  0.41800000000E+01 0. -1.
        -11    1    1    2    0    0 -0.33552817253E+02 -0.10766275069E+02  0.16940117403E+03  0.17302734462E+03  0.00000000000E+00 0. -1.
         11    1    1    2    0    0  0.44902183815E+02 -0.46950159435E+01  0.59719261514E+02  0.74864140160E+02  0.00000000000E+00 0.  1.
</event>
<event>
 7    1  0.2690635E-009  0.1040242E+03  0.7561462E-02  0.1272054E+00
         -2   -1    0    0    0  501 -0.00000000000E+00  0.00000000000E+00  0.17371390634E+03  0.17371390634E+03  0.00000000000E+00 0.  1.
          2   -1    0    0  501    0  0.00000000000E+00 -0.00000000000E+00 -0.78676001469E+02  0.78676001469E+02  0.00000000000E+00 0. -1.
         25    2    1    2    0    0  0.25724725809E+02  0.29852558099E+02  0.35013886973E+02  0.13574189744E+03  0.12508778397E+03 0.  0.
          5    1    3    3  502    0 -0.44829025250E+02  0.31433216334E+02  0.34869767528E+02  0.65046611607E+02  0.41800000000E+01 0. -1.
         -5    1    3    3    0  502  0.70553751059E+02 -0.15806582358E+01  0.14411944439E+00  0.70695285836E+02  0.41800000000E+01 0. -1.
        -11    1    1    2    0    0  0.21139773830E+02 -0.28595807339E+02  0.60023137232E+02  0.69766662799E+02  0.00000000000E+00 0.  1.
         11    1    1    2    0    0 -0.46864499638E+02 -0.12567507601E+01  0.88066515072E-03  0.46881347566E+02  0.00000000000E+00 0. -1.
</event>
<event>
 7    1  0.2690635E-009  0.9790132E+02  0.7561462E-02  0.1284772E+00
         -1   -1    0    0    0  501 -0.00000000000E+00  0.00000000000E+00  0.36826688101E+03  0.36826688101E+03  0.00000000000E+00 0.  1.
          1   -1    0    0  501    0  0.00000000000E+00 -0.00000000000E+00 -0.40106449368E+02  0.40106449368E+02  0.00000000000E+00 0. -1.
         25    2    1    2    0    0 -0.41047017864E+02 -0.44807362018E+01  0.24809732978E+03  0.28089938994E+03  0.12508895855E+03 0.  0.
          5    1    3    3  502    0 -0.44178142945E+02  0.35184744308E+02  0.40854229274E+02  0.69829900442E+02  0.41800000000E+01 0.  1.
         -5    1    3    3    0  502  0.31311250808E+01 -0.39665480510E+02  0.20724310051E+03  0.21106948950E+03  0.41800000000E+01 0.  1.
        -11    1    1    2    0    0  0.18676346703E+02  0.47299244370E+02  0.39460722991E+02  0.64367484829E+02  0.00000000000E+00 0.  1.
         11    1    1    2    0    0  0.22370671161E+02 -0.42818508168E+02  0.40602378868E+02  0.63106455611E+02  0.00000000000E+00 0. -1.
</event>
<event>
 7    1  0.2690635E-009  0.8269731E+02  0.7561462E-02  0.1321567E+00
         -2   -1    0    0    0  501 -0.00000000000E+00  0.00000000000E+00  0.34940859865E+02  0.34940859865E+02  0.00000000000E+00 0. -1.
          2   -1    0    0  501    0  0.00000000000E+00 -0.00000000000E+00 -0.79007940029E+03  0.79007940029E+03  0.00000000000E+00 0.  1.
         25    2    1    2    0    0 -0.17428272122E+02  0.51573182438E+01 -0.71033342052E+03  0.72149290784E+03  0.12509238649E+03 0.  0.
          5    1    3    3  502    0  0.28106210897E+02 -0.47368224112E+02 -0.37074344420E+03  0.37483580614E+03  0.41800000000E+01 0. -1.
         -5    1    3    3    0  502 -0.45534483019E+02  0.52525542356E+02 -0.33958997632E+03  0.34665710170E+03  0.41800000000E+01 0. -1.
        -11    1    1    2    0    0  0.17800687483E+02  0.13196676279E+02 -0.69391424126E+02  0.72843575434E+02  0.00000000000E+00 0.  1.
         11    1    1    2    0    0 -0.37241536138E+00 -0.18353994523E+02  0.24586304223E+02  0.30683776878E+02  0.00000000000E+00 0. -1.
</event>
<event>
 7    1  0.2690635E-009  0.1126515E+03  0.7561462E-02  0.1255737E+00
         -1   -1    0    0    0  501 -0.00000000000E+00  0.00000000000E+00  0.49388709033E+02  0.49388709033E+02  0.00000000000E+00 0. -1.
          1   -1    0    0  501    0  0.00000000000E+00 -0.00000000000E+00 -0.45018526261E+03  0.45018526261E+03  0.00000000000E+00 0.  1.
         25    2    1    2    0    0 -0.38420029177E+02 -0.41418641109E+02 -0.35738353541E+03  0.38283849603E+03  0.12510283846E+03 0.  0.
          5    1    3    3  502    0 -0.33192323783E+02 -0.85496678832E+02 -0.21951523629E+03  0.23794079897E+03  0.41800000000E+01 0. -1.
         -5    1    3    3    0  502 -0.52277053940E+01  0.44078037723E+02 -0.13786829911E+03  0.14489769706E+03  0.41800000000E+01 0. -1.
        -11    1    1    2    0    0  0.90242805338E+01  0.55561596988E+02 -0.58157334163E+02  0.80937038592E+02  0.00000000000E+00 0.  1.
         11    1    1    2    0    0  0.29395748643E+02 -0.14142955879E+02  0.14744315991E+02  0.35798437023E+02  0.00000000000E+00 0. -1.
</event>
<event>
 7    1  0.2690635E-009  0.9865769E+02  0.7561462E-02  0.1283144E+00
         -2   -1    0    0    0  501 -0.00000000000E+00  0.00000000000E+00  0.14777741792E+03  0.14777741792E+03  0.00000000000E+00 0.  1.
          2   -1    0    0  501    0  0.00000000000E+00 -0.00000000000E+00 -0.90074298045E+02  0.90074298045E+02  0.00000000000E+00 0. -1.
         25    2    1    2    0    0  0.22409584541E+02 -0.34202955019E+01 -0.32586400101E+01  0.12716975638E+03  0.12509052843E+03 0.  0.
          5    1    3    3  502    0  0.44446527469E+02  0.50747150075E+02  0.58383754962E+01  0.67840445703E+02  0.41800000000E+01 0. -1.
         -5    1    3    3    0  502 -0.22036942928E+02 -0.54167445577E+02 -0.90970155063E+01  0.59329310674E+02  0.41800000000E+01 0. -1.
        -11    1    1    2    0    0 -0.38558649934E+02  0.23634774260E+02  0.69945861091E+02  0.83293430250E+02  0.00000000000E+00 0.  1.
         11    1    1    2    0    0  0.16149065393E+02 -0.20214478758E+02 -0.89841012094E+01  0.27388529334E+02  0.00000000000E+00 0. -1.
</event>
<event>
 7    1  0.2690635E-009  0.1343475E+03  0.7561462E-02  0.1221144E+00
         -2   -1    0    0    0  501 -0.00000000000E+00  0.00000000000E+00  0.25835695241E+03  0.25835695241E+03  0.00000000000E+00 0.  1.
          2   -1    0    0  501    0  0.00000000000E+00 -0.00000000000E+00 -0.79572432656E+02  0.79572432656E+02  0.00000000000E+00 0. -1.
         25    2    1    2    0    0  0.71537189346E+02 -0.62197662711E+02  0.93717403322E+02  0.18280162569E+03  0.12508942387E+03 0.  0.
          5    1    3    3  502    0 -0.12689422718E+01  0.28772637785E+02  0.50829699119E+02  0.58571371950E+02  0.41800000000E+01 0. -1.
         -5    1    3    3    0  502  0.72806131617E+02 -0.90970300496E+02  0.42887704203E+02  0.12423025374E+03  0.41800000000E+01 0. -1.
        -11    1    1    2    0    0 -0.28430540853E+01  0.53708315802E+02  0.62207149610E+02  0.82233786277E+02  0.00000000000E+00 0. -1.
         11    1    1    2    0    0 -0.68694135260E+02  0.84893469096E+01  0.22859966819E+02  0.72893973092E+02  0.00000000000E+00 0.  1.
</event>
<event>
 7    1  0.2690635E-009  0.1323341E+03  0.7561462E-02  0.1224033E+00
          1   -1    0    0  501    0  0.00000000000E+00  0.00000000000E+00  0.47370650698E+02  0.47370650698E+02  0.00000000000E+00 0. -1.
         -1   -1    0    0    0  501 -0.00000000000E+00 -0.00000000000E+00 -0.48942892265E+03  0.48942892265E+03  0.00000000000E+00 0.  1.
         25    2    1    2    0    0 -0.25196533301E+02  0.78167914842E+02 -0.11880124715E+03  0.19106534899E+03  0.12508854088E+03 0.  0.
          5    1    3    3  502    0 -0.72903814637E+02  0.24114177778E+02 -0.53289427536E+02  0.93561184503E+02  0.41800000000E+01 0.  1.
         -5    1    3    3    0  502  0.47707281336E+02  0.54053737064E+02 -0.65511819611E+02  0.97504164485E+02  0.41800000000E+01 0.  1.
        -11    1    1    2    0    0  0.53084763535E+02 -0.67065461484E+02 -0.17897489055E+03  0.19836274774E+03  0.00000000000E+00 0. -1.
         11    1    1    2    0    0 -0.27888230234E+02 -0.11102453358E+02 -0.14428213426E+03  0.14737147662E+03  0.00000000000E+00 0.  1.
</event>
<event>
 7    1  0.2690635E-009  0.1013023E+03  0.7561462E-02  0.1277581E+00
         -1   -1    0    0    0  501 -0.00000000000E+00  0.00000000000E+00  0.18918453154E+03  0.18918453154E+03  0.00000000000E+00 0. -1.
          1   -1    0    0  501    0  0.00000000000E+00 -0.00000000000E+00 -0.90147830599E+02  0.90147830599E+02  0.00000000000E+00 0.  1.
         25    2    1    2    0    0 -0.18953909131E+02 -0.49306343963E+02  0.10958917037E+03  0.17449283432E+03  0.12509035430E+03 0.  0.
          5    1    3    3  502    0  0.33898072615E+02 -0.68485265288E+02  0.80421696725E+02  0.11101546105E+03  0.41800000000E+01 0. -1.
         -5    1    3    3    0  502 -0.52851981746E+02  0.19178921325E+02  0.29167473644E+02  0.63477373264E+02  0.41800000000E+01 0. -1.
        -11    1    1    2    0    0  0.66581369335E+01  0.55520732452E+02  0.28975221149E+02  0.62979726580E+02  0.00000000000E+00 0. -1.
         11    1    1    2    0    0  0.12295772197E+02 -0.62143884882E+01 -0.39527690574E+02  0.41859801246E+02  0.00000000000E+00 0.  1.
</event>
<event>
 7    1  0.2690635E-009  0.8886502E+02  0.7561462E-02  0.1305624E+00
         -1   -1    0    0    0  501 -0.00000000000E+00  0.00000000000E+00  0.15683426942E+03  0.15683426942E+03  0.00000000000E+00 0.  1.
          1   -1    0    0  501    0  0.00000000000E+00 -0.00000000000E+00 -0.91416477017E+02  0.91416477017E+02  0.00000000000E+00 0. -1.
         25    2    1    2    0    0 -0.43198263451E+02 -0.31178639282E+02  0.30207917434E+02  0.13927767457E+03  0.12509018684E+03 0.  0.
          5    1    3    3  502    0 -0.49305903433E+01  0.20297254097E+02 -0.39239689412E+02  0.44648794723E+02  0.41800000000E+01 0. -1.
         -5    1    3    3    0  502 -0.38267673108E+02 -0.51475893378E+02  0.69447606847E+02  0.94628879846E+02  0.41800000000E+01 0. -1.
        -11    1    1    2    0    0 -0.18710252731E+02  0.23084854224E+02 -0.10584380843E+02  0.31543829343E+02  0.00000000000E+00 0. -1.
         11    1    1    2    0    0  0.61908516182E+02  0.80937850573E+01  0.45794255809E+02  0.77429242522E+02  0.00000000000E+00 0.  1.
</event>
<event>
 7    1  0.3281192E-009  0.1734632E+03  0.7561462E-02  0.1174284E+00
         -1   -1    0    0    0  501 -0.00000000000E+00  0.00000000000E+00  0.15535918088E+03  0.15535918088E+03  0.00000000000E+00 0.  1.
          1   -1    0    0  501    0  0.00000000000E+00 -0.00000000000E+00 -0.23536673087E+03  0.23536673087E+03  0.00000000000E+00 0. -1.
         25    2    1    2    0    0  0.15108092959E+03  0.11545492348E+02 -0.82773316157E+02  0.21320717174E+03  0.12508849081E+03 0.  0.
          5    1    3    3  502    0  0.16977141503E+03 -0.36635740135E+01 -0.82290806552E+02  0.18874587248E+03  0.41800000000E+01 0.  1.
         -5    1    3    3    0  502 -0.18690485443E+02  0.15209066362E+02 -0.48250960502E+00  0.24461299254E+02  0.41800000000E+01 0.  1.
        -11    1    1    2    0    0 -0.95588434061E+02  0.15078108682E+01 -0.42601417229E+02  0.10466280605E+03  0.00000000000E+00 0. -1.
         11    1    1    2    0    0 -0.55492495528E+02 -0.13053303216E+02  0.45367183390E+02  0.72855933962E+02  0.00000000000E+00 0.  1.
</event>
<event>
 7    1  0.2690635E-009  0.1193266E+03  0.7561462E-02  0.1244212E+00
          2   -1    0    0  501    0  0.00000000000E+00  0.00000000000E+00  0.60248594381E+03  0.60248594381E+03  0.00000000000E+00 0. -1.
         -2   -1    0    0    0  501 -0.00000000000E+00 -0.00000000000E+00 -0.40140065221E+02  0.40140065221E+02  0.00000000000E+00 0.  1.
         25    2    1    2    0    0  0.50314446598E+02  0.46360003383E+01  0.98041551240E+02  0.16677287677E+03  0.12509200863E+03 0.  0.
          5    1    3    3  502    0  0.53681705051E+02 -0.53744566736E+02  0.59937739262E+02  0.96851478557E+02  0.41800000000E+01 0. -1.
         -5    1    3    3    0  502 -0.33672584538E+01  0.58380567074E+02  0.38103811978E+02  0.69921398217E+02  0.41800000000E+01 0. -1.
        -11    1    1    2    0    0 -0.92611180556E+01 -0.45257938682E+02  0.19007526489E+03  0.19560842427E+03  0.00000000000E+00 0.  1.
         11    1    1    2    0    0 -0.41053328542E+02  0.40621938344E+02  0.27422906246E+03  0.28024470799E+03  0.00000000000E+00 0. -1.
</event>
<event>
 7    1  0.2690635E-009  0.1343711E+03  0.7561462E-02  0.1221110E+00
         -2   -1    0    0    0  501 -0.00000000000E+00  0.00000000000E+00  0.32983275576E+02  0.32983275576E+02  0.00000000000E+00 0.  1.
          2   -1    0    0  501    0  0.00000000000E+00 -0.00000000000E+00 -0.12261131884E+04  0.12261131884E+04  0.00000000000E+00 0. -1.
         25    2    1    2    0    0 -0.17590879921E+02  0.11560949413E+03 -0.10118336785E+04  0.10262211530E+04  0.12508983836E+03 0.  0.
          5    1    3    3  502    0 -0.27811489873E+02  0.57258546984E+02 -0.15896482485E+03  0.17128720942E+03  0.41800000000E+01 0.  1.
         -5    1    3    3    0  502  0.10220609952E+02  0.58350947149E+02 -0.85286885363E+03  0.85493394353E+03  0.41800000000E+01 0.  1.
        -11    1    1    2    0    0  0.33338395007E+02 -0.48495608995E+01 -0.51234008659E+02  0.61317945708E+02  0.00000000000E+00 0. -1.
         11    1    1    2    0    0 -0.15747515086E+02 -0.11075993323E+03 -0.13006222564E+03  0.17155736527E+03  0.00000000000E+00 0.  1.
</event>
<event>
 7    1  0.2690635E-009  0.1297621E+03  0.7561462E-02  0.1227809E+00
         -1   -1    0    0    0  501 -0.00000000000E+00  0.00000000000E+00  0.10794499709E+04  0.10794499709E+04  0.00000000000E+00 0.  1.
          1   -1    0    0  501    0  0.00000000000E+00 -0.00000000000E+00 -0.16040514806E+02  0.16040514806E+02  0.00000000000E+00 0. -1.
         25    2    1    2    0    0  0.67999084674E+01 -0.69942975944E+02  0.65130706602E+03  0.66692381279E+03  0.12509284221E+03 0.  0.
          5    1    3    3  502    0 -0.49922391076E+02  0.22427891991E+01  0.18686808295E+03  0.19347978721E+03  0.41800000000E+01 0. -1.
         -5    1    3    3    0  502  0.56722299543E+02 -0.72185765143E+02  0.46443898307E+03  0.47344402557E+03  0.41800000000E+01 0. -1.
        -11    1    1    2    0    0  0.30465177344E+02 -0.76394393600E+01  0.10022150260E+03  0.10502779465E+03  0.00000000000E+00 0. -1.
         11    1    1    2    0    0 -0.37265085812E+02  0.77582415304E+02  0.31188088745E+03  0.32353887825E+03  0.00000000000E+00 0.  1.
</event>
<event>
 7    1  0.2690635E-009  0.1101172E+03  0.7561462E-02  0.1260353E+00
         -1   -1    0    0    0  501 -0.00000000000E+00  0.00000000000E+00  0.43285944952E+02  0.43285944952E+02  0.00000000000E+00 0.  1.
          1   -1    0    0  501    0  0.00000000000E+00 -0.00000000000E+00 -0.67798520694E+03  0.67798520694E+03  0.00000000000E+00 0. -1.
         25    2    1    2    0    0  0.47214397199E+02  0.18265899961E+02 -0.60125298061E+03  0.61621151845E+03  0.12509454972E+03 0.  0.
          5    1    3    3  502    0  0.71684643747E+02  0.54720311072E+02 -0.42954032193E+03  0.43892523414E+03  0.41800000000E+01 0. -1.
         -5    1    3    3    0  502 -0.24470246548E+02 -0.36454411112E+02 -0.17171265867E+03  0.17728628431E+03  0.41800000000E+01 0. -1.
        -11    1    1    2    0    0 -0.25406592358E+02 -0.44800864319E+02 -0.45435815330E+02  0.68680606387E+02  0.00000000000E+00 0. -1.
         11    1    1    2    0    0 -0.21807804841E+02  0.26534964359E+02  0.11989533951E+02  0.36379027060E+02  0.00000000000E+00 0.  1.
</event>
<event>
 7    1  0.2690635E-009  0.1546845E+03  0.7561462E-02  0.1194832E+00
         -3   -1    0    0    0  501 -0.00000000000E+00  0.00000000000E+00  0.20703818494E+03  0.20703818494E+03  0.00000000000E+00 0.  1.
          3   -1    0    0  501    0  0.00000000000E+00 -0.00000000000E+00 -0.14469342452E+03  0.14469342452E+03  0.00000000000E+00 0. -1.
         25    2    1    2    0    0 -0.36207980046E+02  0.12062100652E+03 -0.12643798752E+02  0.17795220876E+03  0.12508668164E+03 0.  0.
          5    1    3    3  502    0  0.46517130021E+02  0.50514246620E+02 -0.90877808094E+00  0.68802839873E+02  0.41800000000E+01 0. -1.
         -5    1    3    3    0  502 -0.82725110067E+02  0.70106759900E+02 -0.11735020671E+02  0.10914936889E+03  0.41800000000E+01 0. -1.
        -11    1    1    2    0    0  0.73194255054E+01 -0.88706625749E+02  0.19862087781E+01  0.89030244674E+02  0.00000000000E+00 0. -1.
         11    1    1    2    0    0  0.28888554541E+02 -0.31914380771E+02  0.73002350391E+02  0.84749156020E+02  0.00000000000E+00 0.  1.
</event>
<event>
 7    1  0.2690635E-009  0.1198211E+03  0.7561462E-02  0.1243393E+00
         -3   -1    0    0    0  501 -0.00000000000E+00  0.00000000000E+00  0.12615984531E+03  0.12615984531E+03  0.00000000000E+00 0.  1.
          3   -1    0    0  501    0  0.00000000000E+00 -0.00000000000E+00 -0.24898169050E+03  0.24898169050E+03  0.00000000000E+00 0. -1.
         25    2    1    2    0    0 -0.69336225733E+02 -0.40896092510E+02  0.62629236795E+02  0.16139989604E+03  0.12508997785E+03 0.  0.
          5    1    3    3  502    0  0.13229794240E+02  0.24426762563E+02 -0.13737177327E+02  0.31271018945E+02  0.41800000000E+01 0.  1.
         -5    1    3    3    0  502 -0.82566019973E+02 -0.65322855073E+02  0.76366414123E+02  0.13012887710E+03  0.41800000000E+01 0.  1.
        -11    1    1    2    0    0  0.83641623190E+01  0.44334416969E+02 -0.74595009400E+02  0.87177492317E+02  0.00000000000E+00 0.  1.
         11    1    1    2    0    0  0.60972063414E+02 -0.34383244585E+01 -0.11085607258E+03  0.12656414745E+03  0.00000000000E+00 0. -1.
</event>
<event>
 7    1  0.2690635E-009  0.1202782E+03  0.7561462E-02  0.1242639E+00
         -1   -1    0    0    0  501 -0.00000000000E+00  0.00000000000E+00  0.66236547381E+03  0.66236547381E+03  0.00000000000E+00 0.  1.
          1   -1    0    0  501    0  0.00000000000E+00 -0.00000000000E+00 -0.33426158768E+02  0.33426158768E+02  0.00000000000E+00 0. -1.
         25    2    1    2    0    0  0.88321090766E+02  0.35429678165E+02  0.42321174453E+03  0.45145532755E+03  0.12509138617E+03 0.  0.
          5    1    3    3  502    0 -0.40980996628E+01 -0.15644000214E+02  0.23510400893E+03  0.23569661979E+03  0.41800000000E+01 0. -1.
         -5    1    3    3    0  502  0.92419190429E+02  0.51073678379E+02  0.18810773559E+03  0.21575870776E+03  0.41800000000E+01 0. -1.
        -11    1    1    2    0    0 -0.40834899780E+02  0.19765230096E+02  0.13660163403E+03  0.14393804147E+03  0.00000000000E+00 0. -1.
         11    1    1    2    0    0 -0.47486190986E+02 -0.55194908261E+02  0.69125936480E+02  0.10039826356E+03  0.00000000000E+00 0.  1.
</event>
<event>
 7    1  0.2690635E-009  0.5972307E+02  0.7561462E-02  0.1398998E+00
         -4   -1    0    0    0  501 -0.00000000000E+00  0.00000000000E+00  0.25641169880E+03  0.25641169880E+03  0.00000000000E+00 0. -1.
          4   -1    0    0  501    0  0.00000000000E+00 -0.00000000000E+00 -0.48028288581E+02  0.48028288581E+02  0.00000000000E+00 0.  1.
         25    2    1    2    0    0 -0.18106166876E+02 -0.94620697725E+01  0.12370080375E+03  0.17712099438E+03  0.12511032635E+03 0.  0.
          5    1    3    3  502    0  0.22309978981E+02 -0.81519042175E+00  0.13268837400E+03  0.13461826285E+03  0.41800000000E+01 0. -1.
         -5    1    3    3    0  502 -0.40416145856E+02 -0.86468793508E+01 -0.89875702536E+01  0.42502731529E+02  0.41800000000E+01 0. -1.
        -11    1    1    2    0    0  0.29822852601E+00 -0.20411181772E+02  0.89867043929E+02  0.92156339261E+02  0.00000000000E+00 0. -1.
         11    1    1    2    0    0  0.17807938350E+02  0.29873251545E+02 -0.51844374602E+01  0.35162653738E+02  0.00000000000E+00 0.  1.
</event>
<event>
 7    1  0.2690635E-009  0.1561651E+03  0.7561462E-02  0.1193096E+00
         -1   -1    0    0    0  501 -0.00000000000E+00  0.00000000000E+00  0.20547746637E+03  0.20547746637E+03  0.00000000000E+00 0.  1.
          1   -1    0    0  501    0  0.00000000000E+00 -0.00000000000E+00 -0.13846323644E+03  0.13846323644E+03  0.00000000000E+00 0. -1.
         25    2    1    2    0    0  0.13800527764E+02  0.12560011127E+03  0.94372574127E+01  0.17804989195E+03  0.12508740815E+03 0.  0.
          5    1    3    3  502    0 -0.34085662752E+02  0.93341208404E+02  0.46000206911E+02  0.10958058691E+03  0.41800000000E+01 0. -1.
         -5    1    3    3    0  502  0.47886190516E+02  0.32258902869E+02 -0.36562949498E+02  0.68469305039E+02  0.41800000000E+01 0. -1.
        -11    1    1    2    0    0  0.35075943834E+02 -0.83149734375E+02  0.26336841989E+02  0.94009730392E+02  0.00000000000E+00 0.  1.
         11    1    1    2    0    0 -0.48876471598E+02 -0.42450376899E+02  0.31240130529E+02  0.71881080475E+02  0.00000000000E+00 0. -1.
</event>
<event>
 7    1  0.2690635E-009  0.1021973E+03  0.7561462E-02  0.1275742E+00
          2   -1    0    0  501    0  0.00000000000E+00  0.00000000000E+00  0.31232650553E+03  0.31232650553E+03  0.00000000000E+00 0.  1.
         -2   -1    0    0    0  501 -0.00000000000E+00 -0.00000000000E+00 -0.70915057536E+02  0.70915057536E+02  0.00000000000E+00 0. -1.
         25    2    1    2    0    0  0.61543935757E+02  0.80862697581E+02  0.13102683041E+03  0.20771199340E+03  0.12509920075E+03 0.  0.
          5    1    3    3  502    0  0.16967673754E+02  0.26231244825E+02  0.13336570200E+03  0.13703964036E+03  0.41800000000E+01 0.  1.
         -5    1    3    3    0  502  0.44576262003E+02  0.54631452755E+02 -0.23388715987E+01  0.70672353043E+02  0.41800000000E+01 0.  1.
        -11    1    1    2    0    0 -0.54353958799E+01 -0.13621356098E+02  0.82246950799E+02  0.83544274406E+02  0.00000000000E+00 0.  1.
         11    1    1    2    0    0 -0.56108539877E+02 -0.67241341483E+02  0.28137666787E+02  0.91985295258E+02  0.00000000000E+00 0. -1.
</event>
<event>
 7    1  0.2690635E-009  0.1104236E+03  0.7561462E-02  0.1259787E+00
         -2   -1    0    0    0  501 -0.00000000000E+00  0.00000000000E+00  0.96841137567E+01  0.96841137567E+01  0.00000000000E+00 0.  1.
          2   -1    0    0  501    0  0.00000000000E+00 -0.00000000000E+00 -0.17858139722E+04  0.17858139722E+04  0.00000000000E+00 0. -1.
         25    2    1    2    0    0  0.22350750629E+02  0.70937104133E+01 -0.14310466688E+04  0.14366945036E+04  0.12508657650E+03 0.  0.
          5    1    3    3  502    0 -0.35520523345E+01  0.62515230097E+02 -0.56354379321E+03  0.56702720423E+03  0.41800000000E+01 0.  1.
         -5    1    3    3    0  502  0.25902802964E+02 -0.55421519683E+02 -0.86750287560E+03  0.86966729939E+03  0.41800000000E+01 0.  1.
        -11    1    1    2    0    0 -0.42580646433E+02  0.31657315913E+02 -0.21978332720E+03  0.22609734191E+03  0.00000000000E+00 0.  1.
         11    1    1    2    0    0  0.20229895804E+02 -0.38751026326E+02 -0.12529986245E+03  0.13270624045E+03  0.00000000000E+00 0. -1.
</event>
<event>
 7    1  0.2690635E-009  0.1460844E+03  0.7561462E-02  0.1205369E+00
          1   -1    0    0  501    0  0.00000000000E+00  0.00000000000E+00  0.11090395742E+03  0.11090395742E+03  0.00000000000E+00 0. -1.
         -1   -1    0    0    0  501 -0.00000000000E+00 -0.00000000000E+00 -0.24648168863E+03  0.24648168863E+03  0.00000000000E+00 0.  1.
         25    2    1    2    0    0 -0.10582801941E+03 -0.48845928510E+02 -0.11992584350E+03  0.20884047143E+03  0.12508653062E+03 0.  0.
          5    1    3    3  502    0  0.32210605084E+01 -0.39210860661E+02  0.80524298738E+01  0.40375498157E+02  0.41800000000E+01 0. -1.
         -5    1    3    3    0  502 -0.10904907992E+03 -0.96350678485E+01 -0.12797827338E+03  0.16846497327E+03  0.41800000000E+01 0. -1.
        -11    1    1    2    0    0  0.41118023868E+02  0.64483941930E+02 -0.26815621452E+02  0.81042878820E+02  0.00000000000E+00 0.  1.
         11    1    1    2    0    0  0.64709995540E+02 -0.15638013420E+02  0.11163733744E+02  0.67502295796E+02  0.00000000000E+00 0. -1.
</event>
<event>
 7    1  0.2690635E-009  0.1409167E+03  0.7561462E-02  0.1212101E+00
         -4   -1    0    0    0  501 -0.00000000000E+00  0.00000000000E+00  0.42762032193E+02  0.42762032193E+02  0.00000000000E+00 0.  1.
          4   -1    0    0  501    0  0.00000000000E+00 -0.00000000000E+00 -0.61141784215E+03  0.61141784215E+03  0.00000000000E+00 0. -1.
         25    2    1    2    0    0  0.82786405687E+02  0.84720996985E+02 -0.33013151957E+03  0.37237832327E+03  0.12509020400E+03 0.  0.
          5    1    3    3  502    0 -0.15477311137E+02 -0.36632100035E+01  0.32458664562E+00  0.16448222520E+02  0.41800000000E+01 0. -1.
         -5    1    3    3    0  502  0.98263716825E+02  0.88384206988E+02 -0.33045610621E+03  0.35593010075E+03  0.41800000000E+01 0. -1.
        -11    1    1    2    0    0 -0.79642014141E+02 -0.41469469400E+02 -0.90223655672E+02  0.12729051556E+03  0.00000000000E+00 0.  1.
         11    1    1    2    0    0 -0.31443915463E+01 -0.43251527585E+02 -0.14830063471E+03  0.15451103551E+03  0.00000000000E+00 0. -1.
</event>
<event>
 7    1  0.2690635E-009  0.1511388E+03  0.7561462E-02  0.1199081E+00
          1   -1    0    0  501    0  0.00000000000E+00  0.00000000000E+00  0.23357151202E+03  0.23357151202E+03  0.00000000000E+00 0. -1.
         -1   -1    0    0    0  501 -0.00000000000E+00 -0.00000000000E+00 -0.11614492103E+03  0.11614492103E+03  0.00000000000E+00 0.  1.
         25    2    1    2    0    0  0.16934505329E+02 -0.11218485304E+03  0.11427324461E+03  0.20390790945E+03  0.12509133615E+03 0.  0.
          5    1    3    3  502    0 -0.45146612482E+02 -0.33599976879E+02  0.66276427979E+01  0.56820534263E+02  0.41800000000E+01 0.  1.
         -5    1    3    3    0  502  0.62081117811E+02 -0.78584876163E+02  0.10764560181E+03  0.14708737519E+03  0.41800000000E+01 0.  1.
        -11    1    1    2    0    0 -0.43972992408E+02  0.17818627606E+02 -0.22215195120E+01  0.47498028381E+02  0.00000000000E+00 0.  1.
         11    1    1    2    0    0  0.27038487079E+02  0.94366225436E+02  0.53748658951E+01  0.98310495218E+02  0.00000000000E+00 0. -1.
</event>
<event>
 7    1  0.2690635E-009  0.1184283E+03  0.7561462E-02  0.1245713E+00
          2   -1    0    0  501    0  0.00000000000E+00  0.00000000000E+00  0.14942751986E+03  0.14942751986E+03  0.00000000000E+00 0. -1.
         -2   -1    0    0    0  501 -0.00000000000E+00 -0.00000000000E+00 -0.98879787410E+02  0.98879787410E+02  0.00000000000E+00 0.  1.
         25    2    1    2    0    0 -0.58238857887E+02  0.30088763396E+02  0.72268591733E+01  0.14140936490E+03  0.12508909919E+03 0.  0.
          5    1    3    3  502    0  0.31323296986E+02 -0.20931198727E+02 -0.10451720738E+01  0.37918713043E+02  0.41800000000E+01 0. -1.
         -5    1    3    3    0  502 -0.89562154873E+02  0.51019962123E+02  0.82720312471E+01  0.10349065186E+03  0.41800000000E+01 0. -1.
        -11    1    1    2    0    0  0.40895455235E+02 -0.53071647390E+02  0.39699359096E+02  0.77878605074E+02  0.00000000000E+00 0.  1.
         11    1    1    2    0    0  0.17343402653E+02  0.22982883994E+02  0.36215141808E+01  0.29019337298E+02  0.00000000000E+00 0. -1.
</event>
<event>
 7    1  0.2690635E-009  0.1117169E+03  0.7561462E-02  0.1257423E+00
         -3   -1    0    0    0  501 -0.00000000000E+00  0.00000000000E+00  0.22187511252E+02  0.22187511252E+02  0.00000000000E+00 0.  1.
          3   -1    0    0  501    0  0.00000000000E+00 -0.00000000000E+00 -0.96148592566E+03  0.96148592566E+03  0.00000000000E+00 0. -1.
         25    2    1    2    0    0  0.66089261577E+02 -0.33926605270E+02 -0.73667668950E+03  0.75090529429E+03  0.12508961226E+03 0.  0.
          5    1    3    3  502    0  0.59988663101E+02  0.14579231641E+02 -0.63501121990E+03  0.63801874228E+03  0.41800000000E+01 0.  1.
         -5    1    3    3    0  502  0.61005984759E+01 -0.48505836911E+02 -0.10166546959E+03  0.11288655201E+03  0.41800000000E+01 0.  1.
        -11    1    1    2    0    0 -0.83902732742E+02  0.12827019910E+02 -0.13193319801E+03  0.15687756289E+03  0.00000000000E+00 0.  1.
         11    1    1    2    0    0  0.17813471165E+02  0.21099585360E+02 -0.70688526909E+02  0.75890579744E+02  0.00000000000E+00 0. -1.
</event>
<event>
 7    1  0.2760345E-009  0.1591478E+03  0.7561462E-02  0.1189662E+00
         -2   -1    0    0    0  501 -0.00000000000E+00  0.00000000000E+00  0.33456956290E+02  0.33456956290E+02  0.00000000000E+00 0.  1.
          2   -1    0    0  501    0  0.00000000000E+00 -0.00000000000E+00 -0.12413509760E+04  0.12413509760E+04  0.00000000000E+00 0. -1.
         25    2    1    2    0    0 -0.86712006542E+02  0.10249228352E+03 -0.96908126711E+03  0.98630060971E+03  0.12508697054E+03 0.  0.
          5    1    3    3  502    0  0.28747047706E+02  0.46480710124E+02 -0.31579874374E+03  0.32052015243E+03  0.41800000000E+01 0. -1.
         -5    1    3    3    0  502 -0.11545905425E+03  0.56011573395E+02 -0.65328252337E+03  0.66578045729E+03  0.41800000000E+01 0. -1.
        -11    1    1    2    0    0  0.62677233451E+02 -0.63074165066E+02 -0.22238596158E+03  0.23950428347E+03  0.00000000000E+00 0. -1.
         11    1    1    2    0    0  0.24034773091E+02 -0.39418118453E+02 -0.16426791043E+02  0.49003039129E+02  0.00000000000E+00 0.  1.
</event>
<event>
 7    1  0.2690635E-009  0.1856897E+03  0.7561462E-02  0.1162407E+00
         -1   -1    0    0    0  501 -0.00000000000E+00  0.00000000000E+00  0.67536940056E+03  0.67536940056E+03  0.00000000000E+00 0.  1.
          1   -1    0    0  501    0  0.00000000000E+00 -0.00000000000E+00 -0.78156796534E+02  0.78156796534E+02  0.00000000000E+00 0. -1.
         25    2    1    2    0    0  0.17548800923E+03 -0.46314552797E+02  0.16303510631E+03  0.27416970104E+03  0.12508996720E+03 0.  0.
          5    1    3    3  502    0  0.10441602103E+03 -0.28391933201E+02  0.15518993485E+02  0.10939432745E+03  0.41800000000E+01 0.  1.
         -5    1    3    3    0  502  0.71071988197E+02 -0.17922619595E+02  0.14751611282E+03  0.16477537359E+03  0.41800000000E+01 0.  1.
        -11    1    1    2    0    0 -0.65677741115E+02  0.45434505223E+02  0.27212291107E+03  0.28359960979E+03  0.00000000000E+00 0. -1.
         11    1    1    2    0    0 -0.10981026811E+03  0.88004757359E+00  0.16205458665E+03  0.19575688627E+03  0.00000000000E+00 0.  1.
</event>
<event>
 7    1  0.2690635E-009  0.9191309E+02  0.7561462E-02  0.1298284E+00
         -2   -1    0    0    0  501 -0.00000000000E+00  0.00000000000E+00  0.17496117166E+02  0.17496117166E+02  0.00000000000E+00 0.  1.
          2   -1    0    0  501    0  0.00000000000E+00 -0.00000000000E+00 -0.80103631295E+03  0.80103631295E+03  0.00000000000E+00 0. -1.
         25    2    1    2    0    0 -0.17138587325E+02 -0.42579919488E+02 -0.47164343622E+03  0.49010455570E+03  0.12509262116E+03 0.  0.
          5    1    3    3  502    0 -0.51850783500E+01 -0.59662219375E+02 -0.91926063224E+02  0.10979225363E+03  0.41800000000E+01 0. -1.
         -5    1    3    3    0  502 -0.11953508975E+02  0.17082299888E+02 -0.37971737300E+03  0.38031230207E+03  0.41800000000E+01 0. -1.
        -11    1    1    2    0    0 -0.25185546317E+02 -0.16311745065E+02 -0.10414768745E+03  0.10838415738E+03  0.00000000000E+00 0. -1.
         11    1    1    2    0    0  0.42324133642E+02  0.58891664553E+02 -0.20774907211E+03  0.22004371703E+03  0.00000000000E+00 0.  1.
</event>
<event>
 7    1  0.2690635E-009  0.1500075E+03  0.7561462E-02  0.1200464E+00
          2   -1    0    0  501    0  0.00000000000E+00  0.00000000000E+00  0.19926956586E+03  0.19926956586E+03  0.00000000000E+00 0. -1.
         -2   -1    0    0    0  501 -0.00000000000E+00 -0.00000000000E+00 -0.13192339759E+03  0.13192339759E+03  0.00000000000E+00 0.  1.
         25    2    1    2    0    0 -0.84026864534E+02 -0.86358252563E+02  0.33462668818E+02  0.17687042082E+03  0.12508050930E+03 0.  0.
          5    1    3    3  502    0  0.11285317111E+02 -0.44750692964E+02  0.53603525516E+02  0.70857556060E+02  0.41800000000E+01 0.  1.
         -5    1    3    3    0  502 -0.95312181646E+02 -0.41607559600E+02 -0.20140856699E+02  0.10601286476E+03  0.41800000000E+01 0.  1.
        -11    1    1    2    0    0  0.58106801853E+02 -0.13619897830E+01  0.47101547738E+01  0.58313300333E+02  0.00000000000E+00 0.  1.
         11    1    1    2    0    0  0.25920062682E+02  0.87720242346E+02  0.29173344686E+02  0.96009242299E+02  0.00000000000E+00 0. -1.
</event>
<event>
 7    1  0.2690635E-009  0.1564237E+03  0.7561462E-02  0.1192795E+00
         -1   -1    0    0    0  501 -0.00000000000E+00  0.00000000000E+00  0.72805082571E+03  0.72805082571E+03  0.00000000000E+00 0.  1.
          1   -1    0    0  501    0  0.00000000000E+00 -0.00000000000E+00 -0.36457101881E+02  0.36457101881E+02  0.00000000000E+00 0. -1.
         25    2    1    2    0    0  0.71371651327E+02 -0.96368522919E+02  0.40515808611E+03  0.44066090240E+03  0.12509257110E+03 0.  0.
          5    1    3    3  502    0  0.74552176950E+02 -0.95208485471E+01  0.11263347083E+03  0.13547119545E+03  0.41800000000E+01 0. -1.
         -5    1    3    3    0  502 -0.31805256229E+01 -0.86847674372E+02  0.29252461528E+03  0.30518970695E+03  0.41800000000E+01 0. -1.
        -11    1    1    2    0    0 -0.71699511492E+02  0.20327391133E+02  0.12818655517E+03  0.14827614679E+03  0.00000000000E+00 0. -1.
         11    1    1    2    0    0  0.32786016500E+00  0.76041131787E+02  0.15824908254E+03  0.17557087840E+03  0.00000000000E+00 0.  1.
</event>
<event>
 7    1  0.2690635E-009  0.1898682E+03  0.7561462E-02  0.1158580E+00
          4   -1    0    0  501    0  0.00000000000E+00  0.00000000000E+00  0.50495993081E+02  0.50495993081E+02  0.00000000000E+00 0. -1.
         -4   -1    0    0    0  501 -0.00000000000E+00 -0.00000000000E+00 -0.81285732591E+03  0.81285732591E+03  0.00000000000E+00 0.  1.
         25    2    1    2    0    0  0.15745645234E+03  0.67795138262E+02 -0.39814313935E+03  0.45117078249E+03  0.12509356660E+03 0.  0.
          5    1    3    3  502    0  0.10273100681E+03  0.10062033735E+03 -0.23009875384E+03  0.27136879144E+03  0.41800000000E+01 0.  1.
         -5    1    3    3    0  502  0.54725445532E+02 -0.32825199093E+02 -0.16804438550E+03  0.17980199104E+03  0.41800000000E+01 0.  1.
        -11    1    1    2    0    0 -0.12206844619E+03 -0.46509826691E+02 -0.34018241427E+03  0.36440080202E+03  0.00000000000E+00 0.  1.
         11    1    1    2    0    0 -0.35388006154E+02 -0.21285311571E+02 -0.24035779215E+02  0.47781734488E+02  0.00000000000E+00 0. -1.
</event>
<event>
 7    1  0.2690635E-009  0.7497767E+02  0.7561462E-02  0.1343940E+00
          1   -1    0    0  501    0  0.00000000000E+00  0.00000000000E+00  0.29925064931E+03  0.29925064931E+03  0.00000000000E+00 0. -1.
         -1   -1    0    0    0  501 -0.00000000000E+00 -0.00000000000E+00 -0.40735730342E+02  0.40735730342E+02  0.00000000000E+00 0.  1.
         25    2    1    2    0    0 -0.11098351103E+02 -0.11220880398E+02  0.14958283617E+03  0.19563077947E+03  0.12508914999E+03 0.  0.
          5    1    3    3  502    0 -0.34605305374E+02 -0.10229787076E+02  0.16383034774E+03  0.16780950791E+03  0.41800000000E+01 0.  1.
         -5    1    3    3    0  502  0.23506954270E+02 -0.99109332131E+00 -0.14247511575E+02  0.27821271558E+02  0.41800000000E+01 0.  1.
        -11    1    1    2    0    0  0.44897217615E+02  0.27043588998E+02  0.39864702314E+02  0.65850667012E+02  0.00000000000E+00 0.  1.
         11    1    1    2    0    0 -0.33798866511E+02 -0.15822708600E+02  0.69067380491E+02  0.78504933174E+02  0.00000000000E+00 0. -1.
</event>
<event>
 7    1  0.2690635E-009  0.1679863E+03  0.7561462E-02  0.1179964E+00
         -2   -1    0    0    0  501 -0.00000000000E+00  0.00000000000E+00  0.18073447916E+03  0.18073447916E+03  0.00000000000E+00 0.  1.
          2   -1    0    0  501    0  0.00000000000E+00 -0.00000000000E+00 -0.29169947464E+03  0.29169947464E+03  0.00000000000E+00 0. -1.
         25    2    1    2    0    0  0.60708991380E+02 -0.13168710115E+03 -0.20231270242E+03  0.27857266482E+03  0.12508087696E+03 0.  0.
          5    1    3    3  502    0  0.74965045515E+00  0.23540858741E+02 -0.36355179114E+02  0.43519024053E+02  0.41800000000E+01 0. -1.
         -5    1    3    3    0  502  0.59959340925E+02 -0.15522795989E+03 -0.16595752331E+03  0.23505364077E+03  0.41800000000E+01 0. -1.
        -11    1    1    2    0    0 -0.30593304884E+02  0.81642722826E+02  0.21140179834E+01  0.87212118230E+02  0.00000000000E+00 0. -1.
         11    1    1    2    0    0 -0.30115686495E+02  0.50044378321E+02  0.89233688961E+02  0.10664917074E+03  0.00000000000E+00 0.  1.
</event>
<event>
 7    1  0.2690635E-009  0.1085886E+03  0.7561462E-02  0.1263206E+00
          2   -1    0    0  501    0  0.00000000000E+00  0.00000000000E+00  0.56317445847E+03  0.56317445847E+03  0.00000000000E+00 0. -1.
         -2   -1    0    0    0  501 -0.00000000000E+00 -0.00000000000E+00 -0.28862299496E+02  0.28862299496E+02  0.00000000000E+00 0.  1.
         25    2    1    2    0    0  0.30078668878E+01 -0.59482365221E+02  0.37564348882E+03  0.40037861683E+03  0.12509119508E+03 0.  0.
          5    1    3    3  502    0  0.50436801300E+02 -0.16888167223E+00  0.76563927677E+02  0.91779119999E+02  0.41800000000E+01 0. -1.
         -5    1    3    3    0  502 -0.47428934413E+02 -0.59313483549E+02  0.29907956114E+03  0.30859949683E+03  0.41800000000E+01 0. -1.
        -11    1    1    2    0    0  0.31938742190E+02  0.37342826798E+02  0.32583850587E+02  0.58959963408E+02  0.00000000000E+00 0.  1.
         11    1    1    2    0    0 -0.34946609078E+02  0.22139538423E+02  0.12608481957E+03  0.13269817773E+03  0.00000000000E+00 0. -1.
</event>
<event>
 7    1  0.2690635E-009  0.9420432E+02  0.7561462E-02  0.1292978E+00
         -3   -1    0    0    0  501 -0.00000000000E+00  0.00000000000E+00  0.37005508449E+03  0.37005508449E+03  0.00000000000E+00 0.  1.
          3   -1    0    0  501    0  0.00000000000E+00 -0.00000000000E+00 -0.41698327706E+02  0.41698327706E+02  0.00000000000E+00 0. -1.
         25    2    1    2    0    0 -0.46570629295E+02  0.37022735467E+02  0.21870976634E+03  0.25888355281E+03  0.12508887068E+03 0.  0.
          5    1    3    3  502    0 -0.68205573760E+01  0.44397628977E+02  0.21313747071E+03  0.21785941174E+03  0.41800000000E+01 0.  1.
         -5    1    3    3    0  502 -0.39750071919E+02 -0.73748935097E+01  0.55722956239E+01  0.41024141068E+02  0.41800000000E+01 0.  1.
        -11    1    1    2    0    0  0.70350951190E+02 -0.35558504174E+02  0.64621958972E+02  0.10192968721E+03  0.00000000000E+00 0. -1.
         11    1    1    2    0    0 -0.23780321895E+02 -0.14642312929E+01  0.45025031478E+02  0.50940172186E+02  0.00000000000E+00 0.  1.
</event>
<event>
 7    1  0.2690635E-009  0.1523571E+03  0.7561462E-02  0.1197606E+00
          3   -1    0    0  501    0  0.00000000000E+00  0.00000000000E+00  0.30001111273E+02  0.30001111273E+02  0.00000000000E+00 0. -1.
         -3   -1    0    0    0  501 -0.00000000000E+00 -0.00000000000E+00 -0.91467646214E+03  0.91467646214E+03  0.00000000000E+00 0.  1.
         25    2    1    2    0    0 -0.10553871674E+03 -0.66587591381E+02 -0.53046448437E+03  0.55911506563E+03  0.12507901255E+03 0.  0.
          5    1    3    3  502    0 -0.12618475888E+03 -0.51645760314E+02 -0.50401518580E+03  0.52214811869E+03  0.41800000000E+01 0.  1.
         -5    1    3    3    0  502  0.20646042138E+02 -0.14941831067E+02 -0.26449298574E+02  0.36966946948E+02  0.41800000000E+01 0.  1.
        -11    1    1    2    0    0  0.68785622290E+02  0.27776881224E+01 -0.23993731520E+03  0.24961789321E+03  0.00000000000E+00 0.  1.
         11    1    1    2    0    0  0.36753094449E+02  0.63809903259E+02 -0.11427355130E+03  0.13594461457E+03  0.00000000000E+00 0. -1.
</event>
<event>
 7    1  0.2690635E-009  0.9930370E+02  0.7561462E-02  0.1281767E+00
          3   -1    0    0  501    0  0.00000000000E+00  0.00000000000E+00  0.42640930117E+02  0.42640930117E+02  0.00000000000E+00 0. -1.
         -3   -1    0    0    0  501 -0.00000000000E+00 -0.00000000000E+00 -0.36076478128E+03  0.36076478128E+03  0.00000000000E+00 0.  1.
         25    2    1    2    0    0  0.19823737344E+02  0.52856881074E+01 -0.87847239477E+02  0.15422558691E+03  0.12508986815E+03 0.  0.
          5    1    3    3  502    0 -0.42534279299E+02 -0.75881095096E+01 -0.78544349872E+02  0.89740913848E+02  0.41800000000E+01 0.  1.
         -5    1    3    3    0  502  0.62358016644E+02  0.12873797617E+02 -0.93028896042E+01  0.64484673061E+02  0.41800000000E+01 0.  1.
        -11    1    1    2    0    0 -0.59203872262E+01 -0.47024741888E+02 -0.84206581358E+02  0.96628803566E+02  0.00000000000E+00 0. -1.
         11    1    1    2    0    0 -0.13903350118E+02  0.41739053781E+02 -0.14607003033E+03  0.15255132093E+03  0.00000000000E+00 0.  1.
</event>
<event>
 7    1  0.2690635E-009  0.2014832E+03  0.7561462E-02  0.1148494E+00
         -1   -1    0    0    0  501 -0.00000000000E+00  0.00000000000E+00  0.45130262385E+02  0.45130262385E+02  0.00000000000E+00 0.  1.
          1   -1    0    0  501    0  0.00000000000E+00 -0.00000000000E+00 -0.11649882978E+04  0.11649882978E+04  0.00000000000E+00 0. -1.
         25    2    1    2    0    0  0.14595123612E+03  0.13780904793E+03 -0.53008671730E+03  0.58045905434E+03  0.12509072265E+03 0.  0.
          5    1    3    3  502    0  0.83344538630E+02  0.64170168298E+02 -0.12235832964E+03  0.16140990010E+03  0.41800000000E+01 0. -1.
         -5    1    3    3    0  502  0.62606697491E+02  0.73638879633E+02 -0.40772838767E+03  0.41904915424E+03  0.41800000000E+01 0. -1.
        -11    1    1    2    0    0 -0.12735134845E+03 -0.11571714788E+03 -0.56800334967E+03  0.59349526494E+03  0.00000000000E+00 0. -1.
         11    1    1    2    0    0 -0.18599887671E+02 -0.22091900050E+02 -0.21767968410E+02  0.36164240873E+02  0.00000000000E+00 0.  1.
</event>
<event>
 7    1  0.2690635E-009  0.2780036E+03  0.7561462E-02  0.1096784E+00
         -2   -1    0    0    0  501 -0.00000000000E+00  0.00000000000E+00  0.12071244767E+03  0.12071244767E+03  0.00000000000E+00 0. -1.
          2   -1    0    0  501    0  0.00000000000E+00 -0.00000000000E+00 -0.12163567626E+04  0.12163567626E+04  0.00000000000E+00 0.  1.
         25    2    1    2    0    0  0.24054056075E+03  0.11392161154E+03 -0.11314362109E+03  0.31509642639E+03  0.12508550671E+03 0.  0.
          5    1    3    3  502    0 -0.28038449748E+01 -0.17850353540E+01 -0.33735762777E+02  0.34155848518E+02  0.41800000000E+01 0. -1.
         -5    1    3    3    0  502  0.24334440573E+03  0.11570664690E+03 -0.79407858309E+02  0.28094057787E+03  0.41800000000E+01 0. -1.
        -11    1    1    2    0    0 -0.18734341418E+03 -0.12708496540E+03 -0.80170243249E+03  0.83305157915E+03  0.00000000000E+00 0.  1.
         11    1    1    2    0    0 -0.53197146572E+02  0.13163353856E+02 -0.18079826138E+03  0.18892120476E+03  0.00000000000E+00 0. -1.
</event>
<event>
 7    1  0.2690635E-009  0.9983189E+02  0.7561462E-02  0.1280650E+00
         -1   -1    0    0    0  501 -0.00000000000E+00  0.00000000000E+00  0.64485043816E+02  0.64485043816E+02  0.00000000000E+00 0.  1.
          1   -1    0    0  501    0  0.00000000000E+00 -0.00000000000E+00 -0.23605544032E+03  0.23605544032E+03  0.00000000000E+00 0. -1.
         25    2    1    2    0    0  0.33527707347E+02 -0.47640784164E+02 -0.92796768960E+02  0.16628988022E+03  0.12508929793E+03 0.  0.
          5    1    3    3  502    0  0.23248417427E+02  0.14667162717E+02  0.21831253476E+02  0.35350963260E+02  0.41800000000E+01 0.  1.
         -5    1    3    3    0  502  0.10279289920E+02 -0.62307946881E+02 -0.11462802244E+03  0.13093891696E+03  0.41800000000E+01 0.  1.
        -11    1    1    2    0    0 -0.12722389397E+02  0.73946057610E+02 -0.51260618194E+02  0.90870950285E+02  0.00000000000E+00 0. -1.
         11    1    1    2    0    0 -0.20805317950E+02 -0.26305273447E+02 -0.27513009352E+02  0.43379653637E+02  0.00000000000E+00 0.  1.
</event>
<event>
 7    1  0.2690635E-009  0.9101634E+02  0.7561462E-02  0.1300409E+00
          2   -1    0    0  501    0  0.00000000000E+00  0.00000000000E+00  0.34487826568E+03  0.34487826568E+03  0.00000000000E+00 0. -1.
         -2   -1    0    0    0  501 -0.00000000000E+00 -0.00000000000E+00 -0.49475506247E+02  0.49475506247E+02  0.00000000000E+00 0.  1.
         25    2    1    2    0    0  0.17360603774E+02 -0.17931197956E+02  0.26873290350E+03  0.29746796889E+03  0.12508757201E+03 0.  0.
          5    1    3    3  502    0 -0.46266413573E+02  0.14152323057E+02  0.16155128930E+03  0.16869250353E+03  0.41800000000E+01 0. -1.
         -5    1    3    3    0  502  0.63627017347E+02 -0.32083521013E+02  0.10718161420E+03  0.12877546536E+03  0.41800000000E+01 0. -1.
        -11    1    1    2    0    0 -0.40978581797E+01  0.37897957322E+02 -0.21005799894E+02  0.43523456206E+02  0.00000000000E+00 0.  1.
         11    1    1    2    0    0 -0.13262745594E+02 -0.19966759367E+02  0.47675655823E+02  0.53362346823E+02  0.00000000000E+00 0. -1.
</event>
<event>
 7    1  0.2690635E-009  0.8487708E+02  0.7561462E-02  0.1315754E+00
         -1   -1    0    0    0  501 -0.00000000000E+00  0.00000000000E+00  0.14905382049E+02  0.14905382049E+02  0.00000000000E+00 0.  1.
          1   -1    0    0  501    0  0.00000000000E+00 -0.00000000000E+00 -0.94329915654E+03  0.94329915654E+03  0.00000000000E+00 0. -1.
         25    2    1    2    0    0  0.40840204815E+02 -0.16055229379E+02 -0.61871032773E+03  0.63275449709E+03  0.12510032466E+03 0.  0.
          5    1    3    3  502    0 -0.20424197530E+01 -0.26454551365E+02 -0.55205349784E+03  0.55270656920E+03  0.41800000000E+01 0. -1.
         -5    1    3    3    0  502  0.42882624568E+02  0.10399321986E+02 -0.66656829891E+02  0.80047927885E+02  0.41800000000E+01 0. -1.
        -11    1    1    2    0    0  0.26031250749E+02  0.18037322345E+02 -0.74881169249E+02  0.81302893682E+02  0.00000000000E+00 0.  1.
         11    1    1    2    0    0 -0.66871455564E+02 -0.19820929660E+01 -0.23480227752E+03  0.24414714782E+03  0.00000000000E+00 0. -1.
</event>
<event>
 7    1  0.2690635E-009  0.1311226E+03  0.7561462E-02  0.1225799E+00
          1   -1    0    0  501    0  0.00000000000E+00  0.00000000000E+00  0.27805801252E+03  0.27805801252E+03  0.00000000000E+00 0. -1.
         -1   -1    0    0    0  501 -0.00000000000E+00 -0.00000000000E+00 -0.90066148252E+02  0.90066148252E+02  0.00000000000E+00 0.  1.
         25    2    1    2    0    0  0.44548069035E+02 -0.10582237621E+03  0.95281306496E+02  0.19470201538E+03  0.12508973444E+03 0.  0.
          5    1    3    3  502    0  0.28459879941E+02 -0.96671151789E+02  0.34375235150E+01  0.10091860741E+03  0.41800000000E+01 0.  1.
         -5    1    3    3    0  502  0.16088189094E+02 -0.91512244175E+01  0.91843782981E+02  0.93783407962E+02  0.41800000000E+01 0.  1.
        -11    1    1    2    0    0 -0.69916906697E+02  0.76509662667E+02  0.84666597783E+02  0.13383024734E+03  0.00000000000E+00 0.  1.
         11    1    1    2    0    0  0.25368837661E+02  0.29312713539E+02  0.80439599897E+01  0.39591898056E+02  0.00000000000E+00 0. -1.
</event>
<event>
 7    1  0.2690635E-009  0.1102222E+03  0.7561462E-02  0.1260159E+00
         -3   -1    0    0    0  501 -0.00000000000E+00  0.00000000000E+00  0.48555774222E+02  0.48555774222E+02  0.00000000000E+00 0.  1.
          3   -1    0    0  501    0  0.00000000000E+00 -0.00000000000E+00 -0.31443402008E+03  0.31443402008E+03  0.00000000000E+00 0. -1.
         25    2    1    2    0    0 -0.51939365937E+02  0.19431207417E+02 -0.11876036606E+03  0.18117825660E+03  0.12508503733E+03 0.  0.
          5    1    3    3  502    0 -0.88251777819E+02  0.14893995683E+02 -0.11249706958E+03  0.14381679477E+03  0.41800000000E+01 0.  1.
         -5    1    3    3    0  502  0.36312411882E+02  0.45372117346E+01 -0.62632964797E+01  0.37361461826E+02  0.41800000000E+01 0.  1.
        -11    1    1    2    0    0  0.65537225744E+02  0.53419822827E+01 -0.55861351450E+02  0.86279518536E+02  0.00000000000E+00 0.  1.
         11    1    1    2    0    0 -0.13597859807E+02 -0.24773189700E+02 -0.91256528351E+02  0.95532019166E+02  0.00000000000E+00 0. -1.
</event>
<event>
 7    1  0.2690635E-009  0.1041231E+03  0.7561462E-02  0.1271857E+00
         -1   -1    0    0    0  501 -0.00000000000E+00  0.00000000000E+00  0.29742014544E+03  0.29742014544E+03  0.00000000000E+00 0.  1.
          1   -1    0    0  501    0  0.00000000000E+00 -0.00000000000E+00 -0.62635902717E+02  0.62635902717E+02  0.00000000000E+00 0. -1.
         25    2    1    2    0    0 -0.15795326840E+02 -0.79314929339E+02  0.13955991171E+03  0.20412056379E+03  0.12509150747E+03 0.  0.
          5    1    3    3  502    0  0.11865104099E+02 -0.89739334244E+02  0.37996694886E+02  0.98260622978E+02  0.41800000000E+01 0.  1.
         -5    1    3    3    0  502 -0.27660430939E+02  0.10424404905E+02  0.10156321682E+03  0.10585994081E+03  0.41800000000E+01 0.  1.
        -11    1    1    2    0    0 -0.10493062405E+02  0.15097610874E+02  0.83576396596E+02  0.85574857760E+02  0.00000000000E+00 0.  1.
         11    1    1    2    0    0  0.26288389245E+02  0.64217318465E+02  0.11647934416E+02  0.70360626604E+02  0.00000000000E+00 0. -1.
</event>
<event>
 7    1  0.2690635E-009  0.9784277E+02  0.7561462E-02  0.1284899E+00
          2   -1    0    0  501    0  0.00000000000E+00  0.00000000000E+00  0.34446893408E+02  0.34446893408E+02  0.00000000000E+00 0. -1.
         -2   -1    0    0    0  501 -0.00000000000E+00 -0.00000000000E+00 -0.37494249669E+03  0.37494249669E+03  0.00000000000E+00 0.  1.
         25    2    1    2    0    0  0.11832345493E+02 -0.30708432957E+02 -0.18836976450E+03  0.22850227775E+03  0.12508841075E+03 0.  0.
          5    1    3    3  502    0  0.49314132136E+02  0.27423863197E+02 -0.11133274980E+03  0.12488556954E+03  0.41800000000E+01 0.  1.
         -5    1    3    3    0  502 -0.37481786643E+02 -0.58132296154E+02 -0.77037014704E+02  0.10361670821E+03  0.41800000000E+01 0.  1.
        -11    1    1    2    0    0 -0.20134021298E+02 -0.13880369487E+02 -0.12640023474E+03  0.12874417584E+03  0.00000000000E+00 0.  1.
         11    1    1    2    0    0  0.83016758055E+01  0.44588802444E+02 -0.25725604041E+02  0.52142936509E+02  0.00000000000E+00 0. -1.
</event>
<event>
 7    1  0.2690635E-009  0.1202911E+03  0.7561462E-02  0.1242618E+00
         -1   -1    0    0    0  501 -0.00000000000E+00  0.00000000000E+00  0.24885375861E+02  0.24885375861E+02  0.00000000000E+00 0.  1.
          1   -1    0    0  501    0  0.00000000000E+00 -0.00000000000E+00 -0.73362888525E+03  0.73362888525E+03  0.00000000000E+00 0. -1.
         25    2    1    2    0    0  0.96975980226E+01  0.52232057492E+02 -0.55008956568E+03  0.56662888098E+03  0.12509007654E+03 0.  0.
          5    1    3    3  502    0 -0.43461462093E+02  0.67325301168E+02 -0.30859636937E+03  0.31885856810E+03  0.41800000000E+01 0. -1.
         -5    1    3    3    0  502  0.53159060116E+02 -0.15093243676E+02 -0.24149319632E+03  0.24777031288E+03  0.41800000000E+01 0. -1.
        -11    1    1    2    0    0 -0.28872925549E+01  0.26116864085E+02 -0.61584277215E+02  0.66955584143E+02  0.00000000000E+00 0. -1.
         11    1    1    2    0    0 -0.68103054677E+01 -0.78348921576E+02 -0.97069666489E+02  0.12492979599E+03  0.00000000000E+00 0.  1.
</event>
<event>
 7    1  0.2690635E-009  0.2790398E+03  0.7561462E-02  0.1096215E+00
         -1   -1    0    0    0  501 -0.00000000000E+00  0.00000000000E+00  0.63707034128E+03  0.63707034128E+03  0.00000000000E+00 0.  1.
          1   -1    0    0  501    0  0.00000000000E+00 -0.00000000000E+00 -0.13874527487E+03  0.13874527487E+03  0.00000000000E+00 0. -1.
         25    2    1    2    0    0  0.27793565448E+02 -0.26346139173E+03  0.35311138223E+03  0.45882423348E+03  0.12509053426E+03 0.  0.
          5    1    3    3  502    0 -0.43425829570E+02 -0.43047020048E+02  0.75394471409E+02  0.97162993613E+02  0.41800000000E+01 0. -1.
         -5    1    3    3    0  502  0.71219395018E+02 -0.22041437168E+03  0.27771691082E+03  0.36166123987E+03  0.41800000000E+01 0. -1.
        -11    1    1    2    0    0 -0.67760800701E+01  0.11210538736E+03  0.96611928521E+01  0.11272476118E+03  0.00000000000E+00 0.  1.
         11    1    1    2    0    0 -0.21017485378E+02  0.15135600437E+03  0.13555249133E+03  0.20426662149E+03  0.00000000000E+00 0. -1.
</event>
<event>
 7    1  0.2690635E-009  0.1288426E+03  0.7561462E-02  0.1229183E+00
         -3   -1    0    0    0  501 -0.00000000000E+00  0.00000000000E+00  0.13947341554E+04  0.13947341554E+04  0.00000000000E+00 0.  1.
          3   -1    0    0  501    0  0.00000000000E+00 -0.00000000000E+00 -0.16965712037E+02  0.16965712037E+02  0.00000000000E+00 0. -1.
         25    2    1    2    0    0  0.51309513513E+02  0.71071713232E+02  0.10222787415E+04  0.10336270858E+04  0.12508905884E+03 0.  0.
          5    1    3    3  502    0  0.70437158241E+02  0.85453164208E+02  0.56862263398E+03  0.57932098944E+03  0.41800000000E+01 0.  1.
         -5    1    3    3    0  502 -0.19127644728E+02 -0.14381450976E+02  0.45365610754E+03  0.45430609640E+03  0.41800000000E+01 0.  1.
        -11    1    1    2    0    0 -0.61783906482E+02 -0.12455496889E+02  0.12466625468E+03  0.13969275414E+03  0.00000000000E+00 0. -1.
         11    1    1    2    0    0  0.10474392970E+02 -0.58616216343E+02  0.23082344722E+03  0.23838002750E+03  0.00000000000E+00 0.  1.
</event>
<event>
 7    1  0.2690635E-009  0.1236321E+03  0.7561462E-02  0.1237223E+00
          2   -1    0    0  501    0  0.00000000000E+00  0.00000000000E+00  0.20721666987E+03  0.20721666987E+03  0.00000000000E+00 0. -1.
         -2   -1    0    0    0  501 -0.00000000000E+00 -0.00000000000E+00 -0.88516963663E+02  0.88516963663E+02  0.00000000000E+00 0.  1.
         25    2    1    2    0    0  0.72565057754E+02  0.87954798516E+01  0.26836478720E+02  0.14734919425E+03  0.12509412610E+03 0.  0.
          5    1    3    3  502    0  0.16265941880E+02 -0.54888266459E+02 -0.21607531165E+01  0.57440786155E+02  0.41800000000E+01 0.  1.
         -5    1    3    3    0  502  0.56299115874E+02  0.63683746310E+02  0.28997231836E+02  0.89908408097E+02  0.41800000000E+01 0.  1.
        -11    1    1    2    0    0 -0.38072505278E+02 -0.42135457550E+02  0.16656792320E+02  0.59180750008E+02  0.00000000000E+00 0.  1.
         11    1    1    2    0    0 -0.34492552476E+02  0.33339977699E+02  0.75206435168E+02  0.89203689273E+02  0.00000000000E+00 0. -1.
</event>
<event>
 7    1  0.2690635E-009  0.1103472E+03  0.7561462E-02  0.1259928E+00
          1   -1    0    0  501    0  0.00000000000E+00  0.00000000000E+00  0.53997022538E+02  0.53997022538E+02  0.00000000000E+00 0. -1.
         -1   -1    0    0    0  501 -0.00000000000E+00 -0.00000000000E+00 -0.55385972432E+03  0.55385972432E+03  0.00000000000E+00 0.  1.
         25    2    1    2    0    0 -0.57740074957E+02  0.64678899172E+01 -0.47682218995E+03  0.49636970815E+03  0.12509091288E+03 0.  0.
          5    1    3    3  502    0 -0.83899804953E+02 -0.87476397681E+01 -0.19000950552E+03  0.20793456437E+03  0.41800000000E+01 0. -1.
         -5    1    3    3    0  502  0.26159729996E+02  0.15215529685E+02 -0.28681268443E+03  0.28843514378E+03  0.41800000000E+01 0. -1.
        -11    1    1    2    0    0  0.10118778186E+02 -0.43939597890E+02 -0.23590899986E+02  0.50888196046E+02  0.00000000000E+00 0. -1.
         11    1    1    2    0    0  0.47621296772E+02  0.37471707973E+02  0.55038815545E+00  0.60598842660E+02  0.00000000000E+00 0.  1.
</event>
<event>
 7    1  0.2690635E-009  0.3018554E+03  0.7561462E-02  0.1084317E+00
         -3   -1    0    0    0  501 -0.00000000000E+00  0.00000000000E+00  0.98558240109E+02  0.98558240109E+02  0.00000000000E+00 0.  1.
          3   -1    0    0  501    0  0.00000000000E+00 -0.00000000000E+00 -0.10939812576E+04  0.10939812576E+04  0.00000000000E+00 0. -1.
         25    2    1    2    0    0 -0.24165989581E+03 -0.15941377523E+03 -0.30725100398E+03  0.44029797314E+03  0.12508744433E+03 0.  0.
          5    1    3    3  502    0 -0.99050733902E+02 -0.11440416757E+03 -0.88720982562E+02  0.17546579892E+03  0.41800000000E+01 0.  1.
         -5    1    3    3    0  502 -0.14260916191E+03 -0.45009607660E+02 -0.21853002142E+03  0.26483217422E+03  0.41800000000E+01 0.  1.
        -11    1    1    2    0    0  0.13123363862E+03  0.33882369962E+02 -0.33960146132E+03  0.36564933396E+03  0.00000000000E+00 0.  1.
         11    1    1    2    0    0  0.11042625719E+03  0.12553140526E+03 -0.34857055224E+03  0.38659219065E+03  0.00000000000E+00 0. -1.
</event>
<event>
 7    1  0.2690635E-009  0.1428719E+03  0.7561462E-02  0.1209516E+00
         -1   -1    0    0    0  501 -0.00000000000E+00  0.00000000000E+00  0.15689988990E+02  0.15689988990E+02  0.00000000000E+00 0.  1.
          1   -1    0    0  501    0  0.00000000000E+00 -0.00000000000E+00 -0.16951809111E+04  0.16951809111E+04  0.00000000000E+00 0. -1.
         25    2    1    2    0    0 -0.33048844275E+02 -0.10215261531E+03 -0.12012113460E+04  0.12124703037E+04  0.12509259233E+03 0.  0.
          5    1    3    3  502    0  0.40393831402E+02 -0.29737296404E+02 -0.62996107271E+03  0.63196866532E+03  0.41800000000E+01 0.  1.
         -5    1    3    3    0  502 -0.73442675677E+02 -0.72415318902E+02 -0.57125027325E+03  0.58050163833E+03  0.41800000000E+01 0.  1.
        -11    1    1    2    0    0 -0.12264174528E+02  0.81449183755E+02 -0.21078960129E+03  0.22631092665E+03  0.00000000000E+00 0.  1.
         11    1    1    2    0    0  0.45313018803E+02  0.20703431551E+02 -0.26748997483E+03  0.27208966975E+03  0.00000000000E+00 0. -1.
</event>
<event>
 7    1  0.2690635E-009  0.1024981E+03  0.7561462E-02  0.1275129E+00
         -1   -1    0    0    0  501 -0.00000000000E+00  0.00000000000E+00  0.24582728119E+02  0.24582728119E+02  0.00000000000E+00 0.  1.
          1   -1    0    0  501    0  0.00000000000E+00 -0.00000000000E+00 -0.12555035122E+04  0.12555035122E+04  0.00000000000E+00 0. -1.
         25    2    1    2    0    0  0.29112350249E+00  0.68378907275E+02 -0.10877065094E+04  0.10970088564E+04  0.12508885149E+03 0.  0.
          5    1    3    3  502    0 -0.31137556519E+02  0.23308223417E+02 -0.91256107082E+03  0.91339914664E+03  0.41800000000E+01 0. -1.
         -5    1    3    3    0  502  0.31428680021E+02  0.45070683859E+02 -0.17514543855E+03  0.18360970976E+03  0.41800000000E+01 0. -1.
        -11    1    1    2    0    0 -0.42862634844E+02 -0.23372218272E+02 -0.41960984673E+02  0.64375385727E+02  0.00000000000E+00 0.  1.
         11    1    1    2    0    0  0.42571511342E+02 -0.45006689003E+02 -0.10125329005E+03  0.11870199821E+03  0.00000000000E+00 0. -1.
</event>
<event>
 7    1  0.2690635E-009  0.7547842E+02  0.7561462E-02  0.1342396E+00
          3   -1    0    0  501    0  0.00000000000E+00  0.00000000000E+00  0.51096104337E+02  0.51096104337E+02  0.00000000000E+00 0. -1.
         -3   -1    0    0    0  501 -0.00000000000E+00 -0.00000000000E+00 -0.28599452090E+03  0.28599452090E+03  0.00000000000E+00 0.  1.
         25    2    1    2    0    0 -0.47204216312E+02 -0.13050176622E+02 -0.99396623117E+02  0.16710945905E+03  0.12508931797E+03 0.  0.
          5    1    3    3  502    0 -0.27891001184E+02  0.26340126018E+02 -0.11426064111E+03  0.12060131298E+03  0.41800000000E+01 0. -1.
         -5    1    3    3    0  502 -0.19313215128E+02 -0.39390302640E+02  0.14864017991E+02  0.46508146077E+02  0.41800000000E+01 0. -1.
        -11    1    1    2    0    0  0.32950907236E+02 -0.15479713742E+02 -0.63568677519E+01  0.36956644772E+02  0.00000000000E+00 0. -1.
         11    1    1    2    0    0  0.14253309076E+02  0.28529890365E+02 -0.12914492570E+03  0.13302452141E+03  0.00000000000E+00 0.  1.
</event>
<event>
 7    1  0.2690635E-009  0.1337022E+03  0.7561462E-02  0.1222063E+00
         -1   -1    0    0    0  501 -0.00000000000E+00  0.00000000000E+00  0.49326748864E+02  0.49326748864E+02  0.00000000000E+00 0.  1.
          1   -1    0    0  501    0  0.00000000000E+00 -0.00000000000E+00 -0.62715432735E+03  0.62715432735E+03  0.00000000000E+00 0. -1.
         25    2    1    2    0    0 -0.38558159799E+02  0.88903314350E+02 -0.49450875618E+03  0.51920808556E+03  0.12509034808E+03 0.  0.
          5    1    3    3  502    0 -0.49368188403E+02  0.11590342246E+03 -0.35711315238E+03  0.37870581903E+03  0.41800000000E+01 0.  1.
         -5    1    3    3    0  502  0.10810028604E+02 -0.27000108111E+02 -0.13739560380E+03  0.14050226653E+03  0.41800000000E+01 0.  1.
        -11    1    1    2    0    0  0.39376372524E+02 -0.22079457815E+02  0.61918421097E+01  0.45566874802E+02  0.00000000000E+00 0.  1.
         11    1    1    2    0    0 -0.81821272436E+00 -0.66823856535E+02 -0.89510664410E+02  0.11170611585E+03  0.00000000000E+00 0. -1.
</event>
<event>
 7    1  0.2690635E-009  0.1229139E+03  0.7561462E-02  0.1238366E+00
          2   -1    0    0  501    0  0.00000000000E+00  0.00000000000E+00  0.18041487605E+04  0.18041487605E+04  0.00000000000E+00 0. -1.
         -2   -1    0    0    0  501 -0.00000000000E+00 -0.00000000000E+00 -0.10732481801E+02  0.10732481801E+02  0.00000000000E+00 0.  1.
         25    2    1    2    0    0  0.86053480369E+02 -0.41568384174E+01  0.11195367563E+04  0.11297934600E+04  0.12509289683E+03 0.  0.
          5    1    3    3  502    0  0.37532230262E+02 -0.45076663608E+02  0.87974529160E+03  0.88170846905E+03  0.41800000000E+01 0. -1.
         -5    1    3    3    0  502  0.48521250107E+02  0.40919825191E+02  0.23979146469E+03  0.24808499097E+03  0.41800000000E+01 0. -1.
        -11    1    1    2    0    0 -0.14772866224E+01 -0.31566915305E+02  0.17491813045E+03  0.17774983791E+03  0.00000000000E+00 0.  1.
         11    1    1    2    0    0 -0.84576193747E+02  0.35723753722E+02  0.49896139201E+03  0.50733794442E+03  0.00000000000E+00 0. -1.
</event>
<event>
 7    1  0.2690635E-009  0.1277346E+03  0.7561462E-02  0.1230856E+00
          1   -1    0    0  501    0  0.00000000000E+00  0.00000000000E+00  0.84446067722E+02  0.84446067722E+02  0.00000000000E+00 0. -1.
         -1   -1    0    0    0  501 -0.00000000000E+00 -0.00000000000E+00 -0.20477371515E+03  0.20477371515E+03  0.00000000000E+00 0.  1.
         25    2    1    2    0    0  0.65914022750E+02  0.34162579400E+02 -0.59580978570E+02  0.15719497056E+03  0.12509446645E+03 0.  0.
          5    1    3    3  502    0 -0.32452500261E+02  0.21101551992E+02 -0.40275687739E+02  0.56018244283E+02  0.41800000000E+01 0. -1.
         -5    1    3    3    0  502  0.98366523011E+02  0.13061027408E+02 -0.19305290831E+02  0.10117672628E+03  0.41800000000E+01 0. -1.
        -11    1    1    2    0    0 -0.54091098339E+02  0.23048373001E+02 -0.30021431977E+02  0.66017882391E+02  0.00000000000E+00 0.  1.
         11    1    1    2    0    0 -0.11822924411E+02 -0.57210952401E+02 -0.30725236882E+02  0.66006929922E+02  0.00000000000E+00 0. -1.
</event>
<event>
 7    1  0.2690635E-009  0.1426862E+03  0.7561462E-02  0.1209760E+00
         -1   -1    0    0    0  501 -0.00000000000E+00  0.00000000000E+00  0.26061995631E+03  0.26061995631E+03  0.00000000000E+00 0.  1.
          1   -1    0    0  501    0  0.00000000000E+00 -0.00000000000E+00 -0.93109567945E+02  0.93109567945E+02  0.00000000000E+00 0. -1.
         25    2    1    2    0    0  0.10963667009E+03 -0.38838678722E+01  0.11654840663E+03  0.20313972508E+03  0.12508770107E+03 0.  0.
          5    1    3    3  502    0  0.48889098728E+02  0.44676492701E+02  0.10527501754E+03  0.12444450447E+03  0.41800000000E+01 0. -1.
         -5    1    3    3    0  502  0.60747571360E+02 -0.48560360573E+02  0.11273389096E+02  0.78695220610E+02  0.41800000000E+01 0. -1.
        -11    1    1    2    0    0  0.15716875722E+02  0.81612396576E+00  0.10136930353E+02  0.18720138829E+02  0.00000000000E+00 0.  1.
         11    1    1    2    0    0 -0.12535354581E+03  0.30677439064E+01  0.40825051376E+02  0.13186966035E+03  0.00000000000E+00 0. -1.
</event>
<event>
 7    1  0.2690635E-009  0.2219485E+03  0.7561462E-02  0.1132439E+00
         -2   -1    0    0    0  501 -0.00000000000E+00  0.00000000000E+00  0.33850388380E+03  0.33850388380E+03  0.00000000000E+00 0. -1.
          2   -1    0    0  501    0  0.00000000000E+00 -0.00000000000E+00 -0.14994273790E+03  0.14994273790E+03  0.00000000000E+00 0.  1.
         25    2    1    2    0    0 -0.19557896296E+03  0.44790263029E+02  0.86251254658E+02  0.25168067874E+03  0.12508631702E+03 0.  0.
          5    1    3    3  502    0 -0.10281111326E+03 -0.39746486988E+02  0.31737558727E+02  0.11478089245E+03  0.41800000000E+01 0. -1.
         -5    1    3    3    0  502 -0.92767849701E+02  0.84536750017E+02  0.54513695932E+02  0.13689978629E+03  0.41800000000E+01 0. -1.
        -11    1    1    2    0    0  0.15138403707E+03 -0.99028467793E+01  0.97319719711E+02  0.18023962078E+03  0.00000000000E+00 0. -1.
         11    1    1    2    0    0  0.44194925894E+02 -0.34887416250E+02  0.49901715293E+01  0.56526322181E+02  0.00000000000E+00 0.  1.
</event>
<event>
 7    1  0.2690635E-009  0.1470596E+03  0.7561462E-02  0.1204133E+00
          1   -1    0    0  501    0  0.00000000000E+00  0.00000000000E+00  0.41214084605E+03  0.41214084605E+03  0.00000000000E+00 0. -1.
         -1   -1    0    0    0  501 -0.00000000000E+00 -0.00000000000E+00 -0.78756014231E+02  0.78756014231E+02  0.00000000000E+00 0.  1.
         25    2    1    2    0    0 -0.85361726941E+02  0.84736129388E+02  0.70025735582E+02  0.18712935250E+03  0.12508778866E+03 0.  0.
          5    1    3    3  502    0 -0.19152866436E+02 -0.32240817149E+02  0.60756318005E+01  0.38218951908E+02  0.41800000000E+01 0. -1.
         -5    1    3    3    0  502 -0.66208860505E+02  0.11697694654E+03  0.63950103781E+02  0.14891040059E+03  0.41800000000E+01 0. -1.
        -11    1    1    2    0    0  0.30207629921E+02 -0.17380469134E+02  0.10585959194E+02  0.36423126511E+02  0.00000000000E+00 0.  1.
         11    1    1    2    0    0  0.55154097020E+02 -0.67355660254E+02  0.25277313704E+03  0.26734438127E+03  0.00000000000E+00 0. -1.
</event>
<event>
 7    1  0.2690635E-009  0.9350049E+02  0.7561462E-02  0.1294590E+00
          1   -1    0    0  501    0  0.00000000000E+00  0.00000000000E+00  0.13960552409E+03  0.13960552409E+03  0.00000000000E+00 0. -1.
         -1   -1    0    0    0  501 -0.00000000000E+00 -0.00000000000E+00 -0.12236761012E+03  0.12236761012E+03  0.00000000000E+00 0.  1.
         25    2    1    2    0    0  0.66466648068E+02  0.27230089101E+02  0.19985319590E+01  0.14425742968E+03  0.12508764459E+03 0.  0.
          5    1    3    3  502    0  0.72867764544E+02  0.11901122669E+02 -0.50160089846E+02  0.89358014995E+02  0.41800000000E+01 0.  1.
         -5    1    3    3    0  502 -0.64011164759E+01  0.15328966432E+02  0.52158621805E+02  0.54899414684E+02  0.41800000000E+01 0.  1.
        -11    1    1    2    0    0 -0.71031421652E+02 -0.28207633649E+01  0.40894490090E+02  0.82010846158E+02  0.00000000000E+00 0. -1.
         11    1    1    2    0    0  0.45647735834E+01 -0.24409325736E+02 -0.25655108081E+02  0.35704858373E+02  0.00000000000E+00 0.  1.
</event>
<event>
 7    1  0.2690635E-009  0.1521685E+03  0.7561462E-02  0.1197833E+00
         -2   -1    0    0    0  501 -0.00000000000E+00  0.00000000000E+00  0.71105701464E+02  0.71105701464E+02  0.00000000000E+00 0.  1.
          2   -1    0    0  501    0  0.00000000000E+00 -0.00000000000E+00 -0.12352858217E+04  0.12352858217E+04  0.00000000000E+00 0. -1.
         25    2    1    2    0    0 -0.28261248174E+02 -0.11012173992E+03 -0.11473976824E+04  0.11597819069E+04  0.12508850599E+03 0.  0.
          5    1    3    3  502    0 -0.80051285210E+01 -0.13012296614E+03 -0.10543421524E+04  0.10623798356E+04  0.41800000000E+01 0. -1.
         -5    1    3    3    0  502 -0.20256119653E+02  0.20001226223E+02 -0.93055530012E+02  0.97402071332E+02  0.41800000000E+01 0. -1.
        -11    1    1    2    0    0 -0.25470614661E+02  0.79067507441E+02 -0.15702851956E+02  0.84539946201E+02  0.00000000000E+00 0. -1.
         11    1    1    2    0    0  0.53731862835E+02  0.31054232477E+02 -0.10795859378E+01  0.62069670083E+02  0.00000000000E+00 0.  1.
</event>
<event>
 7    1  0.2690635E-009  0.1840212E+03  0.7561462E-02  0.1163967E+00
         -2   -1    0    0    0  501 -0.00000000000E+00  0.00000000000E+00  0.11101072659E+03  0.11101072659E+03  0.00000000000E+00 0.  1.
          2   -1    0    0  501    0  0.00000000000E+00 -0.00000000000E+00 -0.49647860916E+03  0.49647860916E+03  0.00000000000E+00 0. -1.
         25    2    1    2    0    0  0.81543837846E+01  0.14899820174E+03 -0.11534576330E+02  0.19505660186E+03  0.12508826236E+03 0.  0.
          5    1    3    3  502    0  0.90503503424E+01 -0.21402597658E+02  0.37981196013E+01  0.23913973746E+02  0.41800000000E+01 0.  1.
         -5    1    3    3    0  502 -0.89596655782E+00  0.17040079940E+03 -0.15332695931E+02  0.17114262811E+03  0.41800000000E+01 0.  1.
        -11    1    1    2    0    0  0.38511917607E+02 -0.40595147735E+02 -0.12309374191E+03  0.13521539526E+03  0.00000000000E+00 0. -1.
         11    1    1    2    0    0 -0.46666301391E+02 -0.10840305401E+03 -0.25083956433E+03  0.27721733863E+03  0.00000000000E+00 0.  1.
</event>
<event>
 7    1  0.2690635E-009  0.1648252E+03  0.7561462E-02  0.1183354E+00
          2   -1    0    0  501    0  0.00000000000E+00  0.00000000000E+00  0.64653236971E+02  0.64653236971E+02  0.00000000000E+00 0. -1.
         -2   -1    0    0    0  501 -0.00000000000E+00 -0.00000000000E+00 -0.52526621222E+03  0.52526621222E+03  0.00000000000E+00 0.  1.
         25    2    1    2    0    0  0.13475281719E+03  0.40966798892E+02 -0.16835891440E+03  0.25264522804E+03  0.12509311269E+03 0.  0.
          5    1    3    3  502    0  0.19215200087E+01  0.51285981503E+02 -0.70413707390E+02  0.87232486645E+02  0.41800000000E+01 0.  1.
         -5    1    3    3    0  502  0.13283129718E+03 -0.10319182611E+02 -0.97945207013E+02  0.16541274140E+03  0.41800000000E+01 0.  1.
        -11    1    1    2    0    0 -0.22531873646E+02 -0.21151823275E+02 -0.93608342927E+01  0.32291023157E+02  0.00000000000E+00 0. -1.
         11    1    1    2    0    0 -0.11222094354E+03 -0.19814975617E+02 -0.28289322655E+03  0.30498319799E+03  0.00000000000E+00 0.  1.
</event>
<event>
 7    1  0.2690635E-009  0.1619454E+03  0.7561462E-02  0.1186518E+00
         -2   -1    0    0    0  501 -0.00000000000E+00  0.00000000000E+00  0.42260493989E+02  0.42260493989E+02  0.00000000000E+00 0.  1.
          2   -1    0    0  501    0  0.00000000000E+00 -0.00000000000E+00 -0.67398497897E+03  0.67398497897E+03  0.00000000000E+00 0. -1.
         25    2    1    2    0    0 -0.12166048492E+03 -0.11313939863E+02 -0.24823331254E+03  0.30364107718E+03  0.12509535351E+03 0.  0.
          5    1    3    3  502    0  0.88277310767E+01  0.34864913992E+02 -0.57141354128E+02  0.67646861090E+02  0.41800000000E+01 0. -1.
         -5    1    3    3    0  502 -0.13048821600E+03 -0.46178853855E+02 -0.19109195842E+03  0.23599421609E+03  0.41800000000E+01 0. -1.
        -11    1    1    2    0    0  0.26570098436E+02  0.41638285331E+02 -0.16820670461E+03  0.17530890569E+03  0.00000000000E+00 0.  1.
         11    1    1    2    0    0  0.95090386487E+02 -0.30324345468E+02 -0.21528446782E+03  0.23729549009E+03  0.00000000000E+00 0. -1.
</event>
<event>
 7    1  0.2690635E-009  0.1224191E+03  0.7561462E-02  0.1239159E+00
          1   -1    0    0  501    0  0.00000000000E+00  0.00000000000E+00  0.14770372687E+03  0.14770372687E+03  0.00000000000E+00 0. -1.
         -1   -1    0    0    0  501 -0.00000000000E+00 -0.00000000000E+00 -0.14836956669E+03  0.14836956669E+03  0.00000000000E+00 0.  1.
         25    2    1    2    0    0  0.90506378366E+01  0.92465929980E+02  0.38372635553E+02  0.16048006886E+03  0.12509808587E+03 0.  0.
          5    1    3    3  502    0 -0.25540897816E+02  0.70387032589E+02 -0.29882539145E+02  0.80728621713E+02  0.41800000000E+01 0. -1.
         -5    1    3    3    0  502  0.34591535652E+02  0.22078897391E+02  0.68255174698E+02  0.79751447146E+02  0.41800000000E+01 0. -1.
        -11    1    1    2    0    0 -0.48495170470E+02 -0.39451726458E+02 -0.95797116666E+01  0.63245483278E+02  0.00000000000E+00 0.  1.
         11    1    1    2    0    0  0.39444532633E+02 -0.53014203523E+02 -0.29458763701E+02  0.72347741420E+02  0.00000000000E+00 0. -1.
</event>
<event>
 7    1  0.2690635E-009  0.9331725E+02  0.7561462E-02  0.1295012E+00
          1   -1    0    0  501    0  0.00000000000E+00  0.00000000000E+00  0.39061716720E+03  0.39061716720E+03  0.00000000000E+00 0. -1.
         -1   -1    0    0    0  501 -0.00000000000E+00 -0.00000000000E+00 -0.41319721312E+02  0.41319721312E+02  0.00000000000E+00 0.  1.
         25    2    1    2    0    0 -0.21544852342E+02  0.52491034379E+02  0.25890435071E+03  0.29308318600E+03  0.12508717658E+03 0.  0.
          5    1    3    3  502    0  0.25586055352E+02  0.40815541426E+02  0.25539048722E+02  0.54683361821E+02  0.41800000000E+01 0.  1.
         -5    1    3    3    0  502 -0.47130907694E+02  0.11675492953E+02  0.23336530199E+03  0.23839982418E+03  0.41800000000E+01 0.  1.
        -11    1    1    2    0    0  0.42358148425E+02 -0.54054988379E+02  0.95248757943E+02  0.11742436032E+03  0.00000000000E+00 0. -1.
         11    1    1    2    0    0 -0.20813296084E+02  0.15639539999E+01 -0.48556627669E+01  0.21429342194E+02  0.00000000000E+00 0.  1.
</event>
<event>
 7    1  0.2690635E-009  0.1983718E+03  0.7561462E-02  0.1151120E+00
         -2   -1    0    0    0  501 -0.00000000000E+00  0.00000000000E+00  0.43849053748E+03  0.43849053748E+03  0.00000000000E+00 0.  1.
          2   -1    0    0  501    0  0.00000000000E+00 -0.00000000000E+00 -0.11125540970E+03  0.11125540970E+03  0.00000000000E+00 0. -1.
         25    2    1    2    0    0  0.15740953795E+03  0.10191409466E+03  0.12004100137E+03  0.25538575446E+03  0.12509115174E+03 0.  0.
          5    1    3    3  502    0  0.13140365181E+03  0.11844068646E+03  0.13333860664E+03  0.22156663182E+03  0.41800000000E+01 0.  1.
         -5    1    3    3    0  502  0.26005886137E+02 -0.16526591796E+02 -0.13297605268E+02  0.33819122638E+02  0.41800000000E+01 0.  1.
        -11    1    1    2    0    0 -0.78547676955E+02 -0.63340821388E+02  0.46184470011E+02  0.11097207973E+03  0.00000000000E+00 0. -1.
         11    1    1    2    0    0 -0.78861860991E+02 -0.38573273272E+02  0.16100965641E+03  0.18338811299E+03  0.00000000000E+00 0.  1.
</event>
<event>
 7    1  0.2690635E-009  0.1025552E+03  0.7561462E-02  0.1275013E+00
          2   -1    0    0  501    0  0.00000000000E+00  0.00000000000E+00  0.37379266928E+03  0.37379266928E+03  0.00000000000E+00 0. -1.
         -2   -1    0    0    0  501 -0.00000000000E+00 -0.00000000000E+00 -0.38792528651E+02  0.38792528651E+02  0.00000000000E+00 0.  1.
         25    2    1    2    0    0 -0.25703216109E+02 -0.13536195757E+01  0.11222654122E+03  0.17001526419E+03  0.12509159003E+03 0.  0.
          5    1    3    3  502    0  0.36865782357E+02 -0.39190032019E+02  0.40203360629E+02  0.67295818030E+02  0.41800000000E+01 0. -1.
         -5    1    3    3    0  502 -0.62568998466E+02  0.37836412443E+02  0.72023180595E+02  0.10271944616E+03  0.41800000000E+01 0. -1.
        -11    1    1    2    0    0  0.50848588088E+02 -0.71750872804E+01  0.20318494896E+03  0.20957381581E+03  0.00000000000E+00 0. -1.
         11    1    1    2    0    0 -0.25145371978E+02  0.85287068561E+01  0.19588650439E+02  0.32996117932E+02  0.00000000000E+00 0.  1.
</event>
<event>
 7    1  0.2690635E-009  0.4531392E+03  0.7561462E-02  0.1026790E+00
         -2   -1    0    0    0  501 -0.00000000000E+00  0.00000000000E+00  0.41066896351E+03  0.41066896351E+03  0.00000000000E+00 0.  1.
          2   -1    0    0  501    0  0.00000000000E+00 -0.00000000000E+00 -0.52800859414E+03  0.52800859414E+03  0.00000000000E+00 0. -1.
         25    2    1    2    0    0 -0.12857068092E+03  0.43048521247E+03 -0.11411812921E+03  0.48012478984E+03  0.12509567642E+03 0.  0.
          5    1    3    3  502    0 -0.46547787893E+02  0.60452506301E+02 -0.60189696568E+02  0.97270108711E+02  0.41800000000E+01 0.  1.
         -5    1    3    3    0  502 -0.82022893026E+02  0.37003270617E+03 -0.53928432641E+02  0.38285468113E+03  0.41800000000E+01 0.  1.
        -11    1    1    2    0    0  0.36176737959E+02 -0.18563111152E+03 -0.42704607382E+02  0.19388488705E+03  0.00000000000E+00 0.  1.
         11    1    1    2    0    0  0.92393942960E+02 -0.24485410095E+03  0.39483105960E+02  0.26466788076E+03  0.00000000000E+00 0. -1.
</event>
<event>
 7    1  0.2690635E-009  0.1064995E+03  0.7561462E-02  0.1267193E+00
          1   -1    0    0  501    0  0.00000000000E+00  0.00000000000E+00  0.92908094352E+02  0.92908094352E+02  0.00000000000E+00 0. -1.
         -1   -1    0    0    0  501 -0.00000000000E+00 -0.00000000000E+00 -0.13103275620E+03  0.13103275620E+03  0.00000000000E+00 0.  1.
         25    2    1    2    0    0  0.16223413689E+02 -0.18222549782E+02 -0.60850595871E+01  0.12758701641E+03  0.12508460471E+03 0.  0.
          5    1    3    3  502    0 -0.33056657999E+02  0.37572255744E+02 -0.15210866384E+02  0.52471515091E+02  0.41800000000E+01 0.  1.
         -5    1    3    3    0  502  0.49280071688E+02 -0.55794805526E+02  0.91258067969E+01  0.75115501323E+02  0.41800000000E+01 0.  1.
        -11    1    1    2    0    0 -0.35062689158E+02 -0.23658789016E+02 -0.38601039495E+01  0.42473884578E+02  0.00000000000E+00 0. -1.
         11    1    1    2    0    0  0.18839275469E+02  0.41881338797E+02 -0.28179498315E+02  0.53879949563E+02  0.00000000000E+00 0.  1.
</event>
<event>
 7    1  0.2690635E-009  0.1221456E+03  0.7561462E-02  0.1239599E+00
         -1   -1    0    0    0  501 -0.00000000000E+00  0.00000000000E+00  0.32577409005E+02  0.32577409005E+02  0.00000000000E+00 0.  1.
          1   -1    0    0  501    0  0.00000000000E+00 -0.00000000000E+00 -0.74704224119E+03  0.74704224119E+03  0.00000000000E+00 0. -1.
         25    2    1    2    0    0 -0.71820371586E+02  0.58248381840E+02 -0.53426866144E+03  0.55645448729E+03  0.12509018372E+03 0.  0.
          5    1    3    3  502    0 -0.99543666636E+02  0.67427542892E+02 -0.35641929968E+03  0.37617496553E+03  0.41800000000E+01 0. -1.
         -5    1    3    3    0  502  0.27723295050E+02 -0.91791610518E+01 -0.17784936176E+03  0.18027952176E+03  0.41800000000E+01 0. -1.
        -11    1    1    2    0    0  0.27880538839E+02 -0.35090024079E+02 -0.16536254039E+03  0.17132835142E+03  0.00000000000E+00 0. -1.
         11    1    1    2    0    0  0.43939832747E+02 -0.23158357761E+02 -0.14833630358E+02  0.51836811491E+02  0.00000000000E+00 0.  1.
</event>
<event>
 7    1  0.2690635E-009  0.1245334E+03  0.7561462E-02  0.1235800E+00
          2   -1    0    0  501    0  0.00000000000E+00  0.00000000000E+00  0.49127925425E+03  0.49127925425E+03  0.00000000000E+00 0. -1.
         -2   -1    0    0    0  501 -0.00000000000E+00 -0.00000000000E+00 -0.32800492366E+02  0.32800492366E+02  0.00000000000E+00 0.  1.
         25    2    1    2    0    0 -0.16781711354E+02 -0.60546266439E+02  0.21261146479E+03  0.25455709606E+03  0.12509278147E+03 0.  0.
          5    1    3    3  502    0 -0.44523470949E+01 -0.98493729469E+02  0.13540547991E+03  0.16754985684E+03  0.41800000000E+01 0.  1.
         -5    1    3    3    0  502 -0.12329364259E+02  0.37947463030E+02  0.77205984885E+02  0.87007239213E+02  0.41800000000E+01 0.  1.
        -11    1    1    2    0    0 -0.22684249864E+01 -0.23742496117E+02  0.47569855626E+02  0.53214124423E+02  0.00000000000E+00 0.  1.
         11    1    1    2    0    0  0.19050136340E+02  0.84288762557E+02  0.19829744147E+03  0.21630852614E+03  0.00000000000E+00 0. -1.
</event>
<event>
 7    1  0.2690635E-009  0.1585241E+03  0.7561462E-02  0.1190373E+00
          1   -1    0    0  501    0  0.00000000000E+00  0.00000000000E+00  0.61949179756E+03  0.61949179756E+03  0.00000000000E+00 0. -1.
         -1   -1    0    0    0  501 -0.00000000000E+00 -0.00000000000E+00 -0.61102554847E+02  0.61102554847E+02  0.00000000000E+00 0.  1.
         25    2    1    2    0    0 -0.10071411014E+03  0.94458389313E+02  0.43991526580E+03  0.47774378154E+03  0.12509180796E+03 0.  0.
          5    1    3    3  502    0 -0.11432215409E+02  0.73081586650E+02  0.30922247495E+03  0.31797425253E+03  0.41800000000E+01 0. -1.
         -5    1    3    3    0  502 -0.89281894736E+02  0.21376802663E+02  0.13069279085E+03  0.15976952901E+03  0.41800000000E+01 0. -1.
        -11    1    1    2    0    0  0.28611810191E+02 -0.68826307461E+02  0.18223478704E+02  0.76731945480E+02  0.00000000000E+00 0.  1.
         11    1    1    2    0    0  0.72102299954E+02 -0.25632081852E+02  0.10025049820E+03  0.12611862538E+03  0.00000000000E+00 0. -1.
</event>
<event>
 7    1  0.3194676E-009  0.7428628E+02  0.7561462E-02  0.1346096E+00
         -2   -1    0    0    0  501 -0.00000000000E+00  0.00000000000E+00  0.71872344364E+02  0.71872344364E+02  0.00000000000E+00 0.  1.
          2   -1    0    0  501    0  0.00000000000E+00 -0.00000000000E+00 -0.27429081631E+03  0.27429081631E+03  0.00000000000E+00 0. -1.
         25    2    1    2    0    0 -0.13884106781E+02  0.54374841622E+02 -0.19590806480E+03  0.23911918378E+03  0.12509445381E+03 0.  0.
          5    1    3    3  502    0  0.28628198796E+02  0.21760965946E+02 -0.23837899552E+00  0.36202798645E+02  0.41800000000E+01 0.  1.
         -5    1    3    3    0  502 -0.42512305577E+02  0.32613875677E+02 -0.19566968580E+03  0.20291638513E+03  0.41800000000E+01 0.  1.
        -11    1    1    2    0    0  0.15546639812E+02 -0.26660779476E+02 -0.48033563846E+02  0.57093943877E+02  0.00000000000E+00 0. -1.
         11    1    1    2    0    0 -0.16625330303E+01 -0.27714062146E+02  0.41523156698E+02  0.49950033022E+02  0.00000000000E+00 0.  1.
</event>
<event>
 7    1  0.2690635E-009  0.2606281E+03  0.7561462E-02  0.1106766E+00
          1   -1    0    0  501    0  0.00000000000E+00  0.00000000000E+00  0.10745016399E+03  0.10745016399E+03  0.00000000000E+00 0. -1.
         -1   -1    0    0    0  501 -0.00000000000E+00 -0.00000000000E+00 -0.77494384968E+03  0.77494384968E+03  0.00000000000E+00 0.  1.
         25    2    1    2    0    0  0.10432508925E+03  0.22120987815E+03 -0.50566877904E+03  0.57547043885E+03  0.12509107663E+03 0.  0.
          5    1    3    3  502    0  0.68008760842E+02  0.21739651213E+03 -0.47782957717E+03  0.52936283611E+03  0.41800000000E+01 0. -1.
         -5    1    3    3    0  502  0.36316328409E+02  0.38133660220E+01 -0.27839201876E+02  0.46107602742E+02  0.41800000000E+01 0. -1.
        -11    1    1    2    0    0 -0.57448869246E+02 -0.41280728052E+02 -0.70111269920E+02  0.99599504296E+02  0.00000000000E+00 0.  1.
         11    1    1    2    0    0 -0.46876220006E+02 -0.17992915010E+03 -0.91713636728E+02  0.20732407052E+03  0.00000000000E+00 0. -1.
</event>
<event>
 7    1  0.2690635E-009  0.1332510E+03  0.7561462E-02  0.1222710E+00
          1   -1    0    0  501    0  0.00000000000E+00  0.00000000000E+00  0.14134494881E+03  0.14134494881E+03  0.00000000000E+00 0. -1.
         -1   -1    0    0    0  501 -0.00000000000E+00 -0.00000000000E+00 -0.14864974075E+03  0.14864974075E+03  0.00000000000E+00 0.  1.
         25    2    1    2    0    0  0.74520862959E+02  0.28311916814E+02 -0.52050564597E+02  0.15719973591E+03  0.12509025560E+03 0.  0.
          5    1    3    3  502    0  0.77653974689E+02  0.69400037916E+02 -0.50328385711E+02  0.11574508135E+03  0.41800000000E+01 0.  1.
         -5    1    3    3    0  502 -0.31331117293E+01 -0.41088121102E+02 -0.17221788863E+01  0.41454654563E+02  0.41800000000E+01 0.  1.
        -11    1    1    2    0    0 -0.77865577248E+02  0.13397140189E+02  0.45050345884E+02  0.90950894167E+02  0.00000000000E+00 0.  1.
         11    1    1    2    0    0  0.33447142889E+01 -0.41709057003E+02 -0.30457322358E+00  0.41844059490E+02  0.00000000000E+00 0. -1.
</event>
<event>
 7    1  0.2690635E-009  0.1430042E+03  0.7561462E-02  0.1209343E+00
         -4   -1    0    0    0  501 -0.00000000000E+00  0.00000000000E+00  0.17052082509E+03  0.17052082509E+03  0.00000000000E+00 0.  1.
          4   -1    0    0  501    0  0.00000000000E+00 -0.00000000000E+00 -0.12049646217E+03  0.12049646217E+03  0.00000000000E+00 0. -1.
         25    2    1    2    0    0 -0.88151125862E+02 -0.23819593658E+02  0.18319864078E+02  0.15595308558E+03  0.12509098069E+03 0.  0.
          5    1    3    3  502    0  0.24690400974E+02  0.21667170696E+02  0.28230041747E+01  0.33234378869E+02  0.41800000000E+01 0. -1.
         -5    1    3    3    0  502 -0.11284152684E+03 -0.45486764354E+02  0.15496859903E+02  0.12271870671E+03  0.41800000000E+01 0. -1.
        -11    1    1    2    0    0  0.10719093246E+03  0.10050900143E+02  0.23674952527E+02  0.11023347937E+03  0.00000000000E+00 0.  1.
         11    1    1    2    0    0 -0.19039806600E+02  0.13768693515E+02  0.80295463154E+01  0.24830722312E+02  0.00000000000E+00 0. -1.
</event>
<event>
 7    1  0.2855368E-009  0.1394364E+03  0.7561462E-02  0.1214089E+00
          1   -1    0    0  501    0  0.00000000000E+00  0.00000000000E+00  0.16627750863E+04  0.16627750863E+04  0.00000000000E+00 0. -1.
         -1   -1    0    0    0  501 -0.00000000000E+00 -0.00000000000E+00 -0.18372975213E+02  0.18372975213E+02  0.00000000000E+00 0.  1.
         25    2    1    2    0    0 -0.50670463128E+02 -0.89761531233E+02  0.12991127686E+04  0.13091852890E+04  0.12508999604E+03 0.  0.
          5    1    3    3  502    0 -0.79791066209E+02 -0.84864855632E+02  0.12009193899E+04  0.12065626844E+04  0.41800000000E+01 0. -1.
         -5    1    3    3    0  502  0.29120603081E+02 -0.48966756008E+01  0.98193378706E+02  0.10262260461E+03  0.41800000000E+01 0. -1.
        -11    1    1    2    0    0 -0.62319681496E+01  0.72865608816E+02  0.24226180594E+03  0.25305931517E+03  0.00000000000E+00 0. -1.
         11    1    1    2    0    0  0.56902431277E+02  0.16895922416E+02  0.10302753658E+03  0.11890345737E+03  0.00000000000E+00 0.  1.
</event>
<event>
 7    1  0.2771183E-009  0.1387648E+03  0.7561462E-02  0.1215001E+00
         -1   -1    0    0    0  501 -0.00000000000E+00  0.00000000000E+00  0.10990701286E+03  0.10990701286E+03  0.00000000000E+00 0.  1.
          1   -1    0    0  501    0  0.00000000000E+00 -0.00000000000E+00 -0.22014120471E+03  0.22014120471E+03  0.00000000000E+00 0. -1.
         25    2    1    2    0    0 -0.10246248026E+03  0.42422426030E+02 -0.66246293806E+02  0.17981001090E+03  0.12507936074E+03 0.  0.
          5    1    3    3  502    0  0.17070307599E+02 -0.24055673616E+02 -0.17479638959E+02  0.34541004803E+02  0.41800000000E+01 0. -1.
         -5    1    3    3    0  502 -0.11953278786E+03  0.66478099646E+02 -0.48766654847E+02  0.14526900610E+03  0.41800000000E+01 0. -1.
        -11    1    1    2    0    0  0.51111601841E+02 -0.21485434862E+02  0.25756191512E+02  0.61134287885E+02  0.00000000000E+00 0.  1.
         11    1    1    2    0    0  0.51350878423E+02 -0.20936991168E+02 -0.69744089557E+02  0.89103918781E+02  0.00000000000E+00 0. -1.
</event>
<event>
 7    1  0.2690635E-009  0.1097064E+03  0.7561462E-02  0.1261115E+00
          2   -1    0    0  501    0  0.00000000000E+00  0.00000000000E+00  0.75585094937E+03  0.75585094937E+03  0.00000000000E+00 0. -1.
         -2   -1    0    0    0  501 -0.00000000000E+00 -0.00000000000E+00 -0.25179602215E+02  0.25179602215E+02  0.00000000000E+00 0.  1.
         25    2    1    2    0    0 -0.52201189802E+02  0.61385404404E+02  0.45864831445E+03  0.48218171138E+03  0.12509114420E+03 0.  0.
          5    1    3    3  502    0 -0.13123137305E+02 -0.24067164243E+02  0.26965549555E+03  0.27107748672E+03  0.41800000000E+01 0. -1.
         -5    1    3    3    0  502 -0.39078052497E+02  0.85452568648E+02  0.18899281890E+03  0.21110422466E+03  0.41800000000E+01 0. -1.
        -11    1    1    2    0    0 -0.86028610330E+01 -0.25750806972E+02  0.12431662450E+02  0.29860668260E+02  0.00000000000E+00 0.  1.
         11    1    1    2    0    0  0.60804050835E+02 -0.35634597433E+02  0.25959137026E+03  0.26898817195E+03  0.00000000000E+00 0. -1.
</event>
<event>
 7    1  0.2690635E-009  0.1421200E+03  0.7561462E-02  0.1210504E+00
         -2   -1    0    0    0  501 -0.00000000000E+00  0.00000000000E+00  0.25926866127E+03  0.25926866127E+03  0.00000000000E+00 0.  1.
          2   -1    0    0  501    0  0.00000000000E+00 -0.00000000000E+00 -0.18182173836E+03  0.18182173836E+03  0.00000000000E+00 0. -1.
         25    2    1    2    0    0  0.34514006574E+02  0.10758237542E+03  0.19251905237E+03  0.25588364388E+03  0.12509064524E+03 0.  0.
          5    1    3    3  502    0  0.59215553534E+02  0.39839635436E+02  0.29049593072E+02  0.77168838204E+02  0.41800000000E+01 0. -1.
         -5    1    3    3    0  502 -0.24701546960E+02  0.67742739983E+02  0.16346945930E+03  0.17871480567E+03  0.41800000000E+01 0. -1.
        -11    1    1    2    0    0 -0.61896534062E+02 -0.63879434730E+02 -0.49535256042E+02  0.10181112268E+03  0.00000000000E+00 0.  1.
         11    1    1    2    0    0  0.27382527488E+02 -0.43702940689E+02 -0.65536873429E+02  0.83395633071E+02  0.00000000000E+00 0. -1.
</event>
<event>
 7    1  0.2690635E-009  0.1044689E+03  0.7561462E-02  0.1271170E+00
         -2   -1    0    0    0  501 -0.00000000000E+00  0.00000000000E+00  0.42392927894E+02  0.42392927894E+02  0.00000000000E+00 0.  1.
          2   -1    0    0  501    0  0.00000000000E+00 -0.00000000000E+00 -0.39082292801E+03  0.39082292801E+03  0.00000000000E+00 0. -1.
         25    2    1    2    0    0 -0.14957391198E+02  0.22593620667E+02 -0.82433487512E+02  0.15224006685E+03  0.12509021882E+03 0.  0.
          5    1    3    3  502    0  0.39505758426E+02  0.51449036543E+02 -0.52698336236E+02  0.83679718881E+02  0.41800000000E+01 0. -1.
         -5    1    3    3    0  502 -0.54463149624E+02 -0.28855415876E+02 -0.29735151277E+02  0.68560347970E+02  0.41800000000E+01 0. -1.
        -11    1    1    2    0    0  0.13808751788E+01 -0.50819668808E+02 -0.10145604829E+03  0.11348072651E+03  0.00000000000E+00 0.  1.
         11    1    1    2    0    0  0.13576516019E+02  0.28226048141E+02 -0.16454046431E+03  0.16749506254E+03  0.00000000000E+00 0. -1.
</event>
<event>
 7    1  0.2690635E-009  0.1563646E+03  0.7561462E-02  0.1192863E+00
         -1   -1    0    0    0  501 -0.00000000000E+00  0.00000000000E+00  0.58192411343E+02  0.58192411343E+02  0.00000000000E+00 0.  1.
          1   -1    0    0  501    0  0.00000000000E+00 -0.00000000000E+00 -0.87025537987E+03  0.87025537987E+03  0.00000000000E+00 0. -1.
         25    2    1    2    0    0 -0.90901124215E+02  0.69014776354E+02 -0.75178642305E+03  0.77062096114E+03  0.12509111129E+03 0.  0.
          5    1    3    3  502    0  0.19458652887E+02 -0.18002641296E+02 -0.83598758822E+02  0.87800678485E+02  0.41800000000E+01 0.  1.
         -5    1    3    3    0  502 -0.11035977710E+03  0.87017417649E+02 -0.66818766423E+03  0.68282028265E+03  0.41800000000E+01 0.  1.
        -11    1    1    2    0    0  0.83092586994E+02 -0.76638622039E+01 -0.27678861853E+02  0.87916051951E+02  0.00000000000E+00 0. -1.
         11    1    1    2    0    0  0.78085372213E+01 -0.61350914150E+02 -0.32597683629E+02  0.69910778128E+02  0.00000000000E+00 0.  1.
</event>
<event>
 7    1  0.2690635E-009  0.1337001E+03  0.7561462E-02  0.1222066E+00
          2   -1    0    0  501    0  0.00000000000E+00  0.00000000000E+00  0.12439711081E+04  0.12439711081E+04  0.00000000000E+00 0. -1.
         -2   -1    0    0    0  501 -0.00000000000E+00 -0.00000000000E+00 -0.14568327994E+02  0.14568327994E+02  0.00000000000E+00 0.  1.
         25    2    1    2    0    0 -0.31728959148E+02 -0.50397257929E+02  0.66038795027E+03  0.67476401007E+03  0.12509042319E+03 0.  0.
          5    1    3    3  502    0 -0.54529347912E+01  0.41375516121E+02  0.16517544676E+03  0.17041733610E+03  0.41800000000E+01 0.  1.
         -5    1    3    3    0  502 -0.26276024357E+02 -0.91772774050E+02  0.49521250351E+03  0.50434667397E+03  0.41800000000E+01 0.  1.
        -11    1    1    2    0    0 -0.32622831213E+01 -0.36283262624E+02  0.13677050660E+03  0.14153900209E+03  0.00000000000E+00 0.  1.
         11    1    1    2    0    0  0.34991242269E+02  0.86680520552E+02  0.43224432328E+03  0.44223642397E+03  0.00000000000E+00 0. -1.
</event>
<event>
 7    1  0.2690635E-009  0.1112381E+03  0.7561462E-02  0.1258294E+00
         -1   -1    0    0    0  501 -0.00000000000E+00  0.00000000000E+00  0.32874436470E+03  0.32874436470E+03  0.00000000000E+00 0.  1.
          1   -1    0    0  501    0  0.00000000000E+00 -0.00000000000E+00 -0.52888353551E+02  0.52888353551E+02  0.00000000000E+00 0. -1.
         25    2    1    2    0    0  0.57682780298E+02 -0.33541907026E+02  0.14344002234E+03  0.20168012462E+03  0.12508984766E+03 0.  0.
          5    1    3    3  502    0  0.63862167426E+01 -0.50804023745E+02  0.33995733966E+01  0.51486523404E+02  0.41800000000E+01 0.  1.
         -5    1    3    3    0  502  0.51296563556E+02  0.17262116719E+02  0.14004044895E+03  0.15019360122E+03  0.41800000000E+01 0.  1.
        -11    1    1    2    0    0  0.18159465327E+02  0.36660257254E+02  0.72507402124E+02  0.83253011992E+02  0.00000000000E+00 0.  1.
         11    1    1    2    0    0 -0.75842245626E+02 -0.31183502285E+01  0.59908586677E+02  0.96699581629E+02  0.00000000000E+00 0. -1.
</event>
<event>
 7    1  0.2690635E-009  0.1072133E+03  0.7561462E-02  0.1265819E+00
          2   -1    0    0  501    0  0.00000000000E+00  0.00000000000E+00  0.57402944227E+03  0.57402944227E+03  0.00000000000E+00 0. -1.
         -2   -1    0    0    0  501 -0.00000000000E+00 -0.00000000000E+00 -0.38184449447E+02  0.38184449447E+02  0.00000000000E+00 0.  1.
         25    2    1    2    0    0 -0.13122493346E+02 -0.96820298833E+02  0.23264196226E+03  0.28163167729E+03  0.12509096270E+03 0.  0.
          5    1    3    3  502    0 -0.15215031821E+01 -0.44201561927E+02  0.17074656171E+01  0.44457630251E+02  0.41800000000E+01 0.  1.
         -5    1    3    3    0  502 -0.11600990164E+02 -0.52618736906E+02  0.23093449665E+03  0.23717404704E+03  0.41800000000E+01 0.  1.
        -11    1    1    2    0    0 -0.25053776693E+02  0.46190674865E+02  0.62439464989E+02  0.81608559351E+02  0.00000000000E+00 0.  1.
         11    1    1    2    0    0  0.38176270039E+02  0.50629623968E+02  0.24076356556E+03  0.24897365507E+03  0.00000000000E+00 0. -1.
</event>
<event>
 7    1  0.2690635E-009  0.1816779E+03  0.7561462E-02  0.1166189E+00
         -2   -1    0    0    0  501 -0.00000000000E+00  0.00000000000E+00  0.63902590136E+03  0.63902590136E+03  0.00000000000E+00 0. -1.
          2   -1    0    0  501    0  0.00000000000E+00 -0.00000000000E+00 -0.61020952858E+02  0.61020952858E+02  0.00000000000E+00 0.  1.
         25    2    1    2    0    0  0.30566974502E+02 -0.15720020061E+03  0.23664202611E+03  0.31191661831E+03  0.12508511205E+03 0.  0.
          5    1    3    3  502    0  0.34519732371E+02 -0.17329941705E+03  0.23594246517E+03  0.29480607039E+03  0.41800000000E+01 0.  1.
         -5    1    3    3    0  502 -0.39527578689E+01  0.16099216434E+02  0.69956093971E+00  0.17110547918E+02  0.41800000000E+01 0.  1.
        -11    1    1    2    0    0  0.16419804634E+02  0.40454423353E+02  0.17002690016E+03  0.17554292105E+03  0.00000000000E+00 0.  1.
         11    1    1    2    0    0 -0.46986779136E+02  0.11674577726E+03  0.17133602223E+03  0.21258731485E+03  0.00000000000E+00 0. -1.
</event>
<event>
 7    1  0.2690635E-009  0.1121126E+03  0.7561462E-02  0.1256707E+00
          1   -1    0    0  501    0  0.00000000000E+00  0.00000000000E+00  0.68147389462E+02  0.68147389462E+02  0.00000000000E+00 0. -1.
         -1   -1    0    0    0  501 -0.00000000000E+00 -0.00000000000E+00 -0.19809404956E+03  0.19809404956E+03  0.00000000000E+00 0.  1.
         25    2    1    2    0    0 -0.21510814417E+02 -0.24992401963E+02 -0.61361518913E+02  0.14317737394E+03  0.12508872496E+03 0.  0.
          5    1    3    3  502    0 -0.47517212621E+02 -0.63025311242E+02 -0.55418601376E+02  0.96533771971E+02  0.41800000000E+01 0.  1.
         -5    1    3    3    0  502  0.26006398204E+02  0.38032909280E+02 -0.59429175369E+01  0.46643601969E+02  0.41800000000E+01 0.  1.
        -11    1    1    2    0    0  0.58488304683E+02  0.18744921438E+02 -0.27072320714E+02  0.67120521551E+02  0.00000000000E+00 0. -1.
         11    1    1    2    0    0 -0.36977490266E+02  0.62474805251E+01 -0.41512820470E+02  0.55943543529E+02  0.00000000000E+00 0.  1.
</event>
<event>
 7    1  0.2690635E-009  0.1249352E+03  0.7561462E-02  0.1235171E+00
          2   -1    0    0  501    0  0.00000000000E+00  0.00000000000E+00  0.55133147909E+03  0.55133147909E+03  0.00000000000E+00 0. -1.
         -2   -1    0    0    0  501 -0.00000000000E+00 -0.00000000000E+00 -0.30422312752E+02  0.30422312752E+02  0.00000000000E+00 0.  1.
         25    2    1    2    0    0  0.55735564592E+02 -0.37361252222E+02  0.24096453121E+03  0.27966601111E+03  0.12508739401E+03 0.  0.
          5    1    3    3  502    0  0.50385612200E+02 -0.81636725583E+02  0.18004336149E+03  0.20404986963E+03  0.41800000000E+01 0.  1.
         -5    1    3    3    0  502  0.53499523925E+01  0.44275473361E+02  0.60921169718E+02  0.75616141476E+02  0.41800000000E+01 0.  1.
        -11    1    1    2    0    0 -0.63202031762E+02 -0.74355739779E+01  0.20299067156E+03  0.21273221975E+03  0.00000000000E+00 0.  1.
         11    1    1    2    0    0  0.74664671699E+01  0.44796826199E+02  0.76953963571E+02  0.89355560984E+02  0.00000000000E+00 0. -1.
</event>
<event>
 7    1  0.2690635E-009  0.7352385E+02  0.7561462E-02  0.1348504E+00
         -2   -1    0    0    0  501 -0.00000000000E+00  0.00000000000E+00  0.95892158384E+02  0.95892158384E+02  0.00000000000E+00 0. -1.
          2   -1    0    0  501    0  0.00000000000E+00 -0.00000000000E+00 -0.19733130043E+03  0.19733130043E+03  0.00000000000E+00 0.  1.
         25    2    1    2    0    0  0.44312289726E+02  0.27807894340E+02 -0.13235826967E+03  0.18948596824E+03  0.12509741245E+03 0.  0.
          5    1    3    3  502    0 -0.40402797355E+01  0.27830843332E+02  0.16529767267E+02  0.32887464281E+02  0.41800000000E+01 0.  1.
         -5    1    3    3    0  502  0.48352569462E+02 -0.22948992011E-01 -0.14888803694E+03  0.15659850396E+03  0.41800000000E+01 0.  1.
        -11    1    1    2    0    0 -0.34006627944E+01  0.12317747843E+02 -0.22190248776E+02  0.25606611649E+02  0.00000000000E+00 0.  1.
         11    1    1    2    0    0 -0.40911626932E+02 -0.40125642184E+02  0.53109376403E+02  0.78130878920E+02  0.00000000000E+00 0. -1.
</event>
<event>
 7    1  0.2690635E-009  0.6767695E+02  0.7561462E-02  0.1368176E+00
         -1   -1    0    0    0  501 -0.00000000000E+00  0.00000000000E+00  0.74877678448E+02  0.74877678448E+02  0.00000000000E+00 0.  1.
          1   -1    0    0  501    0  0.00000000000E+00 -0.00000000000E+00 -0.24655197340E+03  0.24655197340E+03  0.00000000000E+00 0. -1.
         25    2    1    2    0    0  0.16571539933E+02  0.43427246790E+02 -0.17613081680E+03  0.22097379828E+03  0.12508722237E+03 0.  0.
          5    1    3    3  502    0 -0.50146632673E+01 -0.36911093965E+01  0.18264782422E+02  0.19744513496E+02  0.41800000000E+01 0.  1.
         -5    1    3    3    0  502  0.21586203200E+02  0.47118356187E+02 -0.19439559922E+03  0.20122928479E+03  0.41800000000E+01 0.  1.
        -11    1    1    2    0    0 -0.35618209237E+02 -0.93588299814E+01 -0.30685193423E+02  0.47935640429E+02  0.00000000000E+00 0. -1.
         11    1    1    2    0    0  0.19046669305E+02 -0.34068416809E+02  0.35141715274E+02  0.52520213136E+02  0.00000000000E+00 0.  1.
</event>
<event>
 7    1  0.2690635E-009  0.1097314E+03  0.7561462E-02  0.1261068E+00
         -1   -1    0    0    0  501 -0.00000000000E+00  0.00000000000E+00  0.22396024308E+03  0.22396024308E+03  0.00000000000E+00 0.  1.
          1   -1    0    0  501    0  0.00000000000E+00 -0.00000000000E+00 -0.63923244711E+02  0.63923244711E+02  0.00000000000E+00 0. -1.
         25    2    1    2    0    0 -0.18997353812E+02 -0.11128107943E+02  0.14025246410E+03  0.18921626093E+03  0.12508919009E+03 0.  0.
          5    1    3    3  502    0 -0.30864818300E+02  0.51661368473E+02  0.48901576303E+02  0.77655460633E+02  0.41800000000E+01 0.  1.
         -5    1    3    3    0  502  0.11867464488E+02 -0.62789476416E+02  0.91350887795E+02  0.11156080030E+03  0.41800000000E+01 0.  1.
        -11    1    1    2    0    0 -0.60571461251E+01  0.49174393808E+02  0.14676386699E+01  0.49567771675E+02  0.00000000000E+00 0. -1.
         11    1    1    2    0    0  0.25054499937E+02 -0.38046285865E+02  0.18316895600E+02  0.49099455186E+02  0.00000000000E+00 0.  1.
</event>
<event>
 7    1  0.2690635E-009  0.6987487E+02  0.7561462E-02  0.1360519E+00
          1   -1    0    0  501    0  0.00000000000E+00  0.00000000000E+00  0.22971582729E+02  0.22971582729E+02  0.00000000000E+00 0. -1.
         -1   -1    0    0    0  501 -0.00000000000E+00 -0.00000000000E+00 -0.66454554821E+03  0.66454554821E+03  0.00000000000E+00 0.  1.
         25    2    1    2    0    0  0.51358792332E+01 -0.10983116828E+02 -0.19935281745E+03  0.23565473036E+03  0.12507837545E+03 0.  0.
          5    1    3    3  502    0  0.23446191914E+02  0.39210788167E+01  0.91241719963E+01  0.25803520864E+02  0.41800000000E+01 0.  1.
         -5    1    3    3    0  502 -0.18310312681E+02 -0.14904195645E+02 -0.20847698945E+03  0.20985120950E+03  0.41800000000E+01 0.  1.
        -11    1    1    2    0    0 -0.23139440198E+02 -0.35168285758E+02 -0.23982722278E+03  0.24349402210E+03  0.00000000000E+00 0. -1.
         11    1    1    2    0    0  0.18003560965E+02  0.46151402586E+02 -0.20239392526E+03  0.20836837848E+03  0.00000000000E+00 0.  1.
</event>
<event>
 7    1  0.2690635E-009  0.9862113E+02  0.7561462E-02  0.1283223E+00
         -1   -1    0    0    0  501 -0.00000000000E+00  0.00000000000E+00  0.99985135334E+02  0.99985135334E+02  0.00000000000E+00 0.  1.
          1   -1    0    0  501    0  0.00000000000E+00 -0.00000000000E+00 -0.16185847649E+03  0.16185847649E+03  0.00000000000E+00 0. -1.
         25    2    1    2    0    0  0.55871317171E+02 -0.20067247592E+02 -0.51098327786E+02  0.14758199970E+03  0.12508041023E+03 0.  0.
          5    1    3    3  502    0  0.75558937273E+02 -0.37644171782E+02  0.58023218649E+01  0.84719395713E+02  0.41800000000E+01 0.  1.
         -5    1    3    3    0  502 -0.19687620102E+02  0.17576924190E+02 -0.56900649651E+02  0.62862603987E+02  0.41800000000E+01 0.  1.
        -11    1    1    2    0    0 -0.46836962504E+02 -0.15475674326E+02 -0.43002545942E+02  0.65440175045E+02  0.00000000000E+00 0. -1.
         11    1    1    2    0    0 -0.90343546673E+01  0.35542921917E+02  0.32227532573E+02  0.48821437079E+02  0.00000000000E+00 0.  1.
</event>
<event>
 7    1  0.2690635E-009  0.9823492E+02  0.7561462E-02  0.1284052E+00
          2   -1    0    0  501    0  0.00000000000E+00  0.00000000000E+00  0.33330186017E+03  0.33330186017E+03  0.00000000000E+00 0. -1.
         -2   -1    0    0    0  501 -0.00000000000E+00 -0.00000000000E+00 -0.33549818105E+02  0.33549818105E+02  0.00000000000E+00 0.  1.
         25    2    1    2    0    0 -0.13322383295E+02 -0.13581895955E+01  0.19452712656E+03  0.23166198052E+03  0.12508852735E+03 0.  0.
          5    1    3    3  502    0 -0.14660433083E+02  0.54851903983E+02  0.14796564618E+03  0.15854010381E+03  0.41800000000E+01 0. -1.
         -5    1    3    3    0  502  0.13380497880E+01 -0.56210093578E+02  0.46561480384E+02  0.73121876705E+02  0.41800000000E+01 0. -1.
        -11    1    1    2    0    0  0.41774263894E+02 -0.21202225844E+02  0.45582610224E+02  0.65363582058E+02  0.00000000000E+00 0.  1.
         11    1    1    2    0    0 -0.28451880598E+02  0.22560415439E+02  0.59642305282E+02  0.69826115700E+02  0.00000000000E+00 0. -1.
</event>
<event>
 7    1  0.2690635E-009  0.1148946E+03  0.7561462E-02  0.1251765E+00
         -1   -1    0    0    0  501 -0.00000000000E+00  0.00000000000E+00  0.35961296415E+03  0.35961296415E+03  0.00000000000E+00 0.  1.
          1   -1    0    0  501    0  0.00000000000E+00 -0.00000000000E+00 -0.10628915035E+03  0.10628915035E+03  0.00000000000E+00 0. -1.
         25    2    1    2    0    0 -0.35903301782E+02 -0.29476987814E+02  0.31761961199E+03  0.34451105606E+03  0.12509080675E+03 0.  0.
          5    1    3    3  502    0 -0.78791702644E+02 -0.29644642020E+02  0.25441980203E+03  0.26801836742E+03  0.41800000000E+01 0.  1.
         -5    1    3    3    0  502  0.42888400862E+02  0.16765420611E+00  0.63199809960E+02  0.76492688640E+02  0.41800000000E+01 0.  1.
        -11    1    1    2    0    0  0.16415089686E+02 -0.33057530490E+02 -0.17219449313E+02  0.40727937907E+02  0.00000000000E+00 0.  1.
         11    1    1    2    0    0  0.19488212096E+02  0.62534518304E+02 -0.47076348886E+02  0.80663120536E+02  0.00000000000E+00 0. -1.
</event>
<event>
 7    1  0.2690635E-009  0.8548500E+02  0.7561462E-02  0.1314169E+00
          1   -1    0    0  501    0  0.00000000000E+00  0.00000000000E+00  0.29554153423E+02  0.29554153423E+02  0.00000000000E+00 0. -1.
         -1   -1    0    0    0  501 -0.00000000000E+00 -0.00000000000E+00 -0.90704527274E+03  0.90704527274E+03  0.00000000000E+00 0.  1.
         25    2    1    2    0    0 -0.37690585640E+02  0.29774570691E+02 -0.79204036166E+03  0.80329473100E+03  0.12508950813E+03 0.  0.
          5    1    3    3  502    0  0.67494644709E+01  0.22443495710E+02 -0.70318726565E+03  0.70359012837E+03  0.41800000000E+01 0.  1.
         -5    1    3    3    0  502 -0.44440050111E+02  0.73310749814E+01 -0.88853096014E+02  0.99704602629E+02  0.41800000000E+01 0.  1.
        -11    1    1    2    0    0  0.66705934882E+02 -0.29436469559E+02 -0.55766527410E+02  0.91793752881E+02  0.00000000000E+00 0. -1.
         11    1    1    2    0    0 -0.29015349241E+02 -0.33810113263E+00 -0.29684230245E+02  0.41510942283E+02  0.00000000000E+00 0.  1.
</event>
<event>
 7    1  0.2690635E-009  0.1773912E+03  0.7561462E-02  0.1170352E+00
         -1   -1    0    0    0  501 -0.00000000000E+00  0.00000000000E+00  0.88532029118E+02  0.88532029118E+02  0.00000000000E+00 0.  1.
          1   -1    0    0  501    0  0.00000000000E+00 -0.00000000000E+00 -0.42365195304E+03  0.42365195304E+03  0.00000000000E+00 0. -1.
         25    2    1    2    0    0  0.72181807386E+02 -0.14194923216E+03 -0.19290371783E+03  0.27967696316E+03  0.12509021361E+03 0.  0.
          5    1    3    3  502    0 -0.10874842963E+02 -0.10219203708E+03 -0.13893378686E+03  0.17286279005E+03  0.41800000000E+01 0.  1.
         -5    1    3    3    0  502  0.83056650349E+02 -0.39757195073E+02 -0.53969930973E+02  0.10681417311E+03  0.41800000000E+01 0.  1.
        -11    1    1    2    0    0 -0.46566763018E+02  0.10420485930E+03 -0.40635312639E+02  0.12115421888E+03  0.00000000000E+00 0. -1.
         11    1    1    2    0    0 -0.25615044368E+02  0.37744372853E+02 -0.10158089344E+03  0.11135280011E+03  0.00000000000E+00 0.  1.
</event>
<event>
 7    1  0.2690635E-009  0.1620316E+03  0.7561462E-02  0.1186422E+00
          1   -1    0    0  501    0  0.00000000000E+00  0.00000000000E+00  0.71832930505E+03  0.71832930505E+03  0.00000000000E+00 0. -1.
         -1   -1    0    0    0  501 -0.00000000000E+00 -0.00000000000E+00 -0.44853919067E+02  0.44853919067E+02  0.00000000000E+00 0.  1.
         25    2    1    2    0    0 -0.13808882015E+03 -0.37759159581E+02  0.34317748930E+03  0.39231708483E+03  0.12509048526E+03 0.  0.
          5    1    3    3  502    0 -0.12158608783E+03 -0.61456776591E+02  0.33552345333E+03  0.36215131130E+03  0.41800000000E+01 0.  1.
         -5    1    3    3    0  502 -0.16502732321E+02  0.23697617010E+02  0.76540359737E+01  0.30165773530E+02  0.41800000000E+01 0.  1.
        -11    1    1    2    0    0  0.39044462644E+02  0.44635005726E+02  0.67017142929E+02  0.89487715613E+02  0.00000000000E+00 0.  1.
         11    1    1    2    0    0  0.99044357503E+02 -0.68758461450E+01  0.26328075375E+03  0.28137842368E+03  0.00000000000E+00 0. -1.
</event>
<event>
 7    1  0.2690635E-009  0.1636212E+03  0.7561462E-02  0.1184668E+00
         -2   -1    0    0    0  501 -0.00000000000E+00  0.00000000000E+00  0.41552507574E+02  0.41552507574E+02  0.00000000000E+00 0.  1.
          2   -1    0    0  501    0  0.00000000000E+00 -0.00000000000E+00 -0.72224702716E+03  0.72224702716E+03  0.00000000000E+00 0. -1.
         25    2    1    2    0    0 -0.12263544497E+03  0.25368631437E+02 -0.25685800491E+03  0.31193914243E+03  0.12508786542E+03 0.  0.
          5    1    3    3  502    0 -0.10740523641E+03  0.67768745842E+02 -0.15459623904E+03  0.20011486013E+03  0.41800000000E+01 0.  1.
         -5    1    3    3    0  502 -0.15230208560E+02 -0.42400114405E+02 -0.10226176587E+03  0.11182428230E+03  0.41800000000E+01 0.  1.
        -11    1    1    2    0    0  0.11652691353E+03  0.11928199225E+02 -0.28924532410E+03  0.31206355287E+03  0.00000000000E+00 0. -1.
         11    1    1    2    0    0  0.61085314365E+01 -0.37296830662E+02 -0.13459119058E+03  0.13979683943E+03  0.00000000000E+00 0.  1.
</event>
<event>
 7    1  0.2690635E-009  0.1133517E+03  0.7561462E-02  0.1254486E+00
          3   -1    0    0  501    0  0.00000000000E+00  0.00000000000E+00  0.17186481349E+03  0.17186481349E+03  0.00000000000E+00 0. -1.
         -3   -1    0    0    0  501 -0.00000000000E+00 -0.00000000000E+00 -0.11138296547E+03  0.11138296547E+03  0.00000000000E+00 0.  1.
         25    2    1    2    0    0 -0.51618123493E+01 -0.78676916723E+02  0.68899721298E+02  0.16312946994E+03  0.12508937140E+03 0.  0.
          5    1    3    3  502    0 -0.50971572521E+02 -0.54726909226E+02  0.80529510572E+02  0.10998004488E+03  0.41800000000E+01 0.  1.
         -5    1    3    3    0  502  0.45809760172E+02 -0.23950007496E+02 -0.11629789274E+02  0.53149425064E+02  0.41800000000E+01 0.  1.
        -11    1    1    2    0    0 -0.25267032842E+02  0.57670020328E+02 -0.37315853683E+02  0.73189665455E+02  0.00000000000E+00 0.  1.
         11    1    1    2    0    0  0.30428845191E+02  0.21006896395E+02  0.28897980406E+02  0.46928643570E+02  0.00000000000E+00 0. -1.
</event>
<event>
 7    1  0.2690635E-009  0.8382912E+02  0.7561462E-02  0.1318523E+00
          1   -1    0    0  501    0  0.00000000000E+00  0.00000000000E+00  0.33090676497E+02  0.33090676497E+02  0.00000000000E+00 0. -1.
         -1   -1    0    0    0  501 -0.00000000000E+00 -0.00000000000E+00 -0.38777295473E+03  0.38777295473E+03  0.00000000000E+00 0.  1.
         25    2    1    2    0    0 -0.92382115800E+01  0.23414718192E+01 -0.13958054480E+03  0.18767133103E+03  0.12508786097E+03 0.  0.
          5    1    3    3  502    0 -0.47634020950E+01  0.45478782378E+02 -0.49714035027E+01  0.46186544565E+02  0.41800000000E+01 0.  1.
         -5    1    3    3    0  502 -0.44748094850E+01 -0.43137310559E+02 -0.13460914129E+03  0.14148478647E+03  0.41800000000E+01 0.  1.
        -11    1    1    2    0    0  0.86732673172E+01  0.37416339898E+02 -0.16403296861E+03  0.16846964963E+03  0.00000000000E+00 0.  1.
         11    1    1    2    0    0  0.56494426282E+00 -0.39757811717E+02 -0.51068764830E+02  0.64722650562E+02  0.00000000000E+00 0. -1.
</event>
<event>
 7    1  0.2690635E-009  0.9616151E+02  0.7561462E-02  0.1288581E+00
          1   -1    0    0  501    0  0.00000000000E+00  0.00000000000E+00  0.12376869206E+03  0.12376869206E+03  0.00000000000E+00 0. -1.
         -1   -1    0    0    0  501 -0.00000000000E+00 -0.00000000000E+00 -0.10345344335E+03  0.10345344335E+03  0.00000000000E+00 0.  1.
         25    2    1    2    0    0  0.84791134531E+01  0.26786236039E+02  0.28371130213E+02  0.13130870994E+03  0.12509060105E+03 0.  0.
          5    1    3    3  502    0 -0.16175527593E+00 -0.50042128399E+02  0.17203663084E+02  0.53081816124E+02  0.41800000000E+01 0. -1.
         -5    1    3    3    0  502  0.86408687290E+01  0.76828364439E+02  0.11167467129E+02  0.78226893820E+02  0.41800000000E+01 0. -1.
        -11    1    1    2    0    0  0.88436585211E+01 -0.41204348080E+02 -0.39142397193E+02  0.57516396399E+02  0.00000000000E+00 0.  1.
         11    1    1    2    0    0 -0.17322771974E+02  0.14418112041E+02  0.31086515693E+02  0.38397029073E+02  0.00000000000E+00 0. -1.
</event>
<event>
 7    1  0.2690635E-009  0.1418880E+03  0.7561462E-02  0.1210811E+00
         -2   -1    0    0    0  501 -0.00000000000E+00  0.00000000000E+00  0.46796620176E+02  0.46796620176E+02  0.00000000000E+00 0.  1.
          2   -1    0    0  501    0  0.00000000000E+00 -0.00000000000E+00 -0.55377533865E+03  0.55377533865E+03  0.00000000000E+00 0. -1.
         25    2    1    2    0    0  0.23336409736E+02 -0.11456196559E+03 -0.29738275274E+03  0.34315143140E+03  0.12508945306E+03 0.  0.
          5    1    3    3  502    0 -0.26163574233E+02 -0.67603335492E+02 -0.24908530352E+03  0.25945270169E+03  0.41800000000E+01 0.  1.
         -5    1    3    3    0  502  0.49499983969E+02 -0.46958630102E+02 -0.48297449224E+02  0.83698729713E+02  0.41800000000E+01 0.  1.
        -11    1    1    2    0    0  0.30769960034E+02  0.48199340194E+02 -0.48492900252E+02  0.74976851165E+02  0.00000000000E+00 0. -1.
         11    1    1    2    0    0 -0.54106369770E+02  0.66362625400E+02 -0.16110306548E+03  0.18244367626E+03  0.00000000000E+00 0.  1.
</event>
<event>
 7    1  0.2690635E-009  0.1714217E+03  0.7561462E-02  0.1176373E+00
         -1   -1    0    0    0  501 -0.00000000000E+00  0.00000000000E+00  0.86912102207E+03  0.86912102207E+03  0.00000000000E+00 0.  1.
          1   -1    0    0  501    0  0.00000000000E+00 -0.00000000000E+00 -0.43208627953E+02  0.43208627953E+02  0.00000000000E+00 0. -1.
         25    2    1    2    0    0 -0.90998820264E+02  0.11594690558E+03  0.58665459842E+03  0.61768602879E+03  0.12509173478E+03 0.  0.
          5    1    3    3  502    0  0.27577854744E+02  0.11171532854E+02  0.51626403012E+02  0.59733567669E+02  0.41800000000E+01 0.  1.
         -5    1    3    3    0  502 -0.11857667501E+03  0.10477537273E+03  0.53502819541E+03  0.55795246112E+03  0.41800000000E+01 0.  1.
        -11    1    1    2    0    0  0.66675571634E+02 -0.47497065469E+02  0.60813733015E+02  0.10197996472E+03  0.00000000000E+00 0. -1.
         11    1    1    2    0    0  0.24323248630E+02 -0.68449840113E+02  0.17844406268E+03  0.19266365651E+03  0.00000000000E+00 0.  1.
</event>
<event>
 7    1  0.2690635E-009  0.1533791E+03  0.7561462E-02  0.1196381E+00
          1   -1    0    0  501    0  0.00000000000E+00  0.00000000000E+00  0.61296892033E+03  0.61296892033E+03  0.00000000000E+00 0. -1.
         -1   -1    0    0    0  501 -0.00000000000E+00 -0.00000000000E+00 -0.58414617845E+02  0.58414617845E+02  0.00000000000E+00 0.  1.
         25    2    1    2    0    0  0.11273457511E+03 -0.70190896855E+02  0.15017334905E+03  0.23629379302E+03  0.12508747111E+03 0.  0.
          5    1    3    3  502    0  0.63526574432E+02 -0.98279361295E+02  0.13242477576E+03  0.17677175156E+03  0.41800000000E+01 0.  1.
         -5    1    3    3    0  502  0.49208000677E+02  0.28088464440E+02  0.17748573292E+02  0.59522041456E+02  0.41800000000E+01 0.  1.
        -11    1    1    2    0    0 -0.31849769331E+02  0.21699003087E+02  0.29513744939E+02  0.48541896149E+02  0.00000000000E+00 0.  1.
         11    1    1    2    0    0 -0.80884805778E+02  0.48491893768E+02  0.37486720849E+03  0.38654784900E+03  0.00000000000E+00 0. -1.
</event>
<event>
 7    1  0.2690635E-009  0.1396952E+03  0.7561462E-02  0.1213740E+00
         -3   -1    0    0    0  501 -0.00000000000E+00  0.00000000000E+00  0.39458831775E+02  0.39458831775E+02  0.00000000000E+00 0.  1.
          3   -1    0    0  501    0  0.00000000000E+00 -0.00000000000E+00 -0.51608403665E+03  0.51608403665E+03  0.00000000000E+00 0. -1.
         25    2    1    2    0    0 -0.71470397480E+02 -0.57947790090E+02 -0.28200948041E+03  0.32193620454E+03  0.12509040195E+03 0.  0.
          5    1    3    3  502    0 -0.56398498218E+02  0.28820338948E+02 -0.84876184490E+02  0.10598510099E+03  0.41800000000E+01 0. -1.
         -5    1    3    3    0  502 -0.15071899263E+02 -0.86768129038E+02 -0.19713329592E+03  0.21595110355E+03  0.41800000000E+01 0. -1.
        -11    1    1    2    0    0  0.43227072026E+02  0.80656589724E+02 -0.12260037748E+03  0.15298665883E+03  0.00000000000E+00 0. -1.
         11    1    1    2    0    0  0.28243325455E+02 -0.22708799634E+02 -0.72015346985E+02  0.80620005054E+02  0.00000000000E+00 0.  1.
</event>
<event>
 7    1  0.2690635E-009  0.1925478E+03  0.7561462E-02  0.1156183E+00
          2   -1    0    0  501    0  0.00000000000E+00  0.00000000000E+00  0.14581413590E+04  0.14581413590E+04  0.00000000000E+00 0.  1.
         -2   -1    0    0    0  501 -0.00000000000E+00 -0.00000000000E+00 -0.30914283086E+02  0.30914283086E+02  0.00000000000E+00 0. -1.
         25    2    1    2    0    0  0.68135653629E+02 -0.15845923989E+03  0.53815855652E+03  0.57880429771E+03  0.12509190657E+03 0.  0.
          5    1    3    3  502    0  0.46037126230E+01  0.11915728624E+02  0.32628894998E+01  0.13831037793E+02  0.41800000000E+01 0.  1.
         -5    1    3    3    0  502  0.63531941006E+02 -0.17037496851E+03  0.53489566702E+03  0.56497325992E+03  0.41800000000E+01 0.  1.
        -11    1    1    2    0    0 -0.81195199464E+02  0.94943861936E+02  0.67919489472E+03  0.69058866364E+03  0.00000000000E+00 0. -1.
         11    1    1    2    0    0  0.13059545835E+02  0.63515377954E+02  0.20987362467E+03  0.21966268073E+03  0.00000000000E+00 0.  1.
</event>
<event>
 7    1  0.2690635E-009  0.9954467E+02  0.7561462E-02  0.1281256E+00
         -2   -1    0    0    0  501 -0.00000000000E+00  0.00000000000E+00  0.20620351631E+02  0.20620351631E+02  0.00000000000E+00 0.  1.
          2   -1    0    0  501    0  0.00000000000E+00 -0.00000000000E+00 -0.58574976553E+03  0.58574976553E+03  0.00000000000E+00 0. -1.
         25    2    1    2    0    0  0.63259515795E+01 -0.13678217347E+02 -0.29396841356E+03  0.31983241291E+03  0.12509289702E+03 0.  0.
          5    1    3    3  502    0 -0.57348488579E+02 -0.21668861087E+02 -0.13379903378E+03  0.14723465123E+03  0.41800000000E+01 0.  1.
         -5    1    3    3    0  502  0.63674440159E+02  0.79906437403E+01 -0.16016937979E+03  0.17259776168E+03  0.41800000000E+01 0.  1.
        -11    1    1    2    0    0 -0.44088637625E+01 -0.29642374706E+02 -0.33480106636E+02  0.44933573175E+02  0.00000000000E+00 0.  1.
         11    1    1    2    0    0 -0.19170878171E+01  0.43320592053E+02 -0.23768089370E+03  0.24160413107E+03  0.00000000000E+00 0. -1.
</event>
<event>
 7    1  0.3477126E-009  0.1411829E+03  0.7561462E-02  0.1211746E+00
         -1   -1    0    0    0  501 -0.00000000000E+00  0.00000000000E+00  0.43419665673E+02  0.43419665673E+02  0.00000000000E+00 0.  1.
          1   -1    0    0  501    0  0.00000000000E+00 -0.00000000000E+00 -0.60957758959E+03  0.60957758959E+03  0.00000000000E+00 0. -1.
         25    2    1    2    0    0 -0.23896479106E+02  0.10230627662E+03 -0.42207355594E+03  0.45258387392E+03  0.12509380622E+03 0.  0.
          5    1    3    3  502    0 -0.65741074428E+02  0.10050728846E+03 -0.33421837461E+03  0.35516615580E+03  0.41800000000E+01 0. -1.
         -5    1    3    3    0  502  0.41844595321E+02  0.17989881616E+01 -0.87855181335E+02  0.97417718118E+02  0.41800000000E+01 0. -1.
        -11    1    1    2    0    0  0.22624354359E+02 -0.54928616480E+01  0.38633523778E+01  0.23599966755E+02  0.00000000000E+00 0.  1.
         11    1    1    2    0    0  0.12721247480E+01 -0.96813414977E+02 -0.14794772035E+03  0.17681341459E+03  0.00000000000E+00 0. -1.
</event>
<event>
 7    1  0.2690635E-009  0.1062510E+03  0.7561462E-02  0.1267674E+00
          2   -1    0    0  501    0  0.00000000000E+00  0.00000000000E+00  0.12510268376E+04  0.12510268376E+04  0.00000000000E+00 0.  1.
         -2   -1    0    0    0  501 -0.00000000000E+00 -0.00000000000E+00 -0.14080251669E+02  0.14080251669E+02  0.00000000000E+00 0. -1.
         25    2    1    2    0    0 -0.59246598120E+02  0.34608912871E+02  0.78365031061E+03  0.79653260230E+03  0.12509372872E+03 0.  0.
          5    1    3    3  502    0 -0.55410091909E+02  0.54818080500E+02  0.23788583465E+03  0.25036462003E+03  0.41800000000E+01 0. -1.
         -5    1    3    3    0  502 -0.38365062119E+01 -0.20209167629E+02  0.54576447596E+03  0.54616798227E+03  0.41800000000E+01 0. -1.
        -11    1    1    2    0    0  0.83483735569E+02 -0.23077045684E+02  0.39516272603E+03  0.40454377289E+03  0.00000000000E+00 0. -1.
         11    1    1    2    0    0 -0.24237137448E+02 -0.11531867186E+02  0.58133549311E+02  0.64030714098E+02  0.00000000000E+00 0.  1.
</event>
<event>
 7    1  0.2690635E-009  0.1184241E+03  0.7561462E-02  0.1245720E+00
          3   -1    0    0  501    0  0.00000000000E+00  0.00000000000E+00  0.15633550751E+03  0.15633550751E+03  0.00000000000E+00 0. -1.
         -3   -1    0    0    0  501 -0.00000000000E+00 -0.00000000000E+00 -0.94638584289E+02  0.94638584289E+02  0.00000000000E+00 0.  1.
         25    2    1    2    0    0 -0.55187383554E+02 -0.54220172267E+01  0.27407497630E+02  0.13955673652E+03  0.12509942529E+03 0.  0.
          5    1    3    3  502    0 -0.93318124914E+02 -0.89260815983E+01  0.35264442883E+02  0.10024470411E+03  0.41800000000E+01 0.  1.
         -5    1    3    3    0  502  0.38130741360E+02  0.35040643716E+01 -0.78569452534E+01  0.39312032414E+02  0.41800000000E+01 0.  1.
        -11    1    1    2    0    0  0.44283957453E+01 -0.37657206572E+02  0.21618821007E+02  0.43646870649E+02  0.00000000000E+00 0.  1.
         11    1    1    2    0    0  0.50758987809E+02  0.43079223798E+02  0.12670604586E+02  0.67770484630E+02  0.00000000000E+00 0. -1.
</event>
<event>
 7    1  0.2690635E-009  0.1032539E+03  0.7561462E-02  0.1273599E+00
          3   -1    0    0  501    0  0.00000000000E+00  0.00000000000E+00  0.32386265764E+03  0.32386265764E+03  0.00000000000E+00 0. -1.
         -3   -1    0    0    0  501 -0.00000000000E+00 -0.00000000000E+00 -0.62437254048E+02  0.62437254048E+02  0.00000000000E+00 0.  1.
         25    2    1    2    0    0 -0.76152874648E+01 -0.34423435839E+02  0.25285573124E+03  0.28430075592E+03  0.12509170019E+03 0.  0.
          5    1    3    3  502    0 -0.77677725112E+01  0.37672723692E+02  0.27002078077E+02  0.47182168461E+02  0.41800000000E+01 0.  1.
         -5    1    3    3    0  502  0.15248504635E+00 -0.72096159531E+02  0.22585365317E+03  0.23711858746E+03  0.41800000000E+01 0.  1.
        -11    1    1    2    0    0 -0.37502507709E+02 -0.20844701563E+01 -0.13490712359E+02  0.39909678277E+02  0.00000000000E+00 0. -1.
         11    1    1    2    0    0  0.45117795173E+02  0.36507905995E+02  0.22060384707E+02  0.62089477489E+02  0.00000000000E+00 0.  1.
</event>
<event>
 7    1  0.2690635E-009  0.1739742E+03  0.7561462E-02  0.1173766E+00
         -1   -1    0    0    0  501 -0.00000000000E+00  0.00000000000E+00  0.42983633017E+03  0.42983633017E+03  0.00000000000E+00 0.  1.
          1   -1    0    0  501    0  0.00000000000E+00 -0.00000000000E+00 -0.83123109329E+02  0.83123109329E+02  0.00000000000E+00 0. -1.
         25    2    1    2    0    0 -0.12742001131E+02 -0.14977504577E+03  0.13226448045E+03  0.23608357569E+03  0.12508652602E+03 0.  0.
          5    1    3    3  502    0 -0.62273362301E+02 -0.11164589679E+03  0.62635315483E+02  0.14241991808E+03  0.41800000000E+01 0. -1.
         -5    1    3    3    0  502  0.49531361170E+02 -0.38129148988E+02  0.69629164964E+02  0.93663657603E+02  0.41800000000E+01 0. -1.
        -11    1    1    2    0    0 -0.13005905948E+01  0.14063025025E+03  0.21830165658E+03  0.25968090436E+03  0.00000000000E+00 0.  1.
         11    1    1    2    0    0  0.14042591726E+02  0.91447955223E+01 -0.38529161870E+01  0.17194959455E+02  0.00000000000E+00 0. -1.
</event>
<event>
 7    1  0.2690635E-009  0.1569586E+03  0.7561462E-02  0.1192174E+00
          1   -1    0    0  501    0  0.00000000000E+00  0.00000000000E+00  0.79729813070E+02  0.79729813070E+02  0.00000000000E+00 0. -1.
         -1   -1    0    0    0  501 -0.00000000000E+00 -0.00000000000E+00 -0.50948913201E+03  0.50948913201E+03  0.00000000000E+00 0.  1.
         25    2    1    2    0    0 -0.11539409151E+03 -0.53109111510E+02 -0.60411633319E+02  0.18823666207E+03  0.12508837447E+03 0.  0.
          5    1    3    3  502    0 -0.10896372691E+03 -0.31586346989E+01 -0.78676878149E+02  0.13450127996E+03  0.41800000000E+01 0.  1.
         -5    1    3    3    0  502 -0.64303646017E+01 -0.49950476811E+02  0.18265244830E+02  0.53735382117E+02  0.41800000000E+01 0.  1.
        -11    1    1    2    0    0  0.11968719782E+03  0.20535048608E+02 -0.31334226297E+03  0.33605072133E+03  0.00000000000E+00 0.  1.
         11    1    1    2    0    0 -0.42931063134E+01  0.32574062902E+02 -0.56005422654E+02  0.64931561681E+02  0.00000000000E+00 0. -1.
</event>
<event>
 7    1  0.2690635E-009  0.1155617E+03  0.7561462E-02  0.1250604E+00
          1   -1    0    0  501    0  0.00000000000E+00  0.00000000000E+00  0.74498534049E+03  0.74498534049E+03  0.00000000000E+00 0. -1.
         -1   -1    0    0    0  501 -0.00000000000E+00 -0.00000000000E+00 -0.27832412890E+02  0.27832412890E+02  0.00000000000E+00 0.  1.
         25    2    1    2    0    0 -0.44414978646E+02  0.67645060781E+02  0.53710993723E+03  0.55738975679E+03  0.12509081390E+03 0.  0.
          5    1    3    3  502    0  0.32413443494E+02 -0.12232666474E+02  0.85202925116E+02  0.92072147236E+02  0.41800000000E+01 0.  1.
         -5    1    3    3    0  502 -0.76828422141E+02  0.79877727255E+02  0.45190701211E+03  0.46531760955E+03  0.41800000000E+01 0.  1.
        -11    1    1    2    0    0  0.41598072321E+02 -0.40596309284E+02  0.34981289295E+02  0.67839152036E+02  0.00000000000E+00 0.  1.
         11    1    1    2    0    0  0.28169063256E+01 -0.27048751497E+02  0.14506170107E+03  0.14758884455E+03  0.00000000000E+00 0. -1.
</event>
<event>
 7    1  0.2690635E-009  0.1296449E+03  0.7561462E-02  0.1227984E+00
          2   -1    0    0  501    0  0.00000000000E+00  0.00000000000E+00  0.75199130582E+03  0.75199130582E+03  0.00000000000E+00 0. -1.
         -2   -1    0    0    0  501 -0.00000000000E+00 -0.00000000000E+00 -0.33243428315E+02  0.33243428315E+02  0.00000000000E+00 0.  1.
         25    2    1    2    0    0  0.23570162290E+02  0.72676044870E+02  0.17440300160E+03  0.22781844075E+03  0.12508986743E+03 0.  0.
          5    1    3    3  502    0 -0.32707319161E+02 -0.14533404566E+02  0.78784794257E+02  0.86634316417E+02  0.41800000000E+01 0.  1.
         -5    1    3    3    0  502  0.56277481451E+02  0.87209449436E+02  0.95618207343E+02  0.14118412434E+03  0.41800000000E+01 0.  1.
        -11    1    1    2    0    0 -0.30459284816E+02 -0.93031273343E+02  0.46647699927E+03  0.47663757374E+03  0.00000000000E+00 0. -1.
         11    1    1    2    0    0  0.68891225259E+01  0.20355228473E+02  0.77867876639E+02  0.80778719646E+02  0.00000000000E+00 0.  1.
</event>
<event>
 7    1  0.2690635E-009  0.1588460E+03  0.7561462E-02  0.1190006E+00
         -1   -1    0    0    0  501 -0.00000000000E+00  0.00000000000E+00  0.22856228434E+02  0.22856228434E+02  0.00000000000E+00 0.  1.
          1   -1    0    0  501    0  0.00000000000E+00 -0.00000000000E+00 -0.12000362177E+04  0.12000362177E+04  0.00000000000E+00 0. -1.
         25    2    1    2    0    0  0.11247461600E+03 -0.36731668849E+02 -0.73542088314E+03  0.75530843396E+03  0.12508876971E+03 0.  0.
          5    1    3    3  502    0  0.85300038492E+02  0.33546046616E+02 -0.49111903092E+03  0.49961666179E+03  0.41800000000E+01 0. -1.
         -5    1    3    3    0  502  0.27174577506E+02 -0.70277715465E+02 -0.24430185222E+03  0.25569177217E+03  0.41800000000E+01 0. -1.
        -11    1    1    2    0    0 -0.76667851019E+02  0.68344478715E+02 -0.25732411911E+03  0.27706430558E+03  0.00000000000E+00 0. -1.
         11    1    1    2    0    0 -0.35806764979E+02 -0.31612809866E+02 -0.18443498697E+03  0.19051970655E+03  0.00000000000E+00 0.  1.
</event>
<event>
 7    1  0.2690635E-009  0.1307751E+03  0.7561462E-02  0.1226310E+00
          1   -1    0    0  501    0  0.00000000000E+00  0.00000000000E+00  0.54623986039E+02  0.54623986039E+02  0.00000000000E+00 0. -1.
         -1   -1    0    0    0  501 -0.00000000000E+00 -0.00000000000E+00 -0.46118812118E+03  0.46118812118E+03  0.00000000000E+00 0.  1.
         25    2    1    2    0    0  0.54196825229E+02 -0.56615883510E+02 -0.81344828733E+02  0.16854297740E+03  0.12508836852E+03 0.  0.
          5    1    3    3  502    0 -0.80154198014E+01 -0.74580720185E+02 -0.69972107426E+02  0.10266498427E+03  0.41800000000E+01 0. -1.
         -5    1    3    3    0  502  0.62212245031E+02  0.17964836675E+02 -0.11372721308E+02  0.65877993127E+02  0.41800000000E+01 0. -1.
        -11    1    1    2    0    0 -0.22561927696E+02 -0.25194926228E+02 -0.81078915910E+02  0.87849960126E+02  0.00000000000E+00 0.  1.
         11    1    1    2    0    0 -0.31634897533E+02  0.81810809738E+02 -0.24414039050E+03  0.25941916969E+03  0.00000000000E+00 0. -1.
</event>
<event>
 7    1  0.2690635E-009  0.1140503E+03  0.7561462E-02  0.1253248E+00
         -1   -1    0    0    0  501 -0.00000000000E+00  0.00000000000E+00  0.22694149947E+02  0.22694149947E+02  0.00000000000E+00 0.  1.
          1   -1    0    0  501    0  0.00000000000E+00 -0.00000000000E+00 -0.76736241934E+03  0.76736241934E+03  0.00000000000E+00 0. -1.
         25    2    1    2    0    0 -0.39587754152E+02 -0.61322022960E+02 -0.38807385229E+03  0.41422005474E+03  0.12509739461E+03 0.  0.
          5    1    3    3  502    0  0.21371823692E+02  0.15072928386E+01 -0.65952812212E+01  0.22803440837E+02  0.41800000000E+01 0.  1.
         -5    1    3    3    0  502 -0.60959577844E+02 -0.62829315799E+02 -0.38147857107E+03  0.39141661390E+03  0.41800000000E+01 0.  1.
        -11    1    1    2    0    0  0.46936997024E+02  0.83213287267E+02 -0.29268903106E+03  0.30788699513E+03  0.00000000000E+00 0. -1.
         11    1    1    2    0    0 -0.73492428723E+01 -0.21891264307E+02 -0.63905386050E+02  0.67949519424E+02  0.00000000000E+00 0.  1.
</event>
<event>
 7    1  0.2690635E-009  0.1490107E+03  0.7561462E-02  0.1201694E+00
         -1   -1    0    0    0  501 -0.00000000000E+00  0.00000000000E+00  0.92636381993E+02  0.92636381993E+02  0.00000000000E+00 0. -1.
          1   -1    0    0  501    0  0.00000000000E+00 -0.00000000000E+00 -0.51845512285E+03  0.51845512285E+03  0.00000000000E+00 0.  1.
         25    2    1    2    0    0 -0.46238497480E+02 -0.12504679614E+03 -0.41048859852E+03  0.44935838917E+03  0.12508945811E+03 0.  0.
          5    1    3    3  502    0 -0.72497848728E+02 -0.11408566750E+03 -0.39318786887E+03  0.41579520227E+03  0.41800000000E+01 0.  1.
         -5    1    3    3    0  502  0.26259351248E+02 -0.10961128638E+02 -0.17300729649E+02  0.33563186907E+02  0.41800000000E+01 0.  1.
        -11    1    1    2    0    0  0.19884324795E+02  0.35613425127E+02 -0.47953990776E+02  0.62954647590E+02  0.00000000000E+00 0.  1.
         11    1    1    2    0    0  0.26354172685E+02  0.89433371012E+02  0.32623848443E+02  0.98778468078E+02  0.00000000000E+00 0. -1.
</event>
<event>
 7    1  0.2690635E-009  0.1026666E+03  0.7561462E-02  0.1274786E+00
         -2   -1    0    0    0  501 -0.00000000000E+00  0.00000000000E+00  0.38227174483E+02  0.38227174483E+02  0.00000000000E+00 0.  1.
          2   -1    0    0  501    0  0.00000000000E+00 -0.00000000000E+00 -0.55069259186E+03  0.55069259186E+03  0.00000000000E+00 0. -1.
         25    2    1    2    0    0  0.57834451104E+02  0.18454305606E+02 -0.42927845542E+03  0.45123483744E+03  0.12508997201E+03 0.  0.
          5    1    3    3  502    0  0.95922112473E+01  0.56354345223E+02 -0.32628624086E+03  0.33128236614E+03  0.41800000000E+01 0.  1.
         -5    1    3    3    0  502  0.48242239857E+02 -0.37900039618E+02 -0.10299221456E+03  0.11995247130E+03  0.41800000000E+01 0.  1.
        -11    1    1    2    0    0 -0.44389639975E+02  0.17824212533E+02 -0.86508671915E+02  0.98852885673E+02  0.00000000000E+00 0. -1.
         11    1    1    2    0    0 -0.13444811130E+02 -0.36278518139E+02  0.33217099576E+01  0.38832043234E+02  0.00000000000E+00 0.  1.
</event>
<event>
 7    1  0.2690635E-009  0.1639407E+03  0.7561462E-02  0.1184318E+00
          1   -1    0    0  501    0  0.00000000000E+00  0.00000000000E+00  0.27920495745E+03  0.27920495745E+03  0.00000000000E+00 0. -1.
         -1   -1    0    0    0  501 -0.00000000000E+00 -0.00000000000E+00 -0.13512665609E+03  0.13512665609E+03  0.00000000000E+00 0.  1.
         25    2    1    2    0    0  0.53069146147E+02  0.15165688763E+03  0.80458803952E+02  0.21895416529E+03  0.12510460233E+03 0.  0.
          5    1    3    3  502    0 -0.66716092577E+01  0.34146251286E+02 -0.30607943616E+02  0.46527362481E+02  0.41800000000E+01 0.  1.
         -5    1    3    3    0  502  0.59740755405E+02  0.11751063634E+03  0.11106674757E+03  0.17242680280E+03  0.41800000000E+01 0.  1.
        -11    1    1    2    0    0 -0.86810143740E+01 -0.36866927091E+02 -0.23515117822E+02  0.44581286319E+02  0.00000000000E+00 0.  1.
         11    1    1    2    0    0 -0.44388131773E+02 -0.11478996054E+03  0.87134615235E+02  0.15079616194E+03  0.00000000000E+00 0. -1.
</event>
<event>
 7    1  0.2690635E-009  0.2683008E+03  0.7561462E-02  0.1102256E+00
         -1   -1    0    0    0  501 -0.00000000000E+00  0.00000000000E+00  0.64058496181E+03  0.64058496181E+03  0.00000000000E+00 0.  1.
          1   -1    0    0  501    0  0.00000000000E+00 -0.00000000000E+00 -0.18691591184E+03  0.18691591184E+03  0.00000000000E+00 0. -1.
         25    2    1    2    0    0 -0.99707598440E+02  0.23990075745E+03  0.47036844158E+03  0.55170997700E+03  0.12507377536E+03 0.  0.
          5    1    3    3  502    0  0.35152581121E+00  0.12049958283E+03  0.28552629415E+03  0.30994033310E+03  0.41800000000E+01 0. -1.
         -5    1    3    3    0  502 -0.10005912425E+03  0.11940117462E+03  0.18484214743E+03  0.24176964390E+03  0.41800000000E+01 0. -1.
        -11    1    1    2    0    0  0.50936015739E+02 -0.10402883154E+03  0.37261357667E+02  0.12167532316E+03  0.00000000000E+00 0. -1.
         11    1    1    2    0    0  0.48771582701E+02 -0.13587192591E+03 -0.53960749273E+02  0.15411557349E+03  0.00000000000E+00 0.  1.
</event>
<event>
 7    1  0.2969435E-009  0.8560268E+02  0.7561462E-02  0.1313864E+00
         -2   -1    0    0    0  501 -0.00000000000E+00  0.00000000000E+00  0.68644859048E+02  0.68644859048E+02  0.00000000000E+00 0.  1.
          2   -1    0    0  501    0  0.00000000000E+00 -0.00000000000E+00 -0.19425744559E+03  0.19425744559E+03  0.00000000000E+00 0. -1.
         25    2    1    2    0    0  0.30069388613E+02  0.72206247340E+01 -0.10078929968E+03  0.16358894378E+03  0.12508618647E+03 0.  0.
          5    1    3    3  502    0  0.70181341365E+02 -0.75012435030E+01 -0.22322147087E+02  0.74144723214E+02  0.41800000000E+01 0. -1.
         -5    1    3    3    0  502 -0.40111952752E+02  0.14721868237E+02 -0.78467152590E+02  0.89444220571E+02  0.41800000000E+01 0. -1.
        -11    1    1    2    0    0 -0.95381849174E+01  0.20769888355E+02  0.27975971925E+02  0.36125063860E+02  0.00000000000E+00 0.  1.
         11    1    1    2    0    0 -0.20531203695E+02 -0.27990513089E+02 -0.52799258789E+02  0.63188296993E+02  0.00000000000E+00 0. -1.
</event>
<event>
 7    1  0.2690635E-009  0.1119700E+03  0.7561462E-02  0.1256965E+00
         -2   -1    0    0    0  501 -0.00000000000E+00  0.00000000000E+00  0.99100144437E+02  0.99100144437E+02  0.00000000000E+00 0.  1.
          2   -1    0    0  501    0  0.00000000000E+00 -0.00000000000E+00 -0.14288142951E+03  0.14288142951E+03  0.00000000000E+00 0. -1.
         25    2    1    2    0    0 -0.18104688934E+02 -0.44412630139E+02 -0.33425730516E+02  0.13807590402E+03  0.12508962520E+03 0.  0.
          5    1    3    3  502    0 -0.63039886999E+02  0.92419813933E+01 -0.15184730881E+02  0.65631471299E+02  0.41800000000E+01 0. -1.
         -5    1    3    3    0  502  0.44935198066E+02 -0.53654611532E+02 -0.18240999634E+02  0.72444432716E+02  0.41800000000E+01 0. -1.
        -11    1    1    2    0    0  0.70823505208E+01 -0.21765661212E+02 -0.26382848656E+02  0.34927902887E+02  0.00000000000E+00 0. -1.
         11    1    1    2    0    0  0.11022338413E+02  0.66178291350E+02  0.16027294100E+02  0.68977767044E+02  0.00000000000E+00 0.  1.
</event>
<event>
 7    1  0.2690635E-009  0.7377426E+02  0.7561462E-02  0.1347709E+00
          1   -1    0    0  501    0  0.00000000000E+00  0.00000000000E+00  0.11927998397E+02  0.11927998397E+02  0.00000000000E+00 0.  1.
         -1   -1    0    0    0  501 -0.00000000000E+00 -0.00000000000E+00 -0.11026623648E+04  0.11026623648E+04  0.00000000000E+00 0. -1.
         25    2    1    2    0    0 -0.31242745994E+01  0.40810273310E+02 -0.63633559584E+03  0.64980504085E+03  0.12509340947E+03 0.  0.
          5    1    3    3  502    0 -0.13810251128E+02  0.11066024437E+02 -0.60442250558E+03  0.60469597120E+03  0.41800000000E+01 0.  1.
         -5    1    3    3    0  502  0.10685976528E+02  0.29744248873E+02 -0.31913090253E+02  0.45109069652E+02  0.41800000000E+01 0.  1.
        -11    1    1    2    0    0 -0.27971768507E+02 -0.56208743362E+02 -0.27723373209E+03  0.28425408505E+03  0.00000000000E+00 0.  1.
         11    1    1    2    0    0  0.31096043106E+02  0.15398470053E+02 -0.17716503851E+03  0.18053123731E+03  0.00000000000E+00 0. -1.
</event>
<event>
 7    1  0.2690635E-009  0.8462345E+02  0.7561462E-02  0.1316420E+00
          2   -1    0    0  501    0  0.00000000000E+00  0.00000000000E+00  0.21089312533E+03  0.21089312533E+03  0.00000000000E+00 0.  1.
         -2   -1    0    0    0  501 -0.00000000000E+00 -0.00000000000E+00 -0.75122764532E+02  0.75122764532E+02  0.00000000000E+00 0. -1.
         25    2    1    2    0    0 -0.61828200890E+02 -0.36592941782E+01  0.88838019877E+02  0.16545843978E+03  0.12509270426E+03 0.  0.
          5    1    3    3  502    0 -0.39593618710E+02  0.28193607568E+02 -0.17766726055E+02  0.51919775664E+02  0.41800000000E+01 0. -1.
         -5    1    3    3    0  502 -0.22234582180E+02 -0.31852901747E+02  0.10660474593E+03  0.11353866412E+03  0.41800000000E+01 0. -1.
        -11    1    1    2    0    0 -0.67263365569E+01  0.10528674994E+02  0.50053212051E+02  0.51588958482E+02  0.00000000000E+00 0.  1.
         11    1    1    2    0    0  0.68554537447E+02 -0.68693808154E+01 -0.31208711256E+01  0.68968491602E+02  0.00000000000E+00 0. -1.
</event>
<event>
 7    1  0.2690635E-009  0.5943999E+02  0.7561462E-02  0.1400197E+00
         -1   -1    0    0    0  501 -0.00000000000E+00  0.00000000000E+00  0.83654380003E+02  0.83654380003E+02  0.00000000000E+00 0.  1.
          1   -1    0    0  501    0  0.00000000000E+00 -0.00000000000E+00 -0.14576825839E+03  0.14576825839E+03  0.00000000000E+00 0. -1.
         25    2    1    2    0    0  0.41526615849E+01 -0.15360193572E+02 -0.54392983636E+02  0.13733054229E+03  0.12509157058E+03 0.  0.
          5    1    3    3  502    0 -0.54531751897E+01 -0.39107969738E+02  0.29530920241E+02  0.49484523510E+02  0.41800000000E+01 0.  1.
         -5    1    3    3    0  502  0.96058367746E+01  0.23747776166E+02 -0.83923903877E+02  0.87846018777E+02  0.41800000000E+01 0.  1.
        -11    1    1    2    0    0  0.23318641775E+02  0.91718236742E+01 -0.41276095487E+02  0.48286617839E+02  0.00000000000E+00 0. -1.
         11    1    1    2    0    0 -0.27471303360E+02  0.61883698980E+01  0.33555200733E+02  0.43805478270E+02  0.00000000000E+00 0.  1.
</event>
<event>
 7    1  0.2690635E-009  0.2657138E+03  0.7561462E-02  0.1103758E+00
          2   -1    0    0  501    0  0.00000000000E+00  0.00000000000E+00  0.55770661003E+03  0.55770661003E+03  0.00000000000E+00 0. -1.
         -2   -1    0    0    0  501 -0.00000000000E+00 -0.00000000000E+00 -0.15583377958E+03  0.15583377958E+03  0.00000000000E+00 0.  1.
         25    2    1    2    0    0  0.10007211188E+03  0.23833291487E+03  0.95489733124E+02  0.30262856636E+03  0.12509498055E+03 0.  0.
          5    1    3    3  502    0  0.52562977324E+02  0.18921113066E+03  0.15049972461E+02  0.19699668176E+03  0.41800000000E+01 0. -1.
         -5    1    3    3    0  502  0.47509134554E+02  0.49121784210E+02  0.80439760663E+02  0.10563188461E+03  0.41800000000E+01 0. -1.
        -11    1    1    2    0    0 -0.64997436176E+02 -0.21450981414E+03  0.21696426543E+03  0.31194970676E+03  0.00000000000E+00 0.  1.
         11    1    1    2    0    0 -0.35074675703E+02 -0.23823100730E+02  0.89418831899E+02  0.98962116501E+02  0.00000000000E+00 0. -1.
</event>
<event>
 7    1  0.2690635E-009  0.1067748E+03  0.7561462E-02  0.1266662E+00
          2   -1    0    0  501    0  0.00000000000E+00  0.00000000000E+00  0.49798015557E+03  0.49798015557E+03  0.00000000000E+00 0. -1.
         -2   -1    0    0    0  501 -0.00000000000E+00 -0.00000000000E+00 -0.32723904873E+02  0.32723904873E+02  0.00000000000E+00 0.  1.
         25    2    1    2    0    0  0.49300900829E+02  0.12292841612E+02  0.35089842719E+03  0.37597354814E+03  0.12507881485E+03 0.  0.
          5    1    3    3  502    0  0.64596683522E+01  0.53405638091E+02  0.27111498024E+03  0.27643207919E+03  0.41800000000E+01 0.  1.
         -5    1    3    3    0  502  0.42841232477E+02 -0.41112796479E+02  0.79783446951E+02  0.99541468956E+02  0.41800000000E+01 0.  1.
        -11    1    1    2    0    0  0.24942334974E+02 -0.52774602653E+01  0.12237145781E+02  0.28279310417E+02  0.00000000000E+00 0.  1.
         11    1    1    2    0    0 -0.74243235803E+02 -0.70153813462E+01  0.10212067773E+03  0.12645120189E+03  0.00000000000E+00 0. -1.
</event>
<event>
 7    1  0.2690635E-009  0.9607299E+02  0.7561462E-02  0.1288778E+00
         -1   -1    0    0    0  501 -0.00000000000E+00  0.00000000000E+00  0.39067630475E+03  0.39067630475E+03  0.00000000000E+00 0.  1.
          1   -1    0    0  501    0  0.00000000000E+00 -0.00000000000E+00 -0.38934842894E+02  0.38934842894E+02  0.00000000000E+00 0. -1.
         25    2    1    2    0    0 -0.18239305909E+02  0.15765043803E+02  0.29176206239E+03  0.31836155561E+03  0.12509104746E+03 0.  0.
          5    1    3    3  502    0  0.50621234355E+02 -0.79488342509E+01  0.87779506708E+02  0.10172712289E+03  0.41800000000E+01 0.  1.
         -5    1    3    3    0  502 -0.68860540263E+02  0.23713878054E+02  0.20398255568E+03  0.21663443272E+03  0.41800000000E+01 0.  1.
        -11    1    1    2    0    0  0.38683787797E+02 -0.24242774033E+02  0.72608075830E+02  0.85767594154E+02  0.00000000000E+00 0.  1.
         11    1    1    2    0    0 -0.20444481889E+02  0.84777302305E+01 -0.12628676360E+02  0.25481997884E+02  0.00000000000E+00 0. -1.
</event>
<event>
 7    1  0.2690635E-009  0.6445591E+02  0.7561462E-02  0.1380030E+00
          2   -1    0    0  501    0  0.00000000000E+00  0.00000000000E+00  0.35005100424E+02  0.35005100424E+02  0.00000000000E+00 0. -1.
         -2   -1    0    0    0  501 -0.00000000000E+00 -0.00000000000E+00 -0.41920779284E+03  0.41920779284E+03  0.00000000000E+00 0.  1.
         25    2    1    2    0    0 -0.81860475395E+01 -0.44188899116E+02 -0.25846865870E+03  0.29064541113E+03  0.12509611225E+03 0.  0.
          5    1    3    3  502    0 -0.54075618560E+01 -0.32942830736E+02 -0.27099709858E+03  0.27307759275E+03  0.41800000000E+01 0. -1.
         -5    1    3    3    0  502 -0.27784856834E+01 -0.11246068381E+02  0.12528439881E+02  0.17567818378E+02  0.41800000000E+01 0. -1.
        -11    1    1    2    0    0 -0.30044396054E+02  0.29175855811E+02 -0.11308588012E+03  0.12059151122E+03  0.00000000000E+00 0.  1.
         11    1    1    2    0    0  0.38230443594E+02  0.15013043305E+02 -0.12648153598E+02  0.42975970915E+02  0.00000000000E+00 0. -1.
</event>
<event>
 7    1  0.2690635E-009  0.1055027E+03  0.7561462E-02  0.1269132E+00
         -2   -1    0    0    0  501 -0.00000000000E+00  0.00000000000E+00  0.10133655858E+03  0.10133655858E+03  0.00000000000E+00 0. -1.
          2   -1    0    0  501    0  0.00000000000E+00 -0.00000000000E+00 -0.15802960806E+03  0.15802960806E+03  0.00000000000E+00 0.  1.
         25    2    1    2    0    0 -0.40511984086E+02  0.10470883872E+02  0.19861516336E+02  0.13339028034E+03  0.12509047443E+03 0.  0.
          5    1    3    3  502    0 -0.63714939970E+02  0.52953776525E+02  0.17291690794E+02  0.84735889647E+02  0.41800000000E+01 0.  1.
         -5    1    3    3    0  502  0.23202955884E+02 -0.42482892653E+02  0.25698255423E+01  0.48654390689E+02  0.41800000000E+01 0.  1.
        -11    1    1    2    0    0  0.27723586177E+02 -0.39203645887E+02 -0.55720876826E+01  0.48338093079E+02  0.00000000000E+00 0. -1.
         11    1    1    2    0    0  0.12788397909E+02  0.28732762015E+02 -0.70982478132E+02  0.77637793219E+02  0.00000000000E+00 0.  1.
</event>
<event>
 7    1  0.2690635E-009  0.6392924E+02  0.7561462E-02  0.1382045E+00
         -3   -1    0    0    0  501 -0.00000000000E+00  0.00000000000E+00  0.10407022561E+04  0.10407022561E+04  0.00000000000E+00 0.  1.
          3   -1    0    0  501    0  0.00000000000E+00 -0.00000000000E+00 -0.11979354149E+02  0.11979354149E+02  0.00000000000E+00 0. -1.
         25    2    1    2    0    0  0.22979666209E+02 -0.48054489421E+01  0.62035475734E+03  0.63327719095E+03  0.12509523658E+03 0.  0.
          5    1    3    3  502    0  0.17599279946E+02  0.70363061850E+01  0.83651316409E+01  0.21135091358E+02  0.41800000000E+01 0.  1.
         -5    1    3    3    0  502  0.53803862632E+01 -0.11841755127E+02  0.61198962570E+03  0.61214209959E+03  0.41800000000E+01 0.  1.
        -11    1    1    2    0    0  0.95028478190E+00  0.46609237920E+02  0.22784733388E+03  0.23256769264E+03  0.00000000000E+00 0.  1.
         11    1    1    2    0    0 -0.23929950991E+02 -0.41803788978E+02  0.18052081074E+03  0.18683672669E+03  0.00000000000E+00 0. -1.
</event>
<event>
 7    1  0.2690635E-009  0.1041671E+03  0.7561462E-02  0.1271769E+00
         -4   -1    0    0    0  501 -0.00000000000E+00  0.00000000000E+00  0.21206002475E+03  0.21206002475E+03  0.00000000000E+00 0.  1.
          4   -1    0    0  501    0  0.00000000000E+00 -0.00000000000E+00 -0.74224048812E+02  0.74224048812E+02  0.00000000000E+00 0. -1.
         25    2    1    2    0    0  0.23063064332E+02 -0.23726125479E+02  0.13798697937E+03  0.18916371815E+03  0.12509065442E+03 0.  0.
          5    1    3    3  502    0 -0.16230866129E+02  0.44675859618E+02  0.34075380578E+02  0.58634268218E+02  0.41800000000E+01 0.  1.
         -5    1    3    3    0  502  0.39293930461E+02 -0.68401985097E+02  0.10391159879E+03  0.13052944993E+03  0.41800000000E+01 0.  1.
        -11    1    1    2    0    0  0.22703829271E+02  0.27545614915E+02 -0.26238539547E+02  0.44302209000E+02  0.00000000000E+00 0. -1.
         11    1    1    2    0    0 -0.45766893604E+02 -0.38194894366E+01  0.26087536115E+02  0.52818146410E+02  0.00000000000E+00 0.  1.
</event>
<event>
 7    1  0.2690635E-009  0.2005768E+03  0.7561462E-02  0.1149253E+00
         -2   -1    0    0    0  501 -0.00000000000E+00  0.00000000000E+00  0.31814579322E+02  0.31814579322E+02  0.00000000000E+00 0.  1.
          2   -1    0    0  501    0  0.00000000000E+00 -0.00000000000E+00 -0.14397635289E+04  0.14397635289E+04  0.00000000000E+00 0. -1.
         25    2    1    2    0    0 -0.17051920336E+03 -0.66248184226E+02 -0.81685786000E+03  0.84638638211E+03  0.12509006254E+03 0.  0.
          5    1    3    3  502    0 -0.15376286205E+03 -0.97084024129E+02 -0.61040340335E+03  0.63692865590E+03  0.41800000000E+01 0.  1.
         -5    1    3    3    0  502 -0.16756341305E+02  0.30835839902E+02 -0.20645445665E+03  0.20945772620E+03  0.41800000000E+01 0.  1.
        -11    1    1    2    0    0  0.84360328845E+02  0.22617504156E+02 -0.14932030484E+03  0.17298777418E+03  0.00000000000E+00 0.  1.
         11    1    1    2    0    0  0.86158874511E+02  0.43630680070E+02 -0.44177078470E+03  0.45220395190E+03  0.00000000000E+00 0. -1.
</event>
<event>
 7    1  0.2690635E-009  0.1292071E+03  0.7561462E-02  0.1228637E+00
          3   -1    0    0  501    0  0.00000000000E+00  0.00000000000E+00  0.23305140729E+03  0.23305140729E+03  0.00000000000E+00 0. -1.
         -3   -1    0    0    0  501 -0.00000000000E+00 -0.00000000000E+00 -0.14687417584E+03  0.14687417584E+03  0.00000000000E+00 0.  1.
         25    2    1    2    0    0  0.47761596655E+02  0.91389323921E+02  0.14469754826E+03  0.21729530554E+03  0.12508673268E+03 0.  0.
          5    1    3    3  502    0 -0.38259737957E+02  0.22068394121E+02  0.73327400982E+02  0.85704152189E+02  0.41800000000E+01 0.  1.
         -5    1    3    3    0  502  0.86021334612E+02  0.69320929800E+02  0.71370147277E+02  0.13159115335E+03  0.41800000000E+01 0.  1.
        -11    1    1    2    0    0 -0.16636913335E+02 -0.41251220065E+02 -0.86540838826E+02  0.97302450261E+02  0.00000000000E+00 0.  1.
         11    1    1    2    0    0 -0.31124683320E+02 -0.50138103857E+02  0.28020522022E+02  0.65327827336E+02  0.00000000000E+00 0. -1.
</event>
<event>
 7    1  0.2690635E-009  0.1150454E+03  0.7561462E-02  0.1251502E+00
          1   -1    0    0  501    0  0.00000000000E+00  0.00000000000E+00  0.70368104201E+02  0.70368104201E+02  0.00000000000E+00 0. -1.
         -1   -1    0    0    0  501 -0.00000000000E+00 -0.00000000000E+00 -0.29364950139E+03  0.29364950139E+03  0.00000000000E+00 0.  1.
         25    2    1    2    0    0 -0.25621559153E+01 -0.70348014277E+02 -0.20132448764E+03  0.24725596375E+03  0.12509418265E+03 0.  0.
          5    1    3    3  502    0 -0.34009757153E+02 -0.80614667088E+02 -0.19436760084E+03  0.21319386667E+03  0.41800000000E+01 0. -1.
         -5    1    3    3    0  502  0.31447601238E+02  0.10266652811E+02 -0.69568867968E+01  0.34062097079E+02  0.41800000000E+01 0. -1.
        -11    1    1    2    0    0 -0.27856698174E+02 -0.46294571350E+01  0.97259005511E+01  0.29866714718E+02  0.00000000000E+00 0. -1.
         11    1    1    2    0    0  0.30418854089E+02  0.74977471412E+02 -0.31682810107E+02  0.86894927123E+02  0.00000000000E+00 0.  1.
</event>
<event>
 7    1  0.2690635E-009  0.6358080E+02  0.7561462E-02  0.1383391E+00
         -2   -1    0    0    0  501 -0.00000000000E+00  0.00000000000E+00  0.45096886949E+02  0.45096886949E+02  0.00000000000E+00 0.  1.
          2   -1    0    0  501    0  0.00000000000E+00 -0.00000000000E+00 -0.30138066778E+03  0.30138066778E+03  0.00000000000E+00 0. -1.
         25    2    1    2    0    0 -0.17468177313E+01  0.34860902128E+02 -0.15034638265E+03  0.19866924385E+03  0.12508836799E+03 0.  0.
          5    1    3    3  502    0  0.73030677040E+00  0.14813908479E+02 -0.16969156722E+03  0.17038980491E+03  0.41800000000E+01 0. -1.
         -5    1    3    3    0  502 -0.24771245017E+01  0.20046993650E+02  0.19345184576E+02  0.28279438935E+02  0.41800000000E+01 0. -1.
        -11    1    1    2    0    0 -0.39151178307E+02 -0.29722763985E+01 -0.12963439976E+02  0.41348518302E+02  0.00000000000E+00 0.  1.
         11    1    1    2    0    0  0.40897996038E+02 -0.31888625730E+02 -0.92973958211E+02  0.10645979258E+03  0.00000000000E+00 0. -1.
</event>
<event>
 7    1  0.2690635E-009  0.1415493E+03  0.7561462E-02  0.1211259E+00
         -2   -1    0    0    0  501 -0.00000000000E+00  0.00000000000E+00  0.29693706508E+02  0.29693706508E+02  0.00000000000E+00 0. -1.
          2   -1    0    0  501    0  0.00000000000E+00 -0.00000000000E+00 -0.80993102616E+03  0.80993102616E+03  0.00000000000E+00 0.  1.
         25    2    1    2    0    0 -0.57903278481E+02 -0.70300674028E+02 -0.24989559078E+03  0.29392193002E+03  0.12508924905E+03 0.  0.
          5    1    3    3  502    0  0.19228315361E+02 -0.74769466208E+02 -0.12141082821E+03  0.14393839931E+03  0.41800000000E+01 0.  1.
         -5    1    3    3    0  502 -0.77131593842E+02  0.44687921799E+01 -0.12848476257E+03  0.14998353071E+03  0.41800000000E+01 0.  1.
        -11    1    1    2    0    0  0.41895179488E+02  0.92206236299E+02 -0.40691090523E+03  0.41932526859E+03  0.00000000000E+00 0. -1.
         11    1    1    2    0    0  0.16008098993E+02 -0.21905562271E+02 -0.12343082364E+03  0.12637753406E+03  0.00000000000E+00 0.  1.
</event>
<event>
 7    1  0.2690635E-009  0.1540192E+03  0.7561462E-02  0.1195619E+00
          2   -1    0    0  501    0  0.00000000000E+00  0.00000000000E+00  0.67882577226E+03  0.67882577226E+03  0.00000000000E+00 0. -1.
         -2   -1    0    0    0  501 -0.00000000000E+00 -0.00000000000E+00 -0.62478821188E+02  0.62478821188E+02  0.00000000000E+00 0.  1.
         25    2    1    2    0    0  0.83693510551E+02 -0.40677151690E+02  0.54048765210E+03  0.56252345568E+03  0.12508597740E+03 0.  0.
          5    1    3    3  502    0  0.17166002826E+02  0.40001081876E+02  0.90292194228E+02  0.10032402974E+03  0.41800000000E+01 0.  1.
         -5    1    3    3    0  502  0.66527507725E+02 -0.80678233566E+02  0.45019545787E+03  0.46219942594E+03  0.41800000000E+01 0.  1.
        -11    1    1    2    0    0 -0.32179310995E+02 -0.47594560683E+02  0.13369550850E+02  0.58987245678E+02  0.00000000000E+00 0.  1.
         11    1    1    2    0    0 -0.51514199555E+02  0.88271712373E+02  0.62489748125E+02  0.11979389209E+03  0.00000000000E+00 0. -1.
</event>
<event>
 7    1  0.2690635E-009  0.1086638E+03  0.7561462E-02  0.1263065E+00
          1   -1    0    0  501    0  0.00000000000E+00  0.00000000000E+00  0.53524591082E+02  0.53524591082E+02  0.00000000000E+00 0. -1.
         -1   -1    0    0    0  501 -0.00000000000E+00 -0.00000000000E+00 -0.44693314464E+03  0.44693314464E+03  0.00000000000E+00 0.  1.
         25    2    1    2    0    0 -0.83906691811E+02  0.30265565797E+02 -0.31638941399E+03  0.35171959250E+03  0.12509225818E+03 0.  0.
          5    1    3    3  502    0 -0.60125376932E+02  0.29350895782E+01 -0.30857928647E+03  0.31442379703E+03  0.41800000000E+01 0.  1.
         -5    1    3    3    0  502 -0.23781314879E+02  0.27330476219E+02 -0.78101275268E+01  0.37295795469E+02  0.41800000000E+01 0.  1.
        -11    1    1    2    0    0 -0.52606123482E+01 -0.30902626645E+02 -0.67982302718E+00  0.31354561633E+02  0.00000000000E+00 0.  1.
         11    1    1    2    0    0  0.89167304159E+02  0.63706084862E+00 -0.76339316540E+02  0.11738358159E+03  0.00000000000E+00 0. -1.
</event>
<event>
 7    1  0.2690635E-009  0.9159544E+02  0.7561462E-02  0.1299033E+00
          1   -1    0    0  501    0  0.00000000000E+00  0.00000000000E+00  0.12139659742E+03  0.12139659742E+03  0.00000000000E+00 0. -1.
         -1   -1    0    0    0  501 -0.00000000000E+00 -0.00000000000E+00 -0.10919812548E+03  0.10919812548E+03  0.00000000000E+00 0.  1.
         25    2    1    2    0    0 -0.65630220609E+01  0.12431895637E+02 -0.28030046636E+02  0.12896278477E+03  0.12509233012E+03 0.  0.
          5    1    3    3  502    0  0.30081227481E+01  0.54550856009E+02 -0.55189206600E+02  0.77769953188E+02  0.41800000000E+01 0. -1.
         -5    1    3    3    0  502 -0.95711448090E+01 -0.42118960372E+02  0.27159159964E+02  0.51192831585E+02  0.41800000000E+01 0. -1.
        -11    1    1    2    0    0  0.45057220357E+02 -0.19147734906E+01  0.18299783499E+00  0.45098258858E+02  0.00000000000E+00 0.  1.
         11    1    1    2    0    0 -0.38494198296E+02 -0.10517122146E+02  0.40045520743E+02  0.56533679274E+02  0.00000000000E+00 0. -1.
</event>
<event>
 7    1  0.2690635E-009  0.2383493E+03  0.7561462E-02  0.1120897E+00
         -2   -1    0    0    0  501 -0.00000000000E+00  0.00000000000E+00  0.76486798773E+02  0.76486798773E+02  0.00000000000E+00 0.  1.
          2   -1    0    0  501    0  0.00000000000E+00 -0.00000000000E+00 -0.91089333938E+03  0.91089333938E+03  0.00000000000E+00 0. -1.
         25    2    1    2    0    0  0.21050937343E+03  0.59221550261E+02 -0.24199984668E+03  0.34933343645E+03  0.12509410741E+03 0.  0.
          5    1    3    3  502    0  0.37327632368E+02 -0.33508769118E+02 -0.23726168102E+02  0.55647041240E+02  0.41800000000E+01 0.  1.
         -5    1    3    3    0  502  0.17318174107E+03  0.92730319379E+02 -0.21827367858E+03  0.29368639521E+03  0.41800000000E+01 0.  1.
        -11    1    1    2    0    0 -0.14779235256E+03 -0.64913393058E+01 -0.30176419866E+03  0.33607491509E+03  0.00000000000E+00 0.  1.
         11    1    1    2    0    0 -0.62717020872E+02 -0.52730210955E+02 -0.29064249527E+03  0.30197178662E+03  0.00000000000E+00 0. -1.
</event>
<event>
 7    1  0.2690635E-009  0.3196488E+03  0.7561462E-02  0.1075811E+00
         -2   -1    0    0    0  501 -0.00000000000E+00  0.00000000000E+00  0.26551040527E+03  0.26551040527E+03  0.00000000000E+00 0.  1.
          2   -1    0    0  501    0  0.00000000000E+00 -0.00000000000E+00 -0.51553542050E+03  0.51553542050E+03  0.00000000000E+00 0. -1.
         25    2    1    2    0    0  0.47618135158E+02  0.31507549785E+03 -0.28541782505E+03  0.44570377082E+03  0.12509380610E+03 0.  0.
          5    1    3    3  502    0  0.31190252364E+02  0.21139752491E+03 -0.10787509740E+03  0.23940813357E+03  0.41800000000E+01 0. -1.
         -5    1    3    3    0  502  0.16427882795E+02  0.10367797294E+03 -0.17754272765E+03  0.20629563725E+03  0.41800000000E+01 0. -1.
        -11    1    1    2    0    0 -0.10872607128E+02 -0.18584881540E+03 -0.25376322617E+02  0.18788814098E+03  0.00000000000E+00 0.  1.
         11    1    1    2    0    0 -0.36745528030E+02 -0.12922668245E+03  0.60769132442E+02  0.14745391397E+03  0.00000000000E+00 0. -1.
</event>
<event>
 7    1  0.2690635E-009  0.9606525E+02  0.7561462E-02  0.1288795E+00
         -1   -1    0    0    0  501 -0.00000000000E+00  0.00000000000E+00  0.12968248904E+04  0.12968248904E+04  0.00000000000E+00 0.  1.
          1   -1    0    0  501    0  0.00000000000E+00 -0.00000000000E+00 -0.11674693348E+02  0.11674693348E+02  0.00000000000E+00 0. -1.
         25    2    1    2    0    0  0.51132391859E+02 -0.22644463263E+02  0.79910622137E+03  0.81076851106E+03  0.12509009665E+03 0.  0.
          5    1    3    3  502    0  0.59246653653E+02  0.15717161935E+01  0.76804248520E+03  0.77033717796E+03  0.41800000000E+01 0.  1.
         -5    1    3    3    0  502 -0.81142617939E+01 -0.24216179457E+02  0.31063736162E+02  0.40431333100E+02  0.41800000000E+01 0.  1.
        -11    1    1    2    0    0  0.21902926475E+02  0.25662653352E+02  0.13442153425E+03  0.13859097675E+03  0.00000000000E+00 0.  1.
         11    1    1    2    0    0 -0.73035318334E+02 -0.30181900888E+01  0.35162244147E+03  0.35914009598E+03  0.00000000000E+00 0. -1.
</event>
<event>
 7    1  0.2690635E-009  0.1360242E+03  0.7561462E-02  0.1218781E+00
          2   -1    0    0  501    0  0.00000000000E+00  0.00000000000E+00  0.22338412798E+03  0.22338412798E+03  0.00000000000E+00 0. -1.
         -2   -1    0    0    0  501 -0.00000000000E+00 -0.00000000000E+00 -0.14151726873E+03  0.14151726873E+03  0.00000000000E+00 0.  1.
         25    2    1    2    0    0  0.14551008580E+01  0.81874540464E+02 -0.73363404910E+02  0.16654886268E+03  0.12510306465E+03 0.  0.
          5    1    3    3  502    0 -0.55490450963E+02  0.82776417588E+01 -0.24526521783E+02  0.61373709126E+02  0.41800000000E+01 0. -1.
         -5    1    3    3    0  502  0.56945551821E+02  0.73596898705E+02 -0.48836883127E+02  0.10517515355E+03  0.41800000000E+01 0. -1.
        -11    1    1    2    0    0  0.24801861033E+02  0.10257002800E+02  0.24979878918E+02  0.36665143773E+02  0.00000000000E+00 0.  1.
         11    1    1    2    0    0 -0.26256961891E+02 -0.92131543264E+02  0.13025038524E+03  0.16168739025E+03  0.00000000000E+00 0. -1.
</event>
<event>
 7    1  0.2690635E-009  0.2832050E+03  0.7561462E-02  0.1093951E+00
         -1   -1    0    0    0  501 -0.00000000000E+00  0.00000000000E+00  0.90182303106E+02  0.90182303106E+02  0.00000000000E+00 0.  1.
          1   -1    0    0  501    0  0.00000000000E+00 -0.00000000000E+00 -0.10012286108E+04  0.10012286108E+04  0.00000000000E+00 0. -1.
         25    2    1    2    0    0  0.12001986644E+03 -0.24872901803E+03 -0.37987478835E+03  0.48602457990E+03  0.12507655534E+03 0.  0.
          5    1    3    3  502    0  0.58110908832E+02 -0.14550439790E+03 -0.11297138684E+03  0.19320562668E+03  0.41800000000E+01 0. -1.
         -5    1    3    3    0  502  0.61908957607E+02 -0.10322462013E+03 -0.26690340151E+03  0.29281895323E+03  0.41800000000E+01 0. -1.
        -11    1    1    2    0    0  0.11282519601E+02  0.48985111883E+01 -0.13287403285E+02  0.18106511162E+02  0.00000000000E+00 0. -1.
         11    1    1    2    0    0 -0.13130238604E+03  0.24383050684E+03 -0.51788411604E+03  0.58727982282E+03  0.00000000000E+00 0.  1.
</event>
<event>
 7    1  0.2690635E-009  0.1513381E+03  0.7561462E-02  0.1198838E+00
         -2   -1    0    0    0  501 -0.00000000000E+00  0.00000000000E+00  0.82226779997E+02  0.82226779997E+02  0.00000000000E+00 0.  1.
          2   -1    0    0  501    0  0.00000000000E+00 -0.00000000000E+00 -0.36613019138E+03  0.36613019138E+03  0.00000000000E+00 0. -1.
         25    2    1    2    0    0 -0.35110953195E+02  0.13021082117E+03 -0.12773565333E+03  0.22394417132E+03  0.12508780017E+03 0.  0.
          5    1    3    3  502    0  0.35032566016E+02  0.49422953369E+02 -0.93583089686E+02  0.11155794941E+03  0.41800000000E+01 0.  1.
         -5    1    3    3    0  502 -0.70143519211E+02  0.80787867802E+02 -0.34152563647E+02  0.11238622191E+03  0.41800000000E+01 0.  1.
        -11    1    1    2    0    0  0.22356855130E+02 -0.87072698607E+02 -0.37318581549E+02  0.97335298545E+02  0.00000000000E+00 0.  1.
         11    1    1    2    0    0  0.12754098065E+02 -0.43138122565E+02 -0.11884917650E+03  0.12707750151E+03  0.00000000000E+00 0. -1.
</event>
<event>
 7    1  0.2690635E-009  0.1000418E+03  0.7561462E-02  0.1280208E+00
          1   -1    0    0  501    0  0.00000000000E+00  0.00000000000E+00  0.41151002055E+03  0.41151002055E+03  0.00000000000E+00 0. -1.
         -1   -1    0    0    0  501 -0.00000000000E+00 -0.00000000000E+00 -0.28999561473E+02  0.28999561473E+02  0.00000000000E+00 0.  1.
         25    2    1    2    0    0 -0.67619694979E+01 -0.98778992718E+01  0.24806265237E+03  0.27807567209E+03  0.12509077815E+03 0.  0.
          5    1    3    3  502    0 -0.88910579245E+01  0.56399532280E+02  0.13955662063E+03  0.15084256997E+03  0.41800000000E+01 0. -1.
         -5    1    3    3    0  502  0.21290884265E+01 -0.66277431552E+02  0.10850603174E+03  0.12723310212E+03  0.41800000000E+01 0. -1.
        -11    1    1    2    0    0  0.31180890466E+02 -0.20574927135E+02  0.21886541744E+02  0.43296608024E+02  0.00000000000E+00 0.  1.
         11    1    1    2    0    0 -0.24418920968E+02  0.30452826407E+02  0.11256126496E+03  0.11913730191E+03  0.00000000000E+00 0. -1.
</event>
<event>
 7    1  0.2690635E-009  0.8864256E+02  0.7561462E-02  0.1306173E+00
         -1   -1    0    0    0  501 -0.00000000000E+00  0.00000000000E+00  0.31861757977E+03  0.31861757977E+03  0.00000000000E+00 0.  1.
          1   -1    0    0  501    0  0.00000000000E+00 -0.00000000000E+00 -0.42811509213E+02  0.42811509213E+02  0.00000000000E+00 0. -1.
         25    2    1    2    0    0  0.97220442657E+01  0.14643373451E+01  0.12733026983E+03  0.17876603668E+03  0.12509051053E+03 0.  0.
          5    1    3    3  502    0 -0.29012192702E+02  0.51098305714E+02  0.82461386164E+02  0.10134148598E+03  0.41800000000E+01 0.  1.
         -5    1    3    3    0  502  0.38734236968E+02 -0.49633968369E+02  0.44868883670E+02  0.77424550701E+02  0.41800000000E+01 0.  1.
        -11    1    1    2    0    0  0.11973465249E+01  0.25842150612E+02  0.15094963275E+03  0.15315039019E+03  0.00000000000E+00 0.  1.
         11    1    1    2    0    0 -0.10919390791E+02 -0.27306487957E+02 -0.24738320349E+01  0.29512662108E+02  0.00000000000E+00 0. -1.
</event>
<event>
 7    1  0.2690635E-009  0.8328525E+02  0.7561462E-02  0.1319979E+00
          1   -1    0    0  501    0  0.00000000000E+00  0.00000000000E+00  0.34278872135E+03  0.34278872135E+03  0.00000000000E+00 0. -1.
         -1   -1    0    0    0  501 -0.00000000000E+00 -0.00000000000E+00 -0.55382370609E+02  0.55382370609E+02  0.00000000000E+00 0.  1.
         25    2    1    2    0    0  0.26894106761E+02  0.16517492632E+02  0.27080846275E+03  0.29996831371E+03  0.12509054798E+03 0.  0.
          5    1    3    3  502    0  0.46722077777E+02  0.27070659476E+02  0.27175725458E+03  0.27710151745E+03  0.41800000000E+01 0. -1.
         -5    1    3    3    0  502 -0.19827971016E+02 -0.10553166844E+02 -0.94879183752E+00  0.22866796255E+02  0.41800000000E+01 0. -1.
        -11    1    1    2    0    0 -0.25345632022E+02  0.32112210320E+02 -0.10871652182E+02  0.42329516125E+02  0.00000000000E+00 0.  1.
         11    1    1    2    0    0 -0.15484747391E+01 -0.48629702951E+02  0.27469540181E+02  0.55873262129E+02  0.00000000000E+00 0. -1.
</event>
<event>
 7    1  0.2690635E-009  0.1391259E+03  0.7561462E-02  0.1214510E+00
          2   -1    0    0  501    0  0.00000000000E+00  0.00000000000E+00  0.12061320530E+03  0.12061320530E+03  0.00000000000E+00 0. -1.
         -2   -1    0    0    0  501 -0.00000000000E+00 -0.00000000000E+00 -0.18083465188E+03  0.18083465188E+03  0.00000000000E+00 0.  1.
         25    2    1    2    0    0  0.91994659937E+02  0.32547777749E+02 -0.55817375531E+02  0.16818300625E+03  0.12509024297E+03 0.  0.
          5    1    3    3  502    0  0.89484459991E+01  0.57426284882E+02  0.10174237428E+02  0.59150996512E+02  0.41800000000E+01 0.  1.
         -5    1    3    3    0  502  0.83046213938E+02 -0.24878507133E+02 -0.65991612959E+02  0.10903200974E+03  0.41800000000E+01 0.  1.
        -11    1    1    2    0    0 -0.94785518340E+02 -0.55652794681E+02 -0.39794004048E+01  0.10998801603E+03  0.00000000000E+00 0.  1.
         11    1    1    2    0    0  0.27908584032E+01  0.23105016932E+02 -0.42467064733E+00  0.23276834906E+02  0.00000000000E+00 0. -1.
</event>
<event>
 7    1  0.2690635E-009  0.1278458E+03  0.7561462E-02  0.1230688E+00
         -2   -1    0    0    0  501 -0.00000000000E+00  0.00000000000E+00  0.53764529521E+02  0.53764529521E+02  0.00000000000E+00 0.  1.
          2   -1    0    0  501    0  0.00000000000E+00 -0.00000000000E+00 -0.51687704388E+03  0.51687704388E+03  0.00000000000E+00 0. -1.
         25    2    1    2    0    0 -0.54423054771E+02 -0.85818961379E+02 -0.37294653094E+03  0.40628179061E+03  0.12509602478E+03 0.  0.
          5    1    3    3  502    0 -0.16887108486E+02 -0.10782196566E+03 -0.19978724467E+03  0.22769094458E+03  0.41800000000E+01 0.  1.
         -5    1    3    3    0  502 -0.37535946285E+02  0.22003004285E+02 -0.17315928627E+03  0.17859084602E+03  0.41800000000E+01 0.  1.
        -11    1    1    2    0    0  0.36585036094E+02  0.43492836692E+02 -0.10214515789E+03  0.11689193724E+03  0.00000000000E+00 0. -1.
         11    1    1    2    0    0  0.17838018677E+02  0.42326124687E+02  0.11979174472E+02  0.47467845563E+02  0.00000000000E+00 0.  1.
</event>
<event>
 7    1  0.2690635E-009  0.1072472E+03  0.7561462E-02  0.1265754E+00
         -1   -1    0    0    0  501 -0.00000000000E+00  0.00000000000E+00  0.38658711923E+02  0.38658711923E+02  0.00000000000E+00 0.  1.
          1   -1    0    0  501    0  0.00000000000E+00 -0.00000000000E+00 -0.52691061010E+03  0.52691061010E+03  0.00000000000E+00 0. -1.
         25    2    1    2    0    0 -0.15480658520E+02 -0.61441619497E+02 -0.39749052321E+03  0.42149933043E+03  0.12509294993E+03 0.  0.
          5    1    3    3  502    0  0.53375324800E+02 -0.36005310438E+02 -0.22314194424E+03  0.23228238710E+03  0.41800000000E+01 0. -1.
         -5    1    3    3    0  502 -0.68855983320E+02 -0.25436309058E+02 -0.17434857897E+03  0.18921694333E+03  0.41800000000E+01 0. -1.
        -11    1    1    2    0    0  0.69873560527E+00  0.61664356846E+02 -0.10619524106E+02  0.62575997227E+02  0.00000000000E+00 0.  1.
         11    1    1    2    0    0  0.14781922914E+02 -0.22273734928E+00 -0.80141850861E+02  0.81493994358E+02  0.00000000000E+00 0. -1.
</event>
<event>
 7    1  0.2690635E-009  0.1086457E+03  0.7561462E-02  0.1263099E+00
          1   -1    0    0  501    0  0.00000000000E+00  0.00000000000E+00  0.13550608771E+03  0.13550608771E+03  0.00000000000E+00 0. -1.
         -1   -1    0    0    0  501 -0.00000000000E+00 -0.00000000000E+00 -0.10905151343E+03  0.10905151343E+03  0.00000000000E+00 0.  1.
         25    2    1    2    0    0 -0.26306081840E+02  0.35884941798E+02  0.47654770537E+02  0.14105290991E+03  0.12508080289E+03 0.  0.
          5    1    3    3  502    0 -0.58364481007E+02 -0.24412956087E+02  0.31297683312E+02  0.70706594097E+02  0.41800000000E+01 0. -1.
         -5    1    3    3    0  502  0.32058399167E+02  0.60297897885E+02  0.16357087225E+02  0.70346315817E+02  0.41800000000E+01 0. -1.
        -11    1    1    2    0    0  0.83653005095E+01  0.22704187742E+02 -0.33184693198E+02  0.41069237347E+02  0.00000000000E+00 0.  1.
         11    1    1    2    0    0  0.17940781331E+02 -0.58589129540E+02  0.11984496938E+02  0.62435453885E+02  0.00000000000E+00 0. -1.
</event>
<event>
 7    1  0.2690635E-009  0.1516743E+03  0.7561462E-02  0.1198431E+00
          4   -1    0    0  501    0  0.00000000000E+00  0.00000000000E+00  0.13716448126E+03  0.13716448126E+03  0.00000000000E+00 0. -1.
         -4   -1    0    0    0  501 -0.00000000000E+00 -0.00000000000E+00 -0.19966586063E+03  0.19966586063E+03  0.00000000000E+00 0.  1.
         25    2    1    2    0    0 -0.10396207750E+03 -0.62818128351E+02 -0.70626843281E+01  0.17450577376E+03  0.12509257675E+03 0.  0.
          5    1    3    3  502    0  0.14213169757E+01  0.18407664770E+02  0.30759517633E+02  0.36117621589E+02  0.41800000000E+01 0.  1.
         -5    1    3    3    0  502 -0.10538339448E+03 -0.81225793121E+02 -0.37822201961E+02  0.13838815217E+03  0.41800000000E+01 0.  1.
        -11    1    1    2    0    0  0.16225845299E+02  0.61446327538E+02 -0.33656397259E+02  0.71914409544E+02  0.00000000000E+00 0.  1.
         11    1    1    2    0    0  0.87736232203E+02  0.13718008132E+01 -0.21782297789E+02  0.90410158586E+02  0.00000000000E+00 0. -1.
</event>
<event>
 7    1  0.2690635E-009  0.8537179E+02  0.7561462E-02  0.1314463E+00
         -1   -1    0    0    0  501 -0.00000000000E+00  0.00000000000E+00  0.26442374492E+02  0.26442374492E+02  0.00000000000E+00 0.  1.
          1   -1    0    0  501    0  0.00000000000E+00 -0.00000000000E+00 -0.88523254792E+03  0.88523254792E+03  0.00000000000E+00 0. -1.
         25    2    1    2    0    0  0.30745265519E+02 -0.36057346398E+02 -0.74669261924E+03  0.75857930224E+03  0.12508911457E+03 0.  0.
          5    1    3    3  502    0  0.43238766039E+02 -0.29865074440E+02 -0.74111952080E+03  0.74299201212E+03  0.41800000000E+01 0.  1.
         -5    1    3    3    0  502 -0.12493500520E+02 -0.61922719575E+01 -0.55730984387E+01  0.15587290125E+02  0.41800000000E+01 0.  1.
        -11    1    1    2    0    0  0.31254033660E+02 -0.94599392892E+00 -0.25508688916E+02  0.40353472400E+02  0.00000000000E+00 0. -1.
         11    1    1    2    0    0 -0.61999299179E+02  0.37003340327E+02 -0.86588865272E+02  0.11274214777E+03  0.00000000000E+00 0.  1.
</event>
<event>
 7    1  0.2690635E-009  0.9008670E+02  0.7561462E-02  0.1302642E+00
         -2   -1    0    0    0  501 -0.00000000000E+00  0.00000000000E+00  0.89153249183E+02  0.89153249183E+02  0.00000000000E+00 0.  1.
          2   -1    0    0  501    0  0.00000000000E+00 -0.00000000000E+00 -0.14563793055E+03  0.14563793055E+03  0.00000000000E+00 0. -1.
         25    2    1    2    0    0 -0.27698217829E+01 -0.26374568046E+02 -0.70192955389E+01  0.12805736573E+03  0.12508448607E+03 0.  0.
          5    1    3    3  502    0  0.48186001474E+02 -0.28436256252E+02  0.31193102940E+02  0.64194964590E+02  0.41800000000E+01 0.  1.
         -5    1    3    3    0  502 -0.50955823257E+02  0.20616882057E+01 -0.38212398479E+02  0.63862401141E+02  0.41800000000E+01 0.  1.
        -11    1    1    2    0    0  0.11738303123E+02  0.48038066660E+02 -0.62665107459E+02  0.79827058705E+02  0.00000000000E+00 0. -1.
         11    1    1    2    0    0 -0.89684813396E+01 -0.21663498614E+02  0.13199721628E+02  0.26906755300E+02  0.00000000000E+00 0.  1.
</event>
<event>
 7    1  0.2690635E-009  0.7734454E+02  0.7561462E-02  0.1336761E+00
         -2   -1    0    0    0  501 -0.00000000000E+00  0.00000000000E+00  0.70624603725E+02  0.70624603725E+02  0.00000000000E+00 0.  1.
          2   -1    0    0  501    0  0.00000000000E+00 -0.00000000000E+00 -0.17561324497E+03  0.17561324497E+03  0.00000000000E+00 0. -1.
         25    2    1    2    0    0  0.18004603466E+01 -0.23893741718E+02 -0.34441019289E+02  0.13194049385E+03  0.12509179653E+03 0.  0.
          5    1    3    3  502    0 -0.25466344880E+02  0.33026601207E+02 -0.51526642630E+02  0.66421069018E+02  0.41800000000E+01 0. -1.
         -5    1    3    3    0  502  0.27266805226E+02 -0.56920342925E+02  0.17085623340E+02  0.65519424836E+02  0.41800000000E+01 0. -1.
        -11    1    1    2    0    0  0.20134035213E+01 -0.12635570582E+02  0.15877823105E+02  0.20391584152E+02  0.00000000000E+00 0.  1.
         11    1    1    2    0    0 -0.38138638679E+01  0.36529312300E+02 -0.86425445059E+02  0.93905770687E+02  0.00000000000E+00 0. -1.
</event>
<event>
 7    1  0.2690635E-009  0.7634158E+02  0.7561462E-02  0.1339766E+00
         -2   -1    0    0    0  501 -0.00000000000E+00  0.00000000000E+00  0.59659957562E+02  0.59659957562E+02  0.00000000000E+00 0.  1.
          2   -1    0    0  501    0  0.00000000000E+00 -0.00000000000E+00 -0.22624669880E+03  0.22624669880E+03  0.00000000000E+00 0. -1.
         25    2    1    2    0    0 -0.58865286203E+01 -0.22264536441E+01 -0.15462411781E+03  0.19898594602E+03  0.12508869089E+03 0.  0.
          5    1    3    3  502    0  0.25917976697E+02  0.53708642103E+02 -0.86878160152E+02  0.10545921896E+03  0.41800000000E+01 0. -1.
         -5    1    3    3    0  502 -0.31804505318E+02 -0.55935095747E+02 -0.67745957662E+02  0.93526727058E+02  0.41800000000E+01 0. -1.
        -11    1    1    2    0    0 -0.18789099256E+01  0.14104956114E+02 -0.47006117157E+02  0.49112677993E+02  0.00000000000E+00 0. -1.
         11    1    1    2    0    0  0.77654385459E+01 -0.11878502470E+02  0.35043493736E+02  0.37808032347E+02  0.00000000000E+00 0.  1.
</event>
<event>
 7    1  0.2690635E-009  0.1078867E+03  0.7561462E-02  0.1264534E+00
         -3   -1    0    0    0  501 -0.00000000000E+00  0.00000000000E+00  0.37013802891E+02  0.37013802891E+02  0.00000000000E+00 0.  1.
          3   -1    0    0  501    0  0.00000000000E+00 -0.00000000000E+00 -0.55120007278E+03  0.55120007278E+03  0.00000000000E+00 0. -1.
         25    2    1    2    0    0 -0.31105275352E+02 -0.44606221346E+02 -0.12624522049E+03  0.18586517925E+03  0.12510298168E+03 0.  0.
          5    1    3    3  502    0 -0.42236868639E+02  0.18924990511E+02 -0.10971425640E+03  0.11915032017E+03  0.41800000000E+01 0.  1.
         -5    1    3    3    0  502  0.11131593287E+02 -0.63531211857E+02 -0.16530964087E+02  0.66714859086E+02  0.41800000000E+01 0.  1.
        -11    1    1    2    0    0  0.42737914811E+02  0.66978364673E+02 -0.32438029344E+03  0.33396886901E+03  0.00000000000E+00 0. -1.
         11    1    1    2    0    0 -0.11632639459E+02 -0.22372143327E+02 -0.63560755964E+02  0.68379827409E+02  0.00000000000E+00 0.  1.
</event>
<event>
 7    1  0.2690635E-009  0.1488592E+03  0.7561462E-02  0.1201882E+00
          2   -1    0    0  501    0  0.00000000000E+00  0.00000000000E+00  0.28535850776E+03  0.28535850776E+03  0.00000000000E+00 0. -1.
         -2   -1    0    0    0  501 -0.00000000000E+00 -0.00000000000E+00 -0.86429729416E+02  0.86429729416E+02  0.00000000000E+00 0.  1.
         25    2    1    2    0    0  0.79389471959E+01 -0.10291057890E+03  0.51339079497E+02  0.17010703863E+03  0.12508832630E+03 0.  0.
          5    1    3    3  502    0  0.40795931493E+02  0.10952637874E+02  0.47948050677E+01  0.42716868547E+02  0.41800000000E+01 0. -1.
         -5    1    3    3    0  502 -0.32856984297E+02 -0.11386321678E+03  0.46544274429E+02  0.12739017009E+03  0.41800000000E+01 0. -1.
        -11    1    1    2    0    0 -0.44473360187E+02  0.25935266501E+02  0.45512681637E+02  0.68716242655E+02  0.00000000000E+00 0.  1.
         11    1    1    2    0    0  0.36534412992E+02  0.76975312402E+02  0.10207701721E+03  0.13296495589E+03  0.00000000000E+00 0. -1.
</event>
<event>
 7    1  0.2690635E-009  0.9949994E+02  0.7561462E-02  0.1281351E+00
          2   -1    0    0  501    0  0.00000000000E+00  0.00000000000E+00  0.13636948106E+03  0.13636948106E+03  0.00000000000E+00 0. -1.
         -2   -1    0    0    0  501 -0.00000000000E+00 -0.00000000000E+00 -0.91444923852E+02  0.91444923852E+02  0.00000000000E+00 0.  1.
         25    2    1    2    0    0 -0.83125893967E-01  0.13503540412E+02  0.49984883948E+02  0.13538176860E+03  0.12508949649E+03 0.  0.
          5    1    3    3  502    0 -0.52514429964E+02 -0.23041295894E+02  0.41197653054E+02  0.70734614497E+02  0.41800000000E+01 0. -1.
         -5    1    3    3    0  502  0.52431304070E+02  0.36544836306E+02  0.87872308933E+01  0.64647154105E+02  0.41800000000E+01 0. -1.
        -11    1    1    2    0    0  0.69987583279E+01  0.31323736528E+02 -0.27097339451E+02  0.42005057952E+02  0.00000000000E+00 0.  1.
         11    1    1    2    0    0 -0.69156324339E+01 -0.44827276940E+02  0.22037012712E+02  0.50427578359E+02  0.00000000000E+00 0. -1.
</event>
<event>
 7    1  0.2690635E-009  0.1021701E+03  0.7561462E-02  0.1275798E+00
         -1   -1    0    0    0  501 -0.00000000000E+00  0.00000000000E+00  0.15923700450E+02  0.15923700450E+02  0.00000000000E+00 0.  1.
          1   -1    0    0  501    0  0.00000000000E+00 -0.00000000000E+00 -0.85957443089E+03  0.85957443089E+03  0.00000000000E+00 0. -1.
         25    2    1    2    0    0  0.85077097146E+01  0.42510032181E+02 -0.50872554218E+03  0.52566852744E+03  0.12508492920E+03 0.  0.
          5    1    3    3  502    0 -0.32168419683E+02  0.54333910910E+02 -0.13026723153E+03  0.14482404880E+03  0.41800000000E+01 0.  1.
         -5    1    3    3    0  502  0.40676129398E+02 -0.11823878729E+02 -0.37845831066E+03  0.38084447865E+03  0.41800000000E+01 0.  1.
        -11    1    1    2    0    0  0.39548516885E+02 -0.11076466660E+02 -0.10264508390E+03  0.11055671192E+03  0.00000000000E+00 0. -1.
         11    1    1    2    0    0 -0.48056226600E+02 -0.31433565520E+02 -0.23228010435E+03  0.23927289197E+03  0.00000000000E+00 0.  1.
</event>
<event>
 7    1  0.2690635E-009  0.1131435E+03  0.7561462E-02  0.1254857E+00
          2   -1    0    0  501    0  0.00000000000E+00  0.00000000000E+00  0.48921409648E+02  0.48921409648E+02  0.00000000000E+00 0. -1.
         -2   -1    0    0    0  501 -0.00000000000E+00 -0.00000000000E+00 -0.27766002390E+03  0.27766002390E+03  0.00000000000E+00 0.  1.
         25    2    1    2    0    0  0.41077150327E+02  0.86944419880E+01 -0.11458682040E+03  0.17475212896E+03  0.12508094006E+03 0.  0.
          5    1    3    3  502    0 -0.33147998662E+02  0.34864196100E+02 -0.67330094634E+02  0.82855995730E+02  0.41800000000E+01 0.  1.
         -5    1    3    3    0  502  0.74225148989E+02 -0.26169754112E+02 -0.47256725764E+02  0.91896133230E+02  0.41800000000E+01 0.  1.
        -11    1    1    2    0    0 -0.69187783680E+02 -0.13966785654E+02 -0.71453265463E+02  0.10043699347E+03  0.00000000000E+00 0.  1.
         11    1    1    2    0    0  0.28110633353E+02  0.52723436659E+01 -0.42698528394E+02  0.51392311120E+02  0.00000000000E+00 0. -1.
</event>
<event>
 7    1  0.2690635E-009  0.1070824E+03  0.7561462E-02  0.1266070E+00
         -1   -1    0    0    0  501 -0.00000000000E+00  0.00000000000E+00  0.39146297384E+02  0.39146297384E+02  0.00000000000E+00 0.  1.
          1   -1    0    0  501    0  0.00000000000E+00 -0.00000000000E+00 -0.34498102138E+03  0.34498102138E+03  0.00000000000E+00 0. -1.
         25    2    1    2    0    0  0.46876136973E+01 -0.86797764696E+01 -0.10647589392E+03  0.16456549567E+03  0.12508946453E+03 0.  0.
          5    1    3    3  502    0  0.54871515080E+02  0.26320952210E+02 -0.34782128566E+02  0.70220684702E+02  0.41800000000E+01 0. -1.
         -5    1    3    3    0  502 -0.50183901382E+02 -0.35000728679E+02 -0.71693765351E+02  0.94344810966E+02  0.41800000000E+01 0. -1.
        -11    1    1    2    0    0  0.42091423040E+02 -0.66429381265E+01 -0.86072580632E+02  0.96043248889E+02  0.00000000000E+00 0. -1.
         11    1    1    2    0    0 -0.46779036737E+02  0.15322714596E+02 -0.11328624944E+03  0.12351857420E+03  0.00000000000E+00 0.  1.
</event>
<event>
 7    1  0.2690635E-009  0.1615891E+03  0.7561462E-02  0.1186914E+00
          1   -1    0    0  501    0  0.00000000000E+00  0.00000000000E+00  0.30670492938E+03  0.30670492938E+03  0.00000000000E+00 0. -1.
         -1   -1    0    0    0  501 -0.00000000000E+00 -0.00000000000E+00 -0.12233637682E+03  0.12233637682E+03  0.00000000000E+00 0.  1.
         25    2    1    2    0    0 -0.33730466696E+01 -0.15800405460E+03  0.73733308222E+02  0.21461905355E+03  0.12509228069E+03 0.  0.
          5    1    3    3  502    0  0.20845734791E+01 -0.10006974833E+03 -0.21947340792E+02  0.10255465931E+03  0.41800000000E+01 0. -1.
         -5    1    3    3    0  502 -0.54576201486E+01 -0.57934306271E+02  0.95680649014E+02  0.11206439424E+03  0.41800000000E+01 0. -1.
        -11    1    1    2    0    0 -0.21478080716E+02  0.74874249562E+02  0.10037394881E+03  0.12705270874E+03  0.00000000000E+00 0.  1.
         11    1    1    2    0    0  0.24851127385E+02  0.83129805038E+02  0.10261295542E+02  0.87369543916E+02  0.00000000000E+00 0. -1.
</event>
<event>
 7    1  0.2690635E-009  0.1172391E+03  0.7561462E-02  0.1247722E+00
         -1   -1    0    0    0  501 -0.00000000000E+00  0.00000000000E+00  0.16390934221E+02  0.16390934221E+02  0.00000000000E+00 0.  1.
          1   -1    0    0  501    0  0.00000000000E+00 -0.00000000000E+00 -0.19869645697E+04  0.19869645697E+04  0.00000000000E+00 0. -1.
         25    2    1    2    0    0 -0.23671933810E+02 -0.90702415464E+02 -0.16463115640E+04  0.16537159772E+04  0.12508988350E+03 0.  0.
          5    1    3    3  502    0  0.14295903617E+02 -0.36694399426E+02 -0.12851021011E+03  0.13447378299E+03  0.41800000000E+01 0. -1.
         -5    1    3    3    0  502 -0.37967837427E+02 -0.54008016038E+02 -0.15178013538E+04  0.15192421942E+04  0.41800000000E+01 0. -1.
        -11    1    1    2    0    0 -0.90861691273E+01  0.95224294314E+02 -0.26557465956E+03  0.28227668076E+03  0.00000000000E+00 0. -1.
         11    1    1    2    0    0  0.32758102938E+02 -0.45218788504E+01 -0.58687411977E+02  0.67362845998E+02  0.00000000000E+00 0.  1.
</event>
<event>
 7    1  0.2690635E-009  0.1293569E+03  0.7561462E-02  0.1228413E+00
         -4   -1    0    0    0  501 -0.00000000000E+00  0.00000000000E+00  0.50995760621E+02  0.50995760621E+02  0.00000000000E+00 0.  1.
          4   -1    0    0  501    0  0.00000000000E+00 -0.00000000000E+00 -0.43833777769E+03  0.43833777769E+03  0.00000000000E+00 0. -1.
         25    2    1    2    0    0  0.30514105355E+01  0.12823744652E+02 -0.10578009738E+03  0.16434865109E+03  0.12508913054E+03 0.  0.
          5    1    3    3  502    0  0.57534666684E+02  0.32122381623E+02 -0.70074757733E+02  0.96280991597E+02  0.41800000000E+01 0.  1.
         -5    1    3    3    0  502 -0.54483256148E+02 -0.19298636971E+02 -0.35705339650E+02  0.68067659494E+02  0.41800000000E+01 0.  1.
        -11    1    1    2    0    0 -0.54451277578E+02  0.34835039898E+02 -0.46323810806E+02  0.79525575019E+02  0.00000000000E+00 0.  1.
         11    1    1    2    0    0  0.51399867042E+02 -0.47658784550E+02 -0.23523810888E+03  0.24545931220E+03  0.00000000000E+00 0. -1.
</event>
<event>
 7    1  0.2690635E-009  0.9073657E+02  0.7561462E-02  0.1301078E+00
         -4   -1    0    0    0  501 -0.00000000000E+00  0.00000000000E+00  0.25504233970E+03  0.25504233970E+03  0.00000000000E+00 0. -1.
          4   -1    0    0  501    0  0.00000000000E+00 -0.00000000000E+00 -0.46900685567E+02  0.46900685567E+02  0.00000000000E+00 0.  1.
         25    2    1    2    0    0  0.15267077445E+02 -0.67296368820E+01  0.12802832826E+03  0.17976945767E+03  0.12508970145E+03 0.  0.
          5    1    3    3  502    0  0.55380281968E+02 -0.37572815709E+02  0.39801449840E+02  0.77976406179E+02  0.41800000000E+01 0.  1.
         -5    1    3    3    0  502 -0.40113204523E+02  0.30843178827E+02  0.88226878417E+02  0.10179305149E+03  0.41800000000E+01 0.  1.
        -11    1    1    2    0    0  0.18318356488E+02  0.20372040701E+02 -0.66064089800E+01  0.28182030913E+02  0.00000000000E+00 0.  1.
         11    1    1    2    0    0 -0.33585433933E+02 -0.13642403819E+02  0.86719734856E+02  0.93991536683E+02  0.00000000000E+00 0. -1.
</event>
<event>
 7    1  0.2690635E-009  0.9558018E+02  0.7561462E-02  0.1289875E+00
          2   -1    0    0  501    0  0.00000000000E+00  0.00000000000E+00  0.52551265337E+03  0.52551265337E+03  0.00000000000E+00 0. -1.
         -2   -1    0    0    0  501 -0.00000000000E+00 -0.00000000000E+00 -0.33642385928E+02  0.33642385928E+02  0.00000000000E+00 0.  1.
         25    2    1    2    0    0  0.29790943927E+02  0.64853432657E+02  0.33323832303E+03  0.36302754778E+03  0.12509097668E+03 0.  0.
          5    1    3    3  502    0  0.28093797366E+02  0.32477071216E+02  0.19084296472E+02  0.47177371451E+02  0.41800000000E+01 0. -1.
         -5    1    3    3    0  502  0.16971465614E+01  0.32376361441E+02  0.31415402656E+03  0.31585017633E+03  0.41800000000E+01 0. -1.
        -11    1    1    2    0    0 -0.53234558987E+02 -0.73139207901E+02  0.12349235457E+03  0.15308044826E+03  0.00000000000E+00 0.  1.
         11    1    1    2    0    0  0.23443615060E+02  0.82857752437E+01  0.35139589841E+02  0.43047043251E+02  0.00000000000E+00 0. -1.
</event>
<event>
 7    1  0.2690635E-009  0.1009930E+03  0.7561462E-02  0.1278221E+00
         -4   -1    0    0    0  501 -0.00000000000E+00  0.00000000000E+00  0.11229353716E+03  0.11229353716E+03  0.00000000000E+00 0.  1.
          4   -1    0    0  501    0  0.00000000000E+00 -0.00000000000E+00 -0.10939092971E+03  0.10939092971E+03  0.00000000000E+00 0. -1.
         25    2    1    2    0    0  0.19927583527E+02  0.11221032919E+02  0.40866116153E+01  0.12722822053E+03  0.12508916636E+03 0.  0.
          5    1    3    3  502    0  0.48879535907E+02 -0.29879917756E+02 -0.31481496673E+02  0.65502485055E+02  0.41800000000E+01 0.  1.
         -5    1    3    3    0  502 -0.28951952380E+02  0.41100950675E+02  0.35568108289E+02  0.61725735478E+02  0.41800000000E+01 0.  1.
        -11    1    1    2    0    0  0.27188900177E+02  0.23203970089E+02  0.35026840484E+01  0.35915585980E+02  0.00000000000E+00 0.  1.
         11    1    1    2    0    0 -0.47116483704E+02 -0.34425003008E+02 -0.46866882192E+01  0.58540660359E+02  0.00000000000E+00 0. -1.
</event>
<event>
 7    1  0.2690635E-009  0.1924223E+03  0.7561462E-02  0.1156295E+00
          2   -1    0    0  501    0  0.00000000000E+00  0.00000000000E+00  0.12753732052E+03  0.12753732052E+03  0.00000000000E+00 0. -1.
         -2   -1    0    0    0  501 -0.00000000000E+00 -0.00000000000E+00 -0.32284402172E+03  0.32284402172E+03  0.00000000000E+00 0.  1.
         25    2    1    2    0    0 -0.16791618570E+03 -0.25023724856E+02 -0.12666159754E+03  0.24600313138E+03  0.12510934470E+03 0.  0.
          5    1    3    3  502    0 -0.60536890467E+02  0.38930465105E+02 -0.90739940554E+02  0.11589437188E+03  0.41800000000E+01 0. -1.
         -5    1    3    3    0  502 -0.10737929524E+03 -0.63954189960E+02 -0.35921656983E+02  0.13010875950E+03  0.41800000000E+01 0. -1.
        -11    1    1    2    0    0  0.49939904784E+02  0.45969344937E+02 -0.47146498152E+02  0.82643614706E+02  0.00000000000E+00 0.  1.
         11    1    1    2    0    0  0.11797628092E+03 -0.20945620081E+02 -0.21498605510E+02  0.12173459615E+03  0.00000000000E+00 0. -1.
</event>
<event>
 7    1  0.2690635E-009  0.9421553E+02  0.7561462E-02  0.1292953E+00
          1   -1    0    0  501    0  0.00000000000E+00  0.00000000000E+00  0.12395778560E+04  0.12395778560E+04  0.00000000000E+00 0. -1.
         -1   -1    0    0    0  501 -0.00000000000E+00 -0.00000000000E+00 -0.20491592433E+02  0.20491592433E+02  0.00000000000E+00 0.  1.
         25    2    1    2    0    0  0.88091823452E+01  0.23888456804E+02  0.10994428267E+04  0.11068293349E+04  0.12509351485E+03 0.  0.
          5    1    3    3  502    0  0.48825906152E+02 -0.41189707942E+01  0.19662463639E+03  0.20268116604E+03  0.41800000000E+01 0. -1.
         -5    1    3    3    0  502 -0.40016723807E+02  0.28007427598E+02  0.90281819027E+03  0.90414816887E+03  0.41800000000E+01 0. -1.
        -11    1    1    2    0    0 -0.70459886475E+01 -0.56818555825E+02  0.98913231959E+02  0.11428832704E+03  0.00000000000E+00 0.  1.
         11    1    1    2    0    0 -0.17631936976E+01  0.32930099021E+02  0.20730204967E+02  0.38951786500E+02  0.00000000000E+00 0. -1.
</event>
<event>
 7    1  0.2690635E-009  0.1069427E+03  0.7561462E-02  0.1266339E+00
          2   -1    0    0  501    0  0.00000000000E+00  0.00000000000E+00  0.11805032450E+04  0.11805032450E+04  0.00000000000E+00 0. -1.
         -2   -1    0    0    0  501 -0.00000000000E+00 -0.00000000000E+00 -0.99446581670E+01  0.99446581670E+01  0.00000000000E+00 0.  1.
         25    2    1    2    0    0  0.30954687890E+02  0.23345388489E+02  0.77635583156E+03  0.78732376961E+03  0.12508853316E+03 0.  0.
          5    1    3    3  502    0 -0.48553503183E+02  0.11496138721E+02  0.26860126015E+03  0.27322831704E+03  0.41800000000E+01 0. -1.
         -5    1    3    3    0  502  0.79508191073E+02  0.11849249769E+02  0.50775457141E+03  0.51409545257E+03  0.41800000000E+01 0. -1.
        -11    1    1    2    0    0 -0.17673969201E+02 -0.50276281696E+02  0.22076884815E+03  0.22711001299E+03  0.00000000000E+00 0.  1.
         11    1    1    2    0    0 -0.13280718689E+02  0.26930893207E+02  0.17343390713E+03  0.17601412057E+03  0.00000000000E+00 0. -1.
</event>
<event>
 7    1  0.2690635E-009  0.3200575E+03  0.7561462E-02  0.1075623E+00
          1   -1    0    0  501    0  0.00000000000E+00  0.00000000000E+00  0.17126017897E+04  0.17126017897E+04  0.00000000000E+00 0. -1.
         -1   -1    0    0    0  501 -0.00000000000E+00 -0.00000000000E+00 -0.66698359413E+02  0.66698359413E+02  0.00000000000E+00 0.  1.
         25    2    1    2    0    0  0.21891032523E+03  0.21717674169E+03  0.10597031242E+04  0.11107228823E+04  0.12508853679E+03 0.  0.
          5    1    3    3  502    0  0.19501010153E+03  0.11714320943E+03  0.66633893354E+03  0.70411399501E+03  0.41800000000E+01 0. -1.
         -5    1    3    3    0  502  0.23900223692E+02  0.10003353226E+03  0.39336419070E+03  0.40660888725E+03  0.41800000000E+01 0. -1.
        -11    1    1    2    0    0 -0.51817189809E+02 -0.69237411543E+02  0.91685597987E+02  0.12603606307E+03  0.00000000000E+00 0.  1.
         11    1    1    2    0    0 -0.16709313542E+03 -0.14793933015E+03  0.49451470806E+03  0.54254120378E+03  0.00000000000E+00 0. -1.
</event>
<event>
 7    1  0.2690635E-009  0.8824604E+02  0.7561462E-02  0.1307156E+00
          2   -1    0    0  501    0  0.00000000000E+00  0.00000000000E+00  0.20856814283E+03  0.20856814283E+03  0.00000000000E+00 0. -1.
         -2   -1    0    0    0  501 -0.00000000000E+00 -0.00000000000E+00 -0.58928662998E+02  0.58928662998E+02  0.00000000000E+00 0.  1.
         25    2    1    2    0    0 -0.98368750597E+01  0.21237433126E+02  0.11516637342E+03  0.17163622289E+03  0.12509159350E+03 0.  0.
          5    1    3    3  502    0  0.68807141266E+01 -0.32439518681E+02  0.11006806069E+03  0.11503093925E+03  0.41800000000E+01 0. -1.
         -5    1    3    3    0  502 -0.16717589186E+02  0.53676951807E+02  0.50983127221E+01  0.56605283641E+02  0.41800000000E+01 0. -1.
        -11    1    1    2    0    0  0.43703786362E+02 -0.28341859169E+02  0.32077038453E+02  0.61173673417E+02  0.00000000000E+00 0.  1.
         11    1    1    2    0    0 -0.33866911302E+02  0.71044260430E+01  0.23960679639E+01  0.34686909522E+02  0.00000000000E+00 0. -1.
</event>
<event>
 7    1  0.2690635E-009  0.1077124E+03  0.7561462E-02  0.1264866E+00
         -1   -1    0    0    0  501 -0.00000000000E+00  0.00000000000E+00  0.64990867998E+02  0.64990867998E+02  0.00000000000E+00 0.  1.
          1   -1    0    0  501    0  0.00000000000E+00 -0.00000000000E+00 -0.45793826872E+03  0.45793826872E+03  0.00000000000E+00 0. -1.
         25    2    1    2    0    0  0.48293688764E+01 -0.25901226071E+02 -0.40799352106E+03  0.42754852125E+03  0.12507928876E+03 0.  0.
          5    1    3    3  502    0  0.20563184855E+02  0.44476800243E+02 -0.10329547591E+03  0.11440479917E+03  0.41800000000E+01 0.  1.
         -5    1    3    3    0  502 -0.15733815978E+02 -0.70378026314E+02 -0.30469804516E+03  0.31314372208E+03  0.41800000000E+01 0.  1.
        -11    1    1    2    0    0 -0.21887729163E+01 -0.33990200799E+02  0.26557827680E+01  0.34163981901E+02  0.00000000000E+00 0. -1.
         11    1    1    2    0    0 -0.26405959601E+01  0.59891426870E+02  0.12390337577E+02  0.61216633563E+02  0.00000000000E+00 0.  1.
</event>
<event>
 7    1  0.2690635E-009  0.1114953E+03  0.7561462E-02  0.1257826E+00
         -2   -1    0    0    0  501 -0.00000000000E+00  0.00000000000E+00  0.46770476677E+03  0.46770476677E+03  0.00000000000E+00 0.  1.
          2   -1    0    0  501    0  0.00000000000E+00 -0.00000000000E+00 -0.32899065855E+02  0.32899065855E+02  0.00000000000E+00 0. -1.
         25    2    1    2    0    0 -0.52962054970E+02  0.22642519518E+02  0.26167564392E+03  0.29570269243E+03  0.12509307229E+03 0.  0.
          5    1    3    3  502    0  0.33579095765E+02  0.36382772967E+02  0.85316232514E+02  0.98729903127E+02  0.41800000000E+01 0. -1.
         -5    1    3    3    0  502 -0.86541150735E+02 -0.13740253448E+02  0.17635941141E+03  0.19697278931E+03  0.41800000000E+01 0. -1.
        -11    1    1    2    0    0  0.40077441849E+02  0.17269001560E+02  0.15160359363E+03  0.15775953017E+03  0.00000000000E+00 0.  1.
         11    1    1    2    0    0  0.12884613122E+02 -0.39911521078E+02  0.21526463368E+02  0.47141610019E+02  0.00000000000E+00 0. -1.
</event>
<event>
 7    1  0.2690635E-009  0.1162182E+03  0.7561462E-02  0.1249470E+00
         -1   -1    0    0    0  501 -0.00000000000E+00  0.00000000000E+00  0.14815422440E+03  0.14815422440E+03  0.00000000000E+00 0.  1.
          1   -1    0    0  501    0  0.00000000000E+00 -0.00000000000E+00 -0.10219206216E+03  0.10219206216E+03  0.00000000000E+00 0. -1.
         25    2    1    2    0    0  0.49592082318E+02  0.30948483598E+02  0.24671953909E+02  0.14027148489E+03  0.12510076298E+03 0.  0.
          5    1    3    3  502    0 -0.29074915258E+01 -0.37630467176E+02 -0.20029500977E+02  0.42932026231E+02  0.41800000000E+01 0. -1.
         -5    1    3    3    0  502  0.52499573844E+02  0.68578950774E+02  0.44701454887E+02  0.97339458659E+02  0.41800000000E+01 0. -1.
        -11    1    1    2    0    0  0.13191077447E+02 -0.42198045754E+02  0.84370590658E+01  0.45009594036E+02  0.00000000000E+00 0.  1.
         11    1    1    2    0    0 -0.62783159765E+02  0.11249562156E+02  0.12853149264E+02  0.65065207637E+02  0.00000000000E+00 0. -1.
</event>
<event>
 7    1  0.2690635E-009  0.1563905E+03  0.7561462E-02  0.1192833E+00
         -2   -1    0    0    0  501 -0.00000000000E+00  0.00000000000E+00  0.22040775520E+02  0.22040775520E+02  0.00000000000E+00 0.  1.
          2   -1    0    0  501    0  0.00000000000E+00 -0.00000000000E+00 -0.14077861234E+04  0.14077861234E+04  0.00000000000E+00 0. -1.
         25    2    1    2    0    0 -0.51568473883E+02 -0.12580070060E+03 -0.80634715481E+03  0.82724222766E+03  0.12509534518E+03 0.  0.
          5    1    3    3  502    0 -0.13974099757E+02  0.39209796871E+01 -0.37325026225E+03  0.37355572572E+03  0.41800000000E+01 0. -1.
         -5    1    3    3    0  502 -0.37594374126E+02 -0.12972168029E+03 -0.43309689256E+03  0.45368650194E+03  0.41800000000E+01 0. -1.
        -11    1    1    2    0    0  0.23986486735E+01  0.11124969393E+03 -0.33962554900E+03  0.35739020895E+03  0.00000000000E+00 0.  1.
         11    1    1    2    0    0  0.49169825210E+02  0.14551006667E+02 -0.23977264411E+03  0.24519446235E+03  0.00000000000E+00 0. -1.
</event>
<event>
 7    1  0.2690635E-009  0.9196751E+02  0.7561462E-02  0.1298156E+00
          3   -1    0    0  501    0  0.00000000000E+00  0.00000000000E+00  0.12969617770E+03  0.12969617770E+03  0.00000000000E+00 0. -1.
         -3   -1    0    0    0  501 -0.00000000000E+00 -0.00000000000E+00 -0.17801265050E+03  0.17801265050E+03  0.00000000000E+00 0.  1.
         25    2    1    2    0    0  0.58285725599E+02  0.36045911258E+01  0.24107795040E+02  0.14013907243E+03  0.12509018728E+03 0.  0.
          5    1    3    3  502    0  0.24194097727E+02  0.35164080991E+02 -0.41474161716E+02  0.59661088214E+02  0.41800000000E+01 0.  1.
         -5    1    3    3    0  502  0.34091627872E+02 -0.31559489865E+02  0.65581956756E+02  0.80477984216E+02  0.41800000000E+01 0.  1.
        -11    1    1    2    0    0  0.10836783400E+01 -0.29579982799E+02  0.32680825046E+02  0.44092925360E+02  0.00000000000E+00 0. -1.
         11    1    1    2    0    0 -0.59369403939E+02  0.25975391673E+02 -0.10510509289E+03  0.12347683041E+03  0.00000000000E+00 0.  1.
</event>
<event>
 7    1  0.2690635E-009  0.8735710E+02  0.7561462E-02  0.1309381E+00
         -2   -1    0    0    0  501 -0.00000000000E+00  0.00000000000E+00  0.21950661780E+02  0.21950661780E+02  0.00000000000E+00 0.  1.
          2   -1    0    0  501    0  0.00000000000E+00 -0.00000000000E+00 -0.99944355416E+03  0.99944355416E+03  0.00000000000E+00 0. -1.
         25    2    1    2    0    0 -0.43183690383E+02  0.17060080848E+02 -0.83562763764E+03  0.84621371946E+03  0.12509289642E+03 0.  0.
          5    1    3    3  502    0 -0.21733794766E+02  0.53159079691E+02 -0.17479954538E+03  0.18403966706E+03  0.41800000000E+01 0. -1.
         -5    1    3    3    0  502 -0.21449895618E+02 -0.36098998843E+02 -0.66082809227E+03  0.66217405240E+03  0.41800000000E+01 0. -1.
        -11    1    1    2    0    0  0.45537599441E+02 -0.34628265795E+02 -0.35455153931E+02  0.67304217513E+02  0.00000000000E+00 0.  1.
         11    1    1    2    0    0 -0.23539090575E+01  0.17568184947E+02 -0.10641010080E+03  0.10787627896E+03  0.00000000000E+00 0. -1.
</event>
<event>
 7    1  0.2690635E-009  0.1925489E+03  0.7561462E-02  0.1156182E+00
         -4   -1    0    0    0  501 -0.00000000000E+00  0.00000000000E+00  0.98092752915E+03  0.98092752915E+03  0.00000000000E+00 0.  1.
          4   -1    0    0  501    0  0.00000000000E+00 -0.00000000000E+00 -0.47365275316E+02  0.47365275316E+02  0.00000000000E+00 0. -1.
         25    2    1    2    0    0 -0.15539780032E+03 -0.99152564499E+02  0.42728134557E+03  0.48186902435E+03  0.12509476797E+03 0.  0.
          5    1    3    3  502    0 -0.23796663211E+02 -0.45195785387E+02  0.24667431609E+03  0.25194172107E+03  0.41800000000E+01 0.  1.
         -5    1    3    3    0  502 -0.13160113711E+03 -0.53956779112E+02  0.18060702947E+03  0.22992730328E+03  0.41800000000E+01 0.  1.
        -11    1    1    2    0    0  0.91866896626E+02  0.27719823873E+02  0.35270248727E+03  0.36552285819E+03  0.00000000000E+00 0.  1.
         11    1    1    2    0    0  0.63530903691E+02  0.71432740626E+02  0.15357842100E+03  0.18090092193E+03  0.00000000000E+00 0. -1.
</event>
<event>
 7    1  0.2690635E-009  0.8197344E+02  0.7561462E-02  0.1323543E+00
         -2   -1    0    0    0  501 -0.00000000000E+00  0.00000000000E+00  0.24903410699E+03  0.24903410699E+03  0.00000000000E+00 0.  1.
          2   -1    0    0  501    0  0.00000000000E+00 -0.00000000000E+00 -0.73635027426E+02  0.73635027426E+02  0.00000000000E+00 0. -1.
         25    2    1    2    0    0 -0.47715829704E+02  0.11614517328E+02  0.26350797279E+02  0.13695428895E+03  0.12510162000E+03 0.  0.
          5    1    3    3  502    0 -0.35313768612E+01 -0.13275783652E+02  0.69050302653E+02  0.70527538952E+02  0.41800000000E+01 0. -1.
         -5    1    3    3    0  502 -0.44184452843E+02  0.24890300980E+02 -0.42699505374E+02  0.66426749996E+02  0.41800000000E+01 0. -1.
        -11    1    1    2    0    0  0.47110692190E+02 -0.45096163708E+02  0.53127375596E+02  0.84116581823E+02  0.00000000000E+00 0.  1.
         11    1    1    2    0    0  0.60513751424E+00  0.33481646380E+02  0.95920906691E+02  0.10159826365E+03  0.00000000000E+00 0. -1.
</event>
<event>
 7    1  0.2690635E-009  0.1208656E+03  0.7561462E-02  0.1241676E+00
         -1   -1    0    0    0  501 -0.00000000000E+00  0.00000000000E+00  0.64606518058E+02  0.64606518058E+02  0.00000000000E+00 0.  1.
          1   -1    0    0  501    0  0.00000000000E+00 -0.00000000000E+00 -0.25028956751E+03  0.25028956751E+03  0.00000000000E+00 0. -1.
         25    2    1    2    0    0  0.46371250674E+02 -0.35547660803E+02 -0.68264380107E+02  0.15401775669E+03  0.12509002641E+03 0.  0.
          5    1    3    3  502    0 -0.27849925160E+02 -0.52116602380E+02 -0.15094282368E+02  0.61131565784E+02  0.41800000000E+01 0. -1.
         -5    1    3    3    0  502  0.74221175834E+02  0.16568941578E+02 -0.53170097740E+02  0.92886190905E+02  0.41800000000E+01 0. -1.
        -11    1    1    2    0    0 -0.72885107603E+02  0.19942623750E+02 -0.63071614720E+02  0.98427515135E+02  0.00000000000E+00 0. -1.
         11    1    1    2    0    0  0.26513856929E+02  0.15605037053E+02 -0.54347054623E+02  0.62450813741E+02  0.00000000000E+00 0.  1.
</event>
<event>
 7    1  0.2690635E-009  0.2617613E+03  0.7561462E-02  0.1106090E+00
          2   -1    0    0  501    0  0.00000000000E+00  0.00000000000E+00  0.12958436441E+04  0.12958436441E+04  0.00000000000E+00 0.  1.
         -2   -1    0    0    0  501 -0.00000000000E+00 -0.00000000000E+00 -0.69881698900E+02  0.69881698900E+02  0.00000000000E+00 0. -1.
         25    2    1    2    0    0 -0.14617881814E+03  0.19457424596E+03  0.30960416731E+03  0.41319434878E+03  0.12508974930E+03 0.  0.
          5    1    3    3  502    0  0.77705384812E+00  0.97201354208E+02  0.11052319922E+03  0.14724658583E+03  0.41800000000E+01 0.  1.
         -5    1    3    3    0  502 -0.14695587198E+03  0.97372891757E+02  0.19908096809E+03  0.26594776295E+03  0.41800000000E+01 0.  1.
        -11    1    1    2    0    0  0.94552571831E+02 -0.16559252782E+03  0.56735814901E+03  0.59854518907E+03  0.00000000000E+00 0. -1.
         11    1    1    2    0    0  0.51626246305E+02 -0.28981718145E+02  0.34899962888E+03  0.35398580515E+03  0.00000000000E+00 0.  1.
</event>
<event>
 7    1  0.2690635E-009  0.1172674E+03  0.7561462E-02  0.1247674E+00
         -1   -1    0    0    0  501 -0.00000000000E+00  0.00000000000E+00  0.28236084421E+02  0.28236084421E+02  0.00000000000E+00 0.  1.
          1   -1    0    0  501    0  0.00000000000E+00 -0.00000000000E+00 -0.55158205676E+03  0.55158205676E+03  0.00000000000E+00 0. -1.
         25    2    1    2    0    0  0.12365578821E+02 -0.52732678055E+02 -0.36427375679E+03  0.38894412628E+03  0.12509404705E+03 0.  0.
          5    1    3    3  502    0 -0.44683981938E+02 -0.59639426690E+02 -0.15746538274E+03  0.17425940037E+03  0.41800000000E+01 0.  1.
         -5    1    3    3    0  502  0.57049560759E+02  0.69067486351E+01 -0.20680837405E+03  0.21468472591E+03  0.41800000000E+01 0.  1.
        -11    1    1    2    0    0 -0.43806073397E+02  0.36092629743E+01 -0.92199711258E+02  0.10214100842E+03  0.00000000000E+00 0.  1.
         11    1    1    2    0    0  0.31440494576E+02  0.49123415080E+02 -0.66872504286E+02  0.88733006473E+02  0.00000000000E+00 0. -1.
</event>
<event>
 7    1  0.2690635E-009  0.1135990E+03  0.7561462E-02  0.1254047E+00
          2   -1    0    0  501    0  0.00000000000E+00  0.00000000000E+00  0.11143914605E+04  0.11143914605E+04  0.00000000000E+00 0.  1.
         -2   -1    0    0    0  501 -0.00000000000E+00 -0.00000000000E+00 -0.18260021152E+02  0.18260021152E+02  0.00000000000E+00 0. -1.
         25    2    1    2    0    0 -0.68273833675E+02 -0.64512722322E+02  0.62190217472E+03  0.64127515935E+03  0.12509319474E+03 0.  0.
          5    1    3    3  502    0 -0.52026083293E+02 -0.12091748375E+02  0.78190753635E+02  0.94784967561E+02  0.41800000000E+01 0.  1.
         -5    1    3    3    0  502 -0.16247750382E+02 -0.52420973947E+02  0.54371142108E+03  0.54649019179E+03  0.41800000000E+01 0.  1.
        -11    1    1    2    0    0  0.54129501275E+01 -0.15737644917E+02  0.20847206470E+02  0.26675447779E+02  0.00000000000E+00 0. -1.
         11    1    1    2    0    0  0.62860883547E+02  0.80250367239E+02  0.45338205813E+03  0.46470087450E+03  0.00000000000E+00 0.  1.
</event>
<event>
 7    1  0.2690635E-009  0.1364881E+03  0.7561462E-02  0.1218134E+00
          2   -1    0    0  501    0  0.00000000000E+00  0.00000000000E+00  0.50689802205E+03  0.50689802205E+03  0.00000000000E+00 0. -1.
         -2   -1    0    0    0  501 -0.00000000000E+00 -0.00000000000E+00 -0.44978364208E+02  0.44978364208E+02  0.00000000000E+00 0.  1.
         25    2    1    2    0    0 -0.14700216195E+02 -0.97566605970E+02  0.18403342345E+03  0.24341501545E+03  0.12508888778E+03 0.  0.
          5    1    3    3  502    0 -0.59068710366E+02 -0.47566160998E+02  0.42991790730E+02  0.87277824713E+02  0.41800000000E+01 0. -1.
         -5    1    3    3    0  502  0.44368494171E+02 -0.50000444972E+02  0.14104163272E+03  0.15613719074E+03  0.41800000000E+01 0. -1.
        -11    1    1    2    0    0 -0.12710842175E+02 -0.11769747189E+02  0.68565006319E+02  0.70719534425E+02  0.00000000000E+00 0. -1.
         11    1    1    2    0    0  0.27411058370E+02  0.10933635316E+03  0.20932122808E+03  0.23774183638E+03  0.00000000000E+00 0.  1.
</event>
<event>
 7    1  0.2690635E-009  0.1439415E+03  0.7561462E-02  0.1208122E+00
         -2   -1    0    0    0  501 -0.00000000000E+00  0.00000000000E+00  0.88649353339E+02  0.88649353339E+02  0.00000000000E+00 0.  1.
          2   -1    0    0  501    0  0.00000000000E+00 -0.00000000000E+00 -0.76525479505E+03  0.76525479505E+03  0.00000000000E+00 0. -1.
         25    2    1    2    0    0  0.42089986437E+01  0.10796072945E+03 -0.69223262977E+03  0.71169354305E+03  0.12509376775E+03 0.  0.
          5    1    3    3  502    0 -0.25249301886E+02  0.11996478383E+03 -0.62830106918E+03  0.64016309057E+03  0.41800000000E+01 0. -1.
         -5    1    3    3    0  502  0.29458300530E+02 -0.12004054381E+02 -0.63931560591E+02  0.71530452475E+02  0.41800000000E+01 0. -1.
        -11    1    1    2    0    0  0.27257425230E+02 -0.95461968923E+02 -0.99545773499E+01  0.99774988604E+02  0.00000000000E+00 0.  1.
         11    1    1    2    0    0 -0.31466423873E+02 -0.12498760523E+02  0.25581765410E+02  0.42435616733E+02  0.00000000000E+00 0. -1.
</event>
<event>
 7    1  0.2690635E-009  0.1179701E+03  0.7561462E-02  0.1246484E+00
          2   -1    0    0  501    0  0.00000000000E+00  0.00000000000E+00  0.72125675939E+03  0.72125675939E+03  0.00000000000E+00 0. -1.
         -2   -1    0    0    0  501 -0.00000000000E+00 -0.00000000000E+00 -0.48798357563E+02  0.48798357563E+02  0.00000000000E+00 0.  1.
         25    2    1    2    0    0  0.76810555128E+02 -0.11142307683E+01  0.62156957708E+03  0.63866899042E+03  0.12509291463E+03 0.  0.
          5    1    3    3  502    0 -0.33922971296E+02 -0.99312700619E+01  0.14435538928E+03  0.14867867675E+03  0.41800000000E+01 0.  1.
         -5    1    3    3    0  502  0.11073352642E+03  0.88170392936E+01  0.47721418780E+03  0.48999031367E+03  0.41800000000E+01 0.  1.
        -11    1    1    2    0    0 -0.64528669379E+02 -0.17521818114E+02 -0.90049544983E+01  0.67468900150E+02  0.00000000000E+00 0.  1.
         11    1    1    2    0    0 -0.12281885749E+02  0.18636048882E+02  0.59893779243E+02  0.63917226375E+02  0.00000000000E+00 0. -1.
</event>
<event>
 7    1  0.2690635E-009  0.9824328E+02  0.7561462E-02  0.1284034E+00
          1   -1    0    0  501    0  0.00000000000E+00  0.00000000000E+00  0.35367904882E+03  0.35367904882E+03  0.00000000000E+00 0. -1.
         -1   -1    0    0    0  501 -0.00000000000E+00 -0.00000000000E+00 -0.38408271643E+02  0.38408271643E+02  0.00000000000E+00 0.  1.
         25    2    1    2    0    0 -0.22939457035E+01 -0.36546557935E+02  0.21360807829E+03  0.25023569151E+03  0.12509427290E+03 0.  0.
          5    1    3    3  502    0 -0.42534187363E+02  0.20491177324E+02  0.36502102850E+02  0.59824086748E+02  0.41800000000E+01 0.  1.
         -5    1    3    3    0  502  0.40240241660E+02 -0.57037735259E+02  0.17710597544E+03  0.19041160476E+03  0.41800000000E+01 0.  1.
        -11    1    1    2    0    0 -0.19510092852E+02  0.49909338219E+02  0.21552960618E+02  0.57759119418E+02  0.00000000000E+00 0.  1.
         11    1    1    2    0    0  0.21804038555E+02 -0.13362780284E+02  0.80109738274E+02  0.84092509539E+02  0.00000000000E+00 0. -1.
</event>
<event>
 7    1  0.2690635E-009  0.1602715E+03  0.7561462E-02  0.1188391E+00
          1   -1    0    0  501    0  0.00000000000E+00  0.00000000000E+00  0.49415612072E+03  0.49415612072E+03  0.00000000000E+00 0. -1.
         -1   -1    0    0    0  501 -0.00000000000E+00 -0.00000000000E+00 -0.60335823328E+02  0.60335823328E+02  0.00000000000E+00 0.  1.
         25    2    1    2    0    0 -0.53405969405E+02  0.11440015062E+03  0.15962661363E+03  0.23888709530E+03  0.12508715558E+03 0.  0.
          5    1    3    3  502    0  0.37749530733E+02  0.55544673083E+02  0.44732921118E+02  0.80800646100E+02  0.41800000000E+01 0.  1.
         -5    1    3    3    0  502 -0.91155500138E+02  0.58855477539E+02  0.11489369252E+03  0.15808644920E+03  0.41800000000E+01 0.  1.
        -11    1    1    2    0    0  0.70946360721E+02 -0.89417225419E+02  0.25542946419E+03  0.27977318935E+03  0.00000000000E+00 0. -1.
         11    1    1    2    0    0 -0.17540391316E+02 -0.24982925203E+02  0.18764219567E+02  0.35831659397E+02  0.00000000000E+00 0.  1.
</event>
<event>
 7    1  0.2690635E-009  0.1720111E+03  0.7561462E-02  0.1175767E+00
         -1   -1    0    0    0  501 -0.00000000000E+00  0.00000000000E+00  0.19450760379E+03  0.19450760379E+03  0.00000000000E+00 0.  1.
          1   -1    0    0  501    0  0.00000000000E+00 -0.00000000000E+00 -0.28981427053E+03  0.28981427053E+03  0.00000000000E+00 0. -1.
         25    2    1    2    0    0  0.10703396237E+03  0.12652533804E+03 -0.18161777469E+03  0.27585248837E+03  0.12507857127E+03 0.  0.
          5    1    3    3  502    0  0.94298811016E+02  0.10290594439E+03 -0.61290947352E+02  0.15249902221E+03  0.41800000000E+01 0.  1.
         -5    1    3    3    0  502  0.12735151356E+02  0.23619393657E+02 -0.12032682734E+03  0.12335346616E+03  0.41800000000E+01 0.  1.
        -11    1    1    2    0    0 -0.54454085057E+02 -0.19250396516E+02  0.65283534093E+02  0.87165159146E+02  0.00000000000E+00 0.  1.
         11    1    1    2    0    0 -0.52579877315E+02 -0.10727494153E+03  0.21027573852E+02  0.12130422680E+03  0.00000000000E+00 0. -1.
</event>
<event>
 7    1  0.2690635E-009  0.1944754E+03  0.7561462E-02  0.1154486E+00
         -2   -1    0    0    0  501 -0.00000000000E+00  0.00000000000E+00  0.88198932819E+03  0.88198932819E+03  0.00000000000E+00 0.  1.
          2   -1    0    0  501    0  0.00000000000E+00 -0.00000000000E+00 -0.50102857176E+02  0.50102857176E+02  0.00000000000E+00 0. -1.
         25    2    1    2    0    0 -0.52066164177E+02 -0.16621529860E+03  0.52961637435E+03  0.57138411041E+03  0.12509151332E+03 0.  0.
          5    1    3    3  502    0  0.38245304077E+02 -0.59101620410E+02  0.12996163926E+03  0.14786211448E+03  0.41800000000E+01 0. -1.
         -5    1    3    3    0  502 -0.90311468255E+02 -0.10711367819E+03  0.39965473510E+03  0.42352199593E+03  0.41800000000E+01 0. -1.
        -11    1    1    2    0    0  0.30208204311E+02  0.39770739412E+02  0.26482925126E+02  0.56529573183E+02  0.00000000000E+00 0. -1.
         11    1    1    2    0    0  0.21857959867E+02  0.12644455919E+03  0.27578717154E+03  0.30417850178E+03  0.00000000000E+00 0.  1.
</event>
<event>
 7    1  0.2690635E-009  0.1472535E+03  0.7561462E-02  0.1203889E+00
          2   -1    0    0  501    0  0.00000000000E+00  0.00000000000E+00  0.67447827079E+03  0.67447827079E+03  0.00000000000E+00 0. -1.
         -2   -1    0    0    0  501 -0.00000000000E+00 -0.00000000000E+00 -0.34083780539E+02  0.34083780539E+02  0.00000000000E+00 0.  1.
         25    2    1    2    0    0  0.43226903572E+02  0.97178788805E+02  0.35275046523E+03  0.38909111450E+03  0.12508685973E+03 0.  0.
          5    1    3    3  502    0 -0.26022263576E+02 -0.15974278144E+02  0.53820800783E+02  0.62020051280E+02  0.41800000000E+01 0. -1.
         -5    1    3    3    0  502  0.69249167148E+02  0.11315306695E+03  0.29892966444E+03  0.32707106322E+03  0.41800000000E+01 0. -1.
        -11    1    1    2    0    0 -0.64862903623E+02 -0.62426280409E+02  0.14156650584E+03  0.16776564704E+03  0.00000000000E+00 0.  1.
         11    1    1    2    0    0  0.21636000051E+02 -0.34752508396E+02  0.14607751918E+03  0.15170528979E+03  0.00000000000E+00 0. -1.
</event>
<event>
 7    1  0.2690635E-009  0.7634391E+02  0.7561462E-02  0.1339759E+00
          1   -1    0    0  501    0  0.00000000000E+00  0.00000000000E+00  0.19252125425E+03  0.19252125425E+03  0.00000000000E+00 0. -1.
         -1   -1    0    0    0  501 -0.00000000000E+00 -0.00000000000E+00 -0.70240369045E+02  0.70240369045E+02  0.00000000000E+00 0.  1.
         25    2    1    2    0    0  0.38214558635E+02  0.17273677734E+02  0.79889929437E+02  0.15423681125E+03  0.12509140932E+03 0.  0.
          5    1    3    3  502    0  0.13643037684E+02 -0.26408172669E+02 -0.24250313797E+02  0.38588523944E+02  0.41800000000E+01 0.  1.
         -5    1    3    3    0  502  0.24571520951E+02  0.43681850402E+02  0.10414024323E+03  0.11564828731E+03  0.41800000000E+01 0.  1.
        -11    1    1    2    0    0  0.15301213406E+02 -0.10219220576E+02 -0.19223333892E+02  0.26610076415E+02  0.00000000000E+00 0.  1.
         11    1    1    2    0    0 -0.53515772041E+02 -0.70544571579E+01  0.61614289662E+02  0.81914735631E+02  0.00000000000E+00 0. -1.
</event>
<event>
 7    1  0.2690635E-009  0.1035468E+03  0.7561462E-02  0.1273009E+00
         -1   -1    0    0    0  501 -0.00000000000E+00  0.00000000000E+00  0.14892578327E+02  0.14892578327E+02  0.00000000000E+00 0.  1.
          1   -1    0    0  501    0  0.00000000000E+00 -0.00000000000E+00 -0.15902063347E+04  0.15902063347E+04  0.00000000000E+00 0. -1.
         25    2    1    2    0    0 -0.78828889364E+02  0.32455961025E+02 -0.12388668369E+04  0.12480808324E+04  0.12508933401E+03 0.  0.
          5    1    3    3  502    0  0.17448558812E-01  0.11233860584E+02 -0.77972553598E+01  0.14299283871E+02  0.41800000000E+01 0. -1.
         -5    1    3    3    0  502 -0.78846337922E+02  0.21222100441E+02 -0.12310695816E+04  0.12337815486E+04  0.41800000000E+01 0. -1.
        -11    1    1    2    0    0  0.15619574745E+02  0.23974766550E+02 -0.43536755790E+02  0.52098077230E+02  0.00000000000E+00 0.  1.
         11    1    1    2    0    0  0.63209314619E+02 -0.56430727575E+02 -0.29291016366E+03  0.30492000336E+03  0.00000000000E+00 0. -1.
</event>
<event>
 7    1  0.2690635E-009  0.1086849E+03  0.7561462E-02  0.1263025E+00
         -2   -1    0    0    0  501 -0.00000000000E+00  0.00000000000E+00  0.23352588803E+02  0.23352588803E+02  0.00000000000E+00 0.  1.
          2   -1    0    0  501    0  0.00000000000E+00 -0.00000000000E+00 -0.59329291007E+03  0.59329291007E+03  0.00000000000E+00 0. -1.
         25    2    1    2    0    0 -0.44570103748E+01 -0.37390944933E+02 -0.25739888021E+03  0.28865003538E+03  0.12508681661E+03 0.  0.
          5    1    3    3  502    0  0.13163370059E+02  0.44576915423E+02 -0.94390197607E+02  0.10529652181E+03  0.41800000000E+01 0. -1.
         -5    1    3    3    0  502 -0.17620380434E+02 -0.81967860356E+02 -0.16300868260E+03  0.18335351358E+03  0.41800000000E+01 0. -1.
        -11    1    1    2    0    0 -0.34875059960E+02  0.31485055460E+02 -0.24621520194E+03  0.25065814208E+03  0.00000000000E+00 0. -1.
         11    1    1    2    0    0  0.39332070334E+02  0.59058894734E+01 -0.66326239123E+02  0.77337321414E+02  0.00000000000E+00 0.  1.
</event>
<event>
 7    1  0.2690635E-009  0.1325251E+03  0.7561462E-02  0.1223756E+00
          2   -1    0    0  501    0  0.00000000000E+00  0.00000000000E+00  0.20000320212E+03  0.20000320212E+03  0.00000000000E+00 0. -1.
         -2   -1    0    0    0  501 -0.00000000000E+00 -0.00000000000E+00 -0.97489614803E+02  0.97489614803E+02  0.00000000000E+00 0.  1.
         25    2    1    2    0    0  0.15126162066E+02 -0.81041432670E+02  0.84185824037E+02  0.17184762485E+03  0.12509132108E+03 0.  0.
          5    1    3    3  502    0 -0.33000024576E+02  0.13726429153E+02 -0.33516263386E+00  0.35986125289E+02  0.41800000000E+01 0.  1.
         -5    1    3    3    0  502  0.48126186642E+02 -0.94767861823E+02  0.84520986671E+02  0.13586149956E+03  0.41800000000E+01 0.  1.
        -11    1    1    2    0    0 -0.26856098224E+02 -0.11643514385E+02 -0.41250761971E+01  0.29560745808E+02  0.00000000000E+00 0. -1.
         11    1    1    2    0    0  0.11729936158E+02  0.92684947055E+02  0.22452839474E+02  0.96084446261E+02  0.00000000000E+00 0.  1.
</event>
<event>
 7    1  0.2690635E-009  0.1110226E+03  0.7561462E-02  0.1258688E+00
          1   -1    0    0  501    0  0.00000000000E+00  0.00000000000E+00  0.66232279292E+03  0.66232279292E+03  0.00000000000E+00 0. -1.
         -1   -1    0    0    0  501 -0.00000000000E+00 -0.00000000000E+00 -0.24672749324E+02  0.24672749324E+02  0.00000000000E+00 0.  1.
         25    2    1    2    0    0  0.64962661508E+01  0.67055884768E+02  0.35804547299E+03  0.38520448328E+03  0.12508892859E+03 0.  0.
          5    1    3    3  502    0 -0.52437698313E+02  0.61098097016E+02  0.17299329716E+03  0.19085817490E+03  0.41800000000E+01 0.  1.
         -5    1    3    3    0  502  0.58933964463E+02  0.59577877517E+01  0.18505217583E+03  0.19434630838E+03  0.41800000000E+01 0.  1.
        -11    1    1    2    0    0 -0.14759054974E+02 -0.28705784726E+00  0.58341830893E+00  0.14773370734E+02  0.00000000000E+00 0.  1.
         11    1    1    2    0    0  0.82627888230E+01 -0.66768826920E+02  0.27902115230E+03  0.28701768823E+03  0.00000000000E+00 0. -1.
</event>
<event>
 7    1  0.2690635E-009  0.1017396E+03  0.7561462E-02  0.1276680E+00
         -1   -1    0    0    0  501 -0.00000000000E+00  0.00000000000E+00  0.12385245938E+03  0.12385245938E+03  0.00000000000E+00 0.  1.
          1   -1    0    0  501    0  0.00000000000E+00 -0.00000000000E+00 -0.18245725080E+03  0.18245725080E+03  0.00000000000E+00 0. -1.
         25    2    1    2    0    0  0.80901680739E+00 -0.39766637481E+02  0.65628532453E+02  0.14675271918E+03  0.12508883383E+03 0.  0.
          5    1    3    3  502    0  0.34106405883E+02 -0.63001224470E+02  0.27844011625E+01  0.71816617135E+02  0.41800000000E+01 0. -1.
         -5    1    3    3    0  502 -0.33297389076E+02  0.23234586988E+02  0.62844131291E+02  0.74936102043E+02  0.41800000000E+01 0. -1.
        -11    1    1    2    0    0  0.32223227798E+02 -0.76428299872E+01 -0.15809509698E+02  0.36697273153E+02  0.00000000000E+00 0.  1.
         11    1    1    2    0    0 -0.33032244605E+02  0.47409467469E+02 -0.10842381417E+03  0.12285971785E+03  0.00000000000E+00 0. -1.
</event>
<event>
 7    1  0.2690635E-009  0.1060063E+03  0.7561462E-02  0.1268149E+00
          2   -1    0    0  501    0  0.00000000000E+00  0.00000000000E+00  0.77346681288E+03  0.77346681288E+03  0.00000000000E+00 0. -1.
         -2   -1    0    0    0  501 -0.00000000000E+00 -0.00000000000E+00 -0.20961776021E+02  0.20961776021E+02  0.00000000000E+00 0.  1.
         25    2    1    2    0    0 -0.33629886088E+02  0.23991185505E+02  0.58450583027E+03  0.59916745372E+03  0.12509206912E+03 0.  0.
          5    1    3    3  502    0 -0.42164785513E+02 -0.45091108940E+02  0.28804633111E+03  0.29461710491E+03  0.41800000000E+01 0.  1.
         -5    1    3    3    0  502  0.85348994250E+01  0.69082294445E+02  0.29645949916E+03  0.30455034881E+03  0.41800000000E+01 0.  1.
        -11    1    1    2    0    0  0.30443957081E+02  0.19917405382E+02  0.13614357267E+03  0.14092058026E+03  0.00000000000E+00 0.  1.
         11    1    1    2    0    0  0.31859290072E+01 -0.43908590887E+02  0.31855633914E+02  0.54340554923E+02  0.00000000000E+00 0. -1.
</event>
<event>
 7    1  0.2690635E-009  0.1205535E+03  0.7561462E-02  0.1242187E+00
          1   -1    0    0  501    0  0.00000000000E+00  0.00000000000E+00  0.30998861986E+03  0.30998861986E+03  0.00000000000E+00 0. -1.
         -1   -1    0    0    0  501 -0.00000000000E+00 -0.00000000000E+00 -0.61806676733E+02  0.61806676733E+02  0.00000000000E+00 0.  1.
         25    2    1    2    0    0  0.62656849390E+02 -0.50008715968E+02  0.11117782766E+03  0.18556915931E+03  0.12509456853E+03 0.  0.
          5    1    3    3  502    0  0.68013556834E+02  0.24159813711E+02  0.40382442098E+02  0.82811560434E+02  0.41800000000E+01 0.  1.
         -5    1    3    3    0  502 -0.53567074431E+01 -0.74168529678E+02  0.70795385565E+02  0.10275759888E+03  0.41800000000E+01 0.  1.
        -11    1    1    2    0    0  0.15816709985E+01  0.25540070068E+02 -0.71089398377E+01  0.26558122822E+02  0.00000000000E+00 0.  1.
         11    1    1    2    0    0 -0.64238520389E+02  0.24468645900E+02  0.14411305530E+03  0.15966801446E+03  0.00000000000E+00 0. -1.
</event>
<event>
 7    1  0.3119397E-009  0.1753889E+03  0.7561462E-02  0.1172342E+00
         -1   -1    0    0    0  501 -0.00000000000E+00  0.00000000000E+00  0.10575649021E+03  0.10575649021E+03  0.00000000000E+00 0.  1.
          1   -1    0    0  501    0  0.00000000000E+00 -0.00000000000E+00 -0.45788626893E+03  0.45788626893E+03  0.00000000000E+00 0. -1.
         25    2    1    2    0    0 -0.73747067460E+01 -0.16737660171E+03 -0.30010658674E+03  0.36576262737E+03  0.12509605540E+03 0.  0.
          5    1    3    3  502    0 -0.23069322211E+02 -0.12349513997E+03 -0.29248881130E+03  0.31835580780E+03  0.41800000000E+01 0.  1.
         -5    1    3    3    0  502  0.15694615465E+02 -0.43881461743E+02 -0.76177754386E+01  0.47406819572E+02  0.41800000000E+01 0.  1.
        -11    1    1    2    0    0  0.34210156192E+02  0.10328433150E+03  0.36197774552E+01  0.10886271496E+03  0.00000000000E+00 0.  1.
         11    1    1    2    0    0 -0.26835449446E+02  0.64092270212E+02 -0.55642969430E+02  0.89017416806E+02  0.00000000000E+00 0. -1.
</event>
<event>
 7    1  0.2690635E-009  0.1016393E+03  0.7561462E-02  0.1276886E+00
          2   -1    0    0  501    0  0.00000000000E+00  0.00000000000E+00  0.67016973202E+02  0.67016973202E+02  0.00000000000E+00 0. -1.
         -2   -1    0    0    0  501 -0.00000000000E+00 -0.00000000000E+00 -0.22951920705E+03  0.22951920705E+03  0.00000000000E+00 0.  1.
         25    2    1    2    0    0  0.41259443724E+02  0.36324639696E+01 -0.41291135925E+02  0.13808067092E+03  0.12508308153E+03 0.  0.
          5    1    3    3  502    0 -0.36170151646E+02  0.31687564692E+02 -0.23659504651E+02  0.53755243340E+02  0.41800000000E+01 0. -1.
         -5    1    3    3    0  502  0.77429595370E+02 -0.28055100723E+02 -0.17631631273E+02  0.84325427583E+02  0.41800000000E+01 0. -1.
        -11    1    1    2    0    0  0.35660695604E+01  0.21068310062E+02  0.52729191748E+01  0.22008957667E+02  0.00000000000E+00 0. -1.
         11    1    1    2    0    0 -0.44825513284E+02 -0.24700774032E+02 -0.12648401710E+03  0.13644655166E+03  0.00000000000E+00 0.  1.
</event>
<event>
 7    1  0.2690635E-009  0.1190056E+03  0.7561462E-02  0.1244747E+00
         -4   -1    0    0    0  501 -0.00000000000E+00  0.00000000000E+00  0.95427166585E+02  0.95427166585E+02  0.00000000000E+00 0.  1.
          4   -1    0    0  501    0  0.00000000000E+00 -0.00000000000E+00 -0.16872339185E+03  0.16872339185E+03  0.00000000000E+00 0. -1.
         25    2    1    2    0    0  0.43384216932E+02 -0.46929138544E+02 -0.42617232209E+02  0.14679297062E+03  0.12508962155E+03 0.  0.
          5    1    3    3  502    0  0.12939922613E+02  0.34917634582E+02  0.16822480046E+02  0.41074944150E+02  0.41800000000E+01 0. -1.
         -5    1    3    3    0  502  0.30444294319E+02 -0.81846773127E+02 -0.59439712255E+02  0.10571802647E+03  0.41800000000E+01 0. -1.
        -11    1    1    2    0    0 -0.19527115938E-01  0.65814927790E+02 -0.14738757671E+02  0.67445059708E+02  0.00000000000E+00 0.  1.
         11    1    1    2    0    0 -0.43364689816E+02 -0.18885789246E+02 -0.15940235389E+02  0.49912528112E+02  0.00000000000E+00 0. -1.
</event>
<event>
 7    1  0.2690635E-009  0.1170113E+03  0.7561462E-02  0.1248110E+00
         -1   -1    0    0    0  501 -0.00000000000E+00  0.00000000000E+00  0.56818690747E+02  0.56818690747E+02  0.00000000000E+00 0.  1.
          1   -1    0    0  501    0  0.00000000000E+00 -0.00000000000E+00 -0.24349010756E+03  0.24349010756E+03  0.00000000000E+00 0. -1.
         25    2    1    2    0    0  0.38442479082E+02  0.25098464352E+02 -0.11539039658E+03  0.17627510204E+03  0.12510080281E+03 0.  0.
          5    1    3    3  502    0 -0.74542422471E+01 -0.46950419957E+02 -0.40334174212E+02  0.62483803269E+02  0.41800000000E+01 0. -1.
         -5    1    3    3    0  502  0.45896721330E+02  0.72048884309E+02 -0.75056222370E+02  0.11379129877E+03  0.41800000000E+01 0. -1.
        -11    1    1    2    0    0  0.29330152036E+02 -0.12287472682E+02 -0.29604007183E+02  0.43446945171E+02  0.00000000000E+00 0.  1.
         11    1    1    2    0    0 -0.67772631119E+02 -0.12810991670E+02 -0.41677013053E+02  0.80586751103E+02  0.00000000000E+00 0. -1.
</event>
<event>
 7    1  0.2690635E-009  0.1162722E+03  0.7561462E-02  0.1249377E+00
         -2   -1    0    0    0  501 -0.00000000000E+00  0.00000000000E+00  0.56910710293E+02  0.56910710293E+02  0.00000000000E+00 0. -1.
          2   -1    0    0  501    0  0.00000000000E+00 -0.00000000000E+00 -0.24056125509E+03  0.24056125509E+03  0.00000000000E+00 0.  1.
         25    2    1    2    0    0 -0.37484587391E+02 -0.24998692588E+02 -0.10742473813E+03  0.17092419439E+03  0.12507988225E+03 0.  0.
          5    1    3    3  502    0 -0.83654429087E+02 -0.15435241079E+02 -0.75632640656E+02  0.11390381427E+03  0.41800000000E+01 0. -1.
         -5    1    3    3    0  502  0.46169841696E+02 -0.95634515084E+01 -0.31792097470E+02  0.57020380116E+02  0.41800000000E+01 0. -1.
        -11    1    1    2    0    0 -0.50293521573E+01  0.50310902236E+02 -0.29751183392E+02  0.58665272352E+02  0.00000000000E+00 0. -1.
         11    1    1    2    0    0  0.42513939548E+02 -0.25312209648E+02 -0.46474623280E+02  0.67882498644E+02  0.00000000000E+00 0.  1.
</event>
<event>
 7    1  0.2759350E-009  0.1155856E+03  0.7561462E-02  0.1250562E+00
          1   -1    0    0  501    0  0.00000000000E+00  0.00000000000E+00  0.45970995482E+03  0.45970995482E+03  0.00000000000E+00 0. -1.
         -1   -1    0    0    0  501 -0.00000000000E+00 -0.00000000000E+00 -0.60303554114E+02  0.60303554114E+02  0.00000000000E+00 0.  1.
         25    2    1    2    0    0  0.66643360615E+02  0.90330772419E+02  0.30162751413E+03  0.34529635739E+03  0.12509768658E+03 0.  0.
          5    1    3    3  502    0  0.40338843562E+02  0.71746913359E+02  0.30176714007E+03  0.31281899095E+03  0.41800000000E+01 0. -1.
         -5    1    3    3    0  502  0.26304517053E+02  0.18583859060E+02 -0.13962594275E+00  0.32477366432E+02  0.41800000000E+01 0. -1.
        -11    1    1    2    0    0 -0.48832653130E+02 -0.40770107796E+02  0.10376643899E+03  0.12171402369E+03  0.00000000000E+00 0. -1.
         11    1    1    2    0    0 -0.17810707484E+02 -0.49560664623E+02 -0.59875524114E+01  0.53003127859E+02  0.00000000000E+00 0.  1.
</event>
<event>
 7    1  0.2690635E-009  0.9270124E+02  0.7561462E-02  0.1296439E+00
         -2   -1    0    0    0  501 -0.00000000000E+00  0.00000000000E+00  0.64298739619E+02  0.64298739619E+02  0.00000000000E+00 0.  1.
          2   -1    0    0  501    0  0.00000000000E+00 -0.00000000000E+00 -0.22859416305E+03  0.22859416305E+03  0.00000000000E+00 0. -1.
         25    2    1    2    0    0 -0.45889758693E+02 -0.10953254030E+02 -0.12527604559E+03  0.18321404066E+03  0.12508978123E+03 0.  0.
          5    1    3    3  502    0 -0.44090385185E+02 -0.64781648260E+02 -0.61967212256E+02  0.99990158575E+02  0.41800000000E+01 0. -1.
         -5    1    3    3    0  502 -0.17993735076E+01  0.53828394230E+02 -0.63308833334E+02  0.83223882081E+02  0.41800000000E+01 0. -1.
        -11    1    1    2    0    0  0.75275442190E+01  0.12414607633E+02 -0.62842442204E+02  0.64497743734E+02  0.00000000000E+00 0. -1.
         11    1    1    2    0    0  0.38362214474E+02 -0.14613536034E+01  0.23823064361E+02  0.45181118282E+02  0.00000000000E+00 0.  1.
</event>
<event>
 7    1  0.2690635E-009  0.1263049E+03  0.7561462E-02  0.1233044E+00
          1   -1    0    0  501    0  0.00000000000E+00  0.00000000000E+00  0.10624063561E+03  0.10624063561E+03  0.00000000000E+00 0. -1.
         -1   -1    0    0    0  501 -0.00000000000E+00 -0.00000000000E+00 -0.18353354632E+03  0.18353354632E+03  0.00000000000E+00 0.  1.
         25    2    1    2    0    0  0.43219406760E+02  0.76389401668E+02 -0.39277987946E+02  0.15777807982E+03  0.12509158376E+03 0.  0.
          5    1    3    3  502    0  0.45383273445E+02  0.10554968117E+03 -0.51290571447E+02  0.12589111098E+03  0.41800000000E+01 0. -1.
         -5    1    3    3    0  502 -0.21638666851E+01 -0.29160279504E+02  0.12012583501E+02  0.31886968845E+02  0.41800000000E+01 0. -1.
        -11    1    1    2    0    0 -0.56239613266E+01 -0.69688752805E+02 -0.56196762416E+02  0.89700765407E+02  0.00000000000E+00 0.  1.
         11    1    1    2    0    0 -0.37595445434E+02 -0.67006488624E+01  0.18181839652E+02  0.42295336689E+02  0.00000000000E+00 0. -1.
</event>
<event>
 7    1  0.2690635E-009  0.1235914E+03  0.7561462E-02  0.1237287E+00
          1   -1    0    0  501    0  0.00000000000E+00  0.00000000000E+00  0.48824193775E+03  0.48824193775E+03  0.00000000000E+00 0. -1.
         -1   -1    0    0    0  501 -0.00000000000E+00 -0.00000000000E+00 -0.41580250362E+02  0.41580250362E+02  0.00000000000E+00 0.  1.
         25    2    1    2    0    0  0.76152852020E+02 -0.33747888180E+02  0.20556357266E+03  0.25463739394E+03  0.12508254539E+03 0.  0.
          5    1    3    3  502    0 -0.31860512038E+01 -0.51744290498E+02  0.27519399152E+02  0.58842265856E+02  0.41800000000E+01 0.  1.
         -5    1    3    3    0  502  0.79338903224E+02  0.17996402318E+02  0.17804417351E+03  0.19579512808E+03  0.41800000000E+01 0.  1.
        -11    1    1    2    0    0 -0.29281663139E+02  0.54951721263E+02  0.58349274977E+02  0.85333143364E+02  0.00000000000E+00 0.  1.
         11    1    1    2    0    0 -0.46871188881E+02 -0.21203833083E+02  0.18274883976E+03  0.18985165081E+03  0.00000000000E+00 0. -1.
</event>
<event>
 7    1  0.2690635E-009  0.1037412E+03  0.7561462E-02  0.1272620E+00
         -2   -1    0    0    0  501 -0.00000000000E+00  0.00000000000E+00  0.20315219598E+02  0.20315219598E+02  0.00000000000E+00 0.  1.
          2   -1    0    0  501    0  0.00000000000E+00 -0.00000000000E+00 -0.75224017614E+03  0.75224017614E+03  0.00000000000E+00 0. -1.
         25    2    1    2    0    0 -0.72653778302E+01 -0.27772769087E+01 -0.22999555417E+03  0.26192137583E+03  0.12507738882E+03 0.  0.
          5    1    3    3  502    0  0.18422519210E+02 -0.53421032515E+02 -0.59476949118E+02  0.82147281181E+02  0.41800000000E+01 0.  1.
         -5    1    3    3    0  502 -0.25687897040E+02  0.50643755607E+02 -0.17051860505E+03  0.17977409465E+03  0.41800000000E+01 0.  1.
        -11    1    1    2    0    0 -0.26525424393E+02 -0.34531585984E+02 -0.23083509847E+03  0.23490609029E+03  0.00000000000E+00 0. -1.
         11    1    1    2    0    0  0.33790802224E+02  0.37308862893E+02 -0.27109430391E+03  0.27572792962E+03  0.00000000000E+00 0.  1.
</event>
<event>
 7    1  0.2690635E-009  0.5948390E+02  0.7561462E-02  0.1400010E+00
         -1   -1    0    0    0  501 -0.00000000000E+00  0.00000000000E+00  0.36293045235E+02  0.36293045235E+02  0.00000000000E+00 0.  1.
          1   -1    0    0  501    0  0.00000000000E+00 -0.00000000000E+00 -0.34191599581E+03  0.34191599581E+03  0.00000000000E+00 0. -1.
         25    2    1    2    0    0  0.14397192459E+02 -0.24817749844E+02 -0.16251651574E+03  0.20707956785E+03  0.12508848737E+03 0.  0.
          5    1    3    3  502    0  0.21524284174E+02 -0.42016456818E+02 -0.17692959557E+03  0.18316722317E+03  0.41800000000E+01 0.  1.
         -5    1    3    3    0  502 -0.71270917155E+01  0.17198706974E+02  0.14413079833E+02  0.23912344681E+02  0.41800000000E+01 0.  1.
        -11    1    1    2    0    0 -0.88091990738E+01 -0.12204817981E+02  0.68731527174E+01  0.16546896946E+02  0.00000000000E+00 0.  1.
         11    1    1    2    0    0 -0.55879933851E+01  0.37022567825E+02 -0.14997958755E+03  0.15458257625E+03  0.00000000000E+00 0. -1.
</event>
<event>
 7    1  0.2690635E-009  0.1090234E+03  0.7561462E-02  0.1262389E+00
         -1   -1    0    0    0  501 -0.00000000000E+00  0.00000000000E+00  0.15450093139E+02  0.15450093139E+02  0.00000000000E+00 0.  1.
          1   -1    0    0  501    0  0.00000000000E+00 -0.00000000000E+00 -0.79357678050E+03  0.79357678050E+03  0.00000000000E+00 0. -1.
         25    2    1    2    0    0 -0.16718296609E+02  0.88586617922E+01 -0.39092194752E+03  0.41088358239E+03  0.12508945556E+03 0.  0.
          5    1    3    3  502    0 -0.25853378510E+02  0.64540420717E+02 -0.20202344020E+03  0.21369325183E+03  0.41800000000E+01 0. -1.
         -5    1    3    3    0  502  0.91350819001E+01 -0.55681758925E+02 -0.18889850733E+03  0.19719033056E+03  0.41800000000E+01 0. -1.
        -11    1    1    2    0    0  0.10415607923E+02 -0.49552592393E+02 -0.18608701136E+03  0.19285310498E+03  0.00000000000E+00 0. -1.
         11    1    1    2    0    0  0.63026886859E+01  0.40693930601E+02 -0.20111772847E+03  0.20529018627E+03  0.00000000000E+00 0.  1.
</event>
<event>
 7    1  0.2690635E-009  0.1119932E+03  0.7561462E-02  0.1256923E+00
         -2   -1    0    0    0  501 -0.00000000000E+00  0.00000000000E+00  0.15018556203E+02  0.15018556203E+02  0.00000000000E+00 0.  1.
          2   -1    0    0  501    0  0.00000000000E+00 -0.00000000000E+00 -0.11491957628E+04  0.11491957628E+04  0.00000000000E+00 0. -1.
         25    2    1    2    0    0 -0.37917151578E+02  0.19618287418E+02 -0.90460481574E+03  0.91420906164E+03  0.12508296501E+03 0.  0.
          5    1    3    3  502    0 -0.76461689563E+02  0.41951954542E+02 -0.58020231927E+03  0.58673551124E+03  0.41800000000E+01 0. -1.
         -5    1    3    3    0  502  0.38544537985E+02 -0.22333667124E+02 -0.32440249648E+03  0.32747355041E+03  0.41800000000E+01 0. -1.
        -11    1    1    2    0    0  0.58408809652E+02 -0.33352211336E+02 -0.20250691781E+03  0.21338465457E+03  0.00000000000E+00 0. -1.
         11    1    1    2    0    0 -0.20491658073E+02  0.13733923918E+02 -0.27065472997E+02  0.36620602744E+02  0.00000000000E+00 0.  1.
</event>
<event>
 7    1  0.2690635E-009  0.1039621E+03  0.7561462E-02  0.1272178E+00
         -2   -1    0    0    0  501 -0.00000000000E+00  0.00000000000E+00  0.31980578358E+02  0.31980578358E+02  0.00000000000E+00 0. -1.
          2   -1    0    0  501    0  0.00000000000E+00 -0.00000000000E+00 -0.60536198333E+03  0.60536198333E+03  0.00000000000E+00 0.  1.
         25    2    1    2    0    0 -0.74628315390E+02  0.35687356918E+02 -0.26777474405E+03  0.30691136232E+03  0.12509315676E+03 0.  0.
          5    1    3    3  502    0 -0.39096068896E+01  0.22861236478E+02 -0.21827222900E+03  0.21954079237E+03  0.41800000000E+01 0.  1.
         -5    1    3    3    0  502 -0.70718708500E+02  0.12826120440E+02 -0.49502515044E+02  0.87370569949E+02  0.41800000000E+01 0.  1.
        -11    1    1    2    0    0  0.78246099458E+02 -0.17825970086E+01 -0.13159743060E+03  0.15311274759E+03  0.00000000000E+00 0. -1.
         11    1    1    2    0    0 -0.36177840681E+01 -0.33904759909E+02 -0.17400923032E+03  0.17731845178E+03  0.00000000000E+00 0.  1.
</event>
<event>
 7    1  0.2690635E-009  0.1586676E+03  0.7561462E-02  0.1190209E+00
          3   -1    0    0  501    0  0.00000000000E+00  0.00000000000E+00  0.14743415949E+03  0.14743415949E+03  0.00000000000E+00 0. -1.
         -3   -1    0    0    0  501 -0.00000000000E+00 -0.00000000000E+00 -0.20069034472E+03  0.20069034472E+03  0.00000000000E+00 0.  1.
         25    2    1    2    0    0 -0.12919711031E+03 -0.38703490364E+02 -0.45919724979E+02  0.18959057076E+03  0.12508441110E+03 0.  0.
          5    1    3    3  502    0 -0.13543332861E+03 -0.67773874962E+02 -0.49429525199E+02  0.15936196217E+03  0.41800000000E+01 0. -1.
         -5    1    3    3    0  502  0.62362183044E+01  0.29070384598E+02  0.35098002194E+01  0.30228608585E+02  0.41800000000E+01 0. -1.
        -11    1    1    2    0    0  0.53108255296E+02  0.24146207683E+02  0.37185262099E+02  0.69182872472E+02  0.00000000000E+00 0. -1.
         11    1    1    2    0    0  0.76088855013E+02  0.14557282681E+02 -0.44521722347E+02  0.89351060973E+02  0.00000000000E+00 0.  1.
</event>
<event>
 7    1  0.2690635E-009  0.9865692E+02  0.7561462E-02  0.1283146E+00
         -1   -1    0    0    0  501 -0.00000000000E+00  0.00000000000E+00  0.24010930927E+03  0.24010930927E+03  0.00000000000E+00 0. -1.
          1   -1    0    0  501    0  0.00000000000E+00 -0.00000000000E+00 -0.95468192779E+02  0.95468192779E+02  0.00000000000E+00 0.  1.
         25    2    1    2    0    0  0.53309991351E+02  0.47282451196E+02 -0.21853828925E+01  0.14399530452E+03  0.12510909821E+03 0.  0.
          5    1    3    3  502    0  0.28022949566E+02  0.40732536312E+02  0.59146001568E+02  0.77201989082E+02  0.41800000000E+01 0.  1.
         -5    1    3    3    0  502  0.25287041784E+02  0.65499148840E+01 -0.61331384460E+02  0.66793315436E+02  0.41800000000E+01 0.  1.
        -11    1    1    2    0    0  0.28678852657E+02 -0.19475043056E+02  0.57810991456E+02  0.67408194049E+02  0.00000000000E+00 0.  1.
         11    1    1    2    0    0 -0.81988844008E+02 -0.27807408140E+02  0.89015507929E+02  0.12417400348E+03  0.00000000000E+00 0. -1.
</event>
<event>
 7    1  0.2690635E-009  0.1455815E+03  0.7561462E-02  0.1206010E+00
          1   -1    0    0  501    0  0.00000000000E+00  0.00000000000E+00  0.13554134738E+03  0.13554134738E+03  0.00000000000E+00 0. -1.
         -1   -1    0    0    0  501 -0.00000000000E+00 -0.00000000000E+00 -0.27852598994E+03  0.27852598994E+03  0.00000000000E+00 0.  1.
         25    2    1    2    0    0 -0.10347234684E+03  0.67033513579E+02  0.36283720011E+02  0.17934513650E+03  0.12509257031E+03 0.  0.
          5    1    3    3  502    0 -0.46706261202E+02  0.78656813047E+02 -0.24976207178E+02  0.94919188783E+02  0.41800000000E+01 0.  1.
         -5    1    3    3    0  502 -0.56766085642E+02 -0.11623299468E+02  0.61259927188E+02  0.84425947722E+02  0.41800000000E+01 0.  1.
        -11    1    1    2    0    0 -0.16421178651E+01 -0.30002973805E+02 -0.92621111346E+01  0.31442991126E+02  0.00000000000E+00 0.  1.
         11    1    1    2    0    0  0.10511446471E+03 -0.37030539773E+02 -0.17000625144E+03  0.20327920969E+03  0.00000000000E+00 0. -1.
</event>
<event>
 7    1  0.2690635E-009  0.2054169E+03  0.7561462E-02  0.1145248E+00
          1   -1    0    0  501    0  0.00000000000E+00  0.00000000000E+00  0.92484630992E+03  0.92484630992E+03  0.00000000000E+00 0. -1.
         -1   -1    0    0    0  501 -0.00000000000E+00 -0.00000000000E+00 -0.59711372412E+02  0.59711372412E+02  0.00000000000E+00 0.  1.
         25    2    1    2    0    0  0.18487916573E+03 -0.15109585386E+02  0.24555068313E+03  0.33218836103E+03  0.12508142839E+03 0.  0.
          5    1    3    3  502    0 -0.10445564493E+02 -0.25290092322E+02  0.37441870243E+02  0.46562480975E+02  0.41800000000E+01 0. -1.
         -5    1    3    3    0  502  0.19532473022E+03  0.10180506936E+02  0.20810881289E+03  0.28562588006E+03  0.41800000000E+01 0. -1.
        -11    1    1    2    0    0 -0.14745395467E+03  0.23095387702E+02  0.57281104365E+03  0.59193627816E+03  0.00000000000E+00 0.  1.
         11    1    1    2    0    0 -0.37425211053E+02 -0.79858023159E+01  0.46773210728E+02  0.60433043137E+02  0.00000000000E+00 0. -1.
</event>
<event>
 7    1  0.2690635E-009  0.1052125E+03  0.7561462E-02  0.1269702E+00
          2   -1    0    0  501    0  0.00000000000E+00  0.00000000000E+00  0.51883907214E+03  0.51883907214E+03  0.00000000000E+00 0. -1.
         -2   -1    0    0    0  501 -0.00000000000E+00 -0.00000000000E+00 -0.27681372425E+02  0.27681372425E+02  0.00000000000E+00 0.  1.
         25    2    1    2    0    0  0.42402843219E+02  0.20699994503E+02  0.23396388900E+03  0.26946747381E+03  0.12508847749E+03 0.  0.
          5    1    3    3  502    0  0.52085125419E+02 -0.32405946012E+02  0.55008725795E+02  0.82501139025E+02  0.41800000000E+01 0.  1.
         -5    1    3    3    0  502 -0.96822821999E+01  0.53105940515E+02  0.17895516320E+03  0.18696633479E+03  0.41800000000E+01 0.  1.
        -11    1    1    2    0    0  0.22358017736E+02 -0.20051345280E+02  0.13970259812E+03  0.14289420326E+03  0.00000000000E+00 0. -1.
         11    1    1    2    0    0 -0.64760860955E+02 -0.64864922235E+00  0.11749121260E+03  0.13415876749E+03  0.00000000000E+00 0.  1.
</event>
<event>
 7    1  0.2690635E-009  0.1416392E+03  0.7561462E-02  0.1211140E+00
          2   -1    0    0  501    0  0.00000000000E+00  0.00000000000E+00  0.12322512093E+04  0.12322512093E+04  0.00000000000E+00 0. -1.
         -2   -1    0    0    0  501 -0.00000000000E+00 -0.00000000000E+00 -0.32644388790E+02  0.32644388790E+02  0.00000000000E+00 0.  1.
         25    2    1    2    0    0 -0.11264750257E+03  0.31384877146E+02  0.10070886739E+04  0.10215433320E+04  0.12509481097E+03 0.  0.
          5    1    3    3  502    0 -0.33410631813E+02 -0.36533079902E+02  0.56948135461E+03  0.57164448907E+03  0.41800000000E+01 0. -1.
         -5    1    3    3    0  502 -0.79236870760E+02  0.67917957047E+02  0.43760731932E+03  0.44989884296E+03  0.41800000000E+01 0. -1.
        -11    1    1    2    0    0  0.93049170566E+02 -0.10741448841E+01  0.18411077460E+03  0.20629124861E+03  0.00000000000E+00 0. -1.
         11    1    1    2    0    0  0.19598332007E+02 -0.30310732262E+02  0.84073719443E+01  0.37061017400E+02  0.00000000000E+00 0.  1.
</event>
<event>
 7    1  0.2690635E-009  0.7742095E+02  0.7561462E-02  0.1336534E+00
         -1   -1    0    0    0  501 -0.00000000000E+00  0.00000000000E+00  0.34409166116E+02  0.34409166116E+02  0.00000000000E+00 0.  1.
          1   -1    0    0  501    0  0.00000000000E+00 -0.00000000000E+00 -0.37929411704E+03  0.37929411704E+03  0.00000000000E+00 0. -1.
         25    2    1    2    0    0  0.26720951747E+02 -0.17342806836E+02 -0.22800662256E+03  0.26200949149E+03  0.12508865453E+03 0.  0.
          5    1    3    3  502    0 -0.11659993456E+02 -0.24310980149E+02 -0.22035601913E+03  0.22203879564E+03  0.41800000000E+01 0. -1.
         -5    1    3    3    0  502  0.38380945203E+02  0.69681733130E+01 -0.76506034261E+01  0.39970695851E+02  0.41800000000E+01 0. -1.
        -11    1    1    2    0    0 -0.24562197840E+02  0.49941871257E+02 -0.41140731322E+02  0.69210200412E+02  0.00000000000E+00 0.  1.
         11    1    1    2    0    0 -0.21587539077E+01 -0.32599064421E+02 -0.75737597048E+02  0.82483591254E+02  0.00000000000E+00 0. -1.
</event>
<event>
 7    1  0.2690635E-009  0.8974479E+02  0.7561462E-02  0.1303471E+00
          2   -1    0    0  501    0  0.00000000000E+00  0.00000000000E+00  0.62761263857E+03  0.62761263857E+03  0.00000000000E+00 0. -1.
         -2   -1    0    0    0  501 -0.00000000000E+00 -0.00000000000E+00 -0.22295418203E+02  0.22295418203E+02  0.00000000000E+00 0.  1.
         25    2    1    2    0    0  0.29656649055E+02 -0.10609850680E+02  0.44524757674E+03  0.46355829091E+03  0.12509515864E+03 0.  0.
          5    1    3    3  502    0  0.29775237237E+02 -0.57695465561E+02  0.13648826617E+03  0.15120135813E+03  0.41800000000E+01 0. -1.
         -5    1    3    3    0  502 -0.11858818261E+00  0.47085614880E+02  0.30875931056E+03  0.31235693277E+03  0.41800000000E+01 0. -1.
        -11    1    1    2    0    0  0.18242514941E+02  0.76708328892E+00 -0.73593570126E+00  0.18273460797E+02  0.00000000000E+00 0.  1.
         11    1    1    2    0    0 -0.47899163995E+02  0.98427673915E+01  0.16080557934E+03  0.16807630507E+03  0.00000000000E+00 0. -1.
</event>
<event>
 7    1  0.2690635E-009  0.1132513E+03  0.7561462E-02  0.1254665E+00
         -1   -1    0    0    0  501 -0.00000000000E+00  0.00000000000E+00  0.14884164728E+04  0.14884164728E+04  0.00000000000E+00 0.  1.
          1   -1    0    0  501    0  0.00000000000E+00 -0.00000000000E+00 -0.14933119613E+02  0.14933119613E+02  0.00000000000E+00 0. -1.
         25    2    1    2    0    0  0.21254492691E+02  0.81367008414E+02  0.10648008269E+04  0.10754169968E+04  0.12509425468E+03 0.  0.
          5    1    3    3  502    0  0.19057904081E+02 -0.82334094059E+01  0.29932598346E+02  0.36666409453E+02  0.41800000000E+01 0. -1.
         -5    1    3    3    0  502  0.21965886098E+01  0.89600417820E+02  0.10348682285E+04  0.10387505874E+04  0.41800000000E+01 0. -1.
        -11    1    1    2    0    0 -0.14895161338E+02 -0.97306312146E+02  0.39135307994E+03  0.40354382339E+03  0.00000000000E+00 0.  1.
         11    1    1    2    0    0 -0.63593313535E+01  0.15939303732E+02  0.17329446307E+02  0.24388772172E+02  0.00000000000E+00 0. -1.
</event>
<event>
 7    1  0.2690635E-009  0.9398769E+02  0.7561462E-02  0.1293472E+00
         -1   -1    0    0    0  501 -0.00000000000E+00  0.00000000000E+00  0.23629874681E+03  0.23629874681E+03  0.00000000000E+00 0.  1.
          1   -1    0    0  501    0  0.00000000000E+00 -0.00000000000E+00 -0.10104008561E+03  0.10104008561E+03  0.00000000000E+00 0. -1.
         25    2    1    2    0    0 -0.32607270627E+02 -0.43234491589E+02 -0.29816997641E+02  0.13953419865E+03  0.12509310087E+03 0.  0.
          5    1    3    3  502    0 -0.28073968849E+02 -0.58446326867E+02 -0.70374042886E+02  0.95781517859E+02  0.41800000000E+01 0.  1.
         -5    1    3    3    0  502 -0.45333017773E+01  0.15211835278E+02  0.40557045246E+02  0.43752680793E+02  0.41800000000E+01 0.  1.
        -11    1    1    2    0    0  0.64844003063E+02  0.33046090291E+02  0.13065309036E+03  0.14955607255E+03  0.00000000000E+00 0.  1.
         11    1    1    2    0    0 -0.32236732436E+02  0.10188401298E+02  0.34422568485E+02  0.48248561225E+02  0.00000000000E+00 0. -1.
</event>
<event>
 7    1  0.2690635E-009  0.1213997E+03  0.7561462E-02  0.1240806E+00
         -1   -1    0    0    0  501 -0.00000000000E+00  0.00000000000E+00  0.12344527223E+03  0.12344527223E+03  0.00000000000E+00 0.  1.
          1   -1    0    0  501    0  0.00000000000E+00 -0.00000000000E+00 -0.14349205325E+03  0.14349205325E+03  0.00000000000E+00 0. -1.
         25    2    1    2    0    0  0.75399434045E+02 -0.10036402218E+02 -0.27900453314E+01  0.14642799804E+03  0.12509024836E+03 0.  0.
          5    1    3    3  502    0  0.78203345000E+02  0.35644488741E+02 -0.32192269869E+02  0.91870057071E+02  0.41800000000E+01 0.  1.
         -5    1    3    3    0  502 -0.28039109550E+01 -0.45680890959E+02  0.29402224538E+02  0.54557940973E+02  0.41800000000E+01 0.  1.
        -11    1    1    2    0    0 -0.38246252942E+02  0.45497174327E+02 -0.31422233585E+02  0.67231878595E+02  0.00000000000E+00 0. -1.
         11    1    1    2    0    0 -0.37153181103E+02 -0.35460772109E+02  0.14165497899E+02  0.53277448844E+02  0.00000000000E+00 0.  1.
</event>
<event>
 7    1  0.2690635E-009  0.1103805E+03  0.7561462E-02  0.1259867E+00
         -2   -1    0    0    0  501 -0.00000000000E+00  0.00000000000E+00  0.57139978395E+02  0.57139978395E+02  0.00000000000E+00 0. -1.
          2   -1    0    0  501    0  0.00000000000E+00 -0.00000000000E+00 -0.30858522531E+03  0.30858522531E+03  0.00000000000E+00 0.  1.
         25    2    1    2    0    0 -0.37351307505E+02  0.66587816302E+02 -0.14053277979E+03  0.20304165520E+03  0.12508954431E+03 0.  0.
          5    1    3    3  502    0  0.20103652371E+02  0.62269071560E+02 -0.12816666458E+03  0.14396444152E+03  0.41800000000E+01 0.  1.
         -5    1    3    3    0  502 -0.57454959875E+02  0.43187447424E+01 -0.12366115210E+02  0.59077213677E+02  0.41800000000E+01 0.  1.
        -11    1    1    2    0    0  0.43856367044E+02 -0.74945509761E+02 -0.12041218708E+03  0.14845640828E+03  0.00000000000E+00 0.  1.
         11    1    1    2    0    0 -0.65050595392E+01  0.83576934593E+01  0.94997199596E+01  0.14227140221E+02  0.00000000000E+00 0. -1.
</event>
<event>
 7    1  0.2690635E-009  0.7800272E+02  0.7561462E-02  0.1334817E+00
          1   -1    0    0  501    0  0.00000000000E+00  0.00000000000E+00  0.20229134988E+03  0.20229134988E+03  0.00000000000E+00 0. -1.
         -1   -1    0    0    0  501 -0.00000000000E+00 -0.00000000000E+00 -0.63759157755E+02  0.63759157755E+02  0.00000000000E+00 0.  1.
         25    2    1    2    0    0 -0.25162130375E+02  0.83585737990E+01  0.12941488285E+03  0.18193029715E+03  0.12508965807E+03 0.  0.
          5    1    3    3  502    0 -0.95637336880E+00  0.35565337325E+02  0.13940828149E+03  0.14393731003E+03  0.41800000000E+01 0. -1.
         -5    1    3    3    0  502 -0.24205757006E+02 -0.27206763526E+02 -0.99933986445E+01  0.37992987119E+02  0.41800000000E+01 0. -1.
        -11    1    1    2    0    0  0.32522703413E+02 -0.39707180068E+02  0.36258605108E+01  0.51454185939E+02  0.00000000000E+00 0.  1.
         11    1    1    2    0    0 -0.73605730379E+01  0.31348606269E+02  0.54914487676E+01  0.32666024551E+02  0.00000000000E+00 0. -1.
</event>
<event>
 7    1  0.2690635E-009  0.9298200E+02  0.7561462E-02  0.1295787E+00
          1   -1    0    0  501    0  0.00000000000E+00  0.00000000000E+00  0.77667063754E+02  0.77667063754E+02  0.00000000000E+00 0. -1.
         -1   -1    0    0    0  501 -0.00000000000E+00 -0.00000000000E+00 -0.17487145706E+03  0.17487145706E+03  0.00000000000E+00 0.  1.
         25    2    1    2    0    0  0.35314554491E+02  0.73810080418E+01 -0.29763959390E+02  0.13354510436E+03  0.12508718792E+03 0.  0.
          5    1    3    3  502    0 -0.13212980307E+02  0.35974664512E+02  0.31816985444E+02  0.49985520884E+02  0.41800000000E+01 0. -1.
         -5    1    3    3    0  502  0.48527534798E+02 -0.28593656470E+02 -0.61580944834E+02  0.83559583476E+02  0.41800000000E+01 0. -1.
        -11    1    1    2    0    0 -0.50651648666E+02  0.23965329021E+02 -0.62177267142E+02  0.83701487782E+02  0.00000000000E+00 0.  1.
         11    1    1    2    0    0  0.15337094175E+02 -0.31346337062E+02 -0.52631667754E+01  0.35291928673E+02  0.00000000000E+00 0. -1.
</event>
<event>
 7    1  0.2690635E-009  0.9239786E+02  0.7561462E-02  0.1297147E+00
         -1   -1    0    0    0  501 -0.00000000000E+00  0.00000000000E+00  0.38038370628E+02  0.38038370628E+02  0.00000000000E+00 0.  1.
          1   -1    0    0  501    0  0.00000000000E+00 -0.00000000000E+00 -0.36186416840E+03  0.36186416840E+03  0.00000000000E+00 0. -1.
         25    2    1    2    0    0 -0.29664056942E+02  0.31258382790E+02 -0.17649394821E+03  0.22057620629E+03  0.12508679490E+03 0.  0.
          5    1    3    3  502    0 -0.27628703169E+02 -0.21213953150E+02 -0.16225946392E+03  0.16600898493E+03  0.41800000000E+01 0. -1.
         -5    1    3    3    0  502 -0.20353537724E+01  0.52472335940E+02 -0.14234484291E+02  0.54567221360E+02  0.41800000000E+01 0. -1.
        -11    1    1    2    0    0 -0.70360181308E+01 -0.53605904708E+02 -0.53198127258E+02  0.75849451642E+02  0.00000000000E+00 0.  1.
         11    1    1    2    0    0  0.36700075073E+02  0.22347521918E+02 -0.94133722305E+02  0.10347688110E+03  0.00000000000E+00 0. -1.
</event>
<event>
 7    1  0.2690635E-009  0.1024443E+03  0.7561462E-02  0.1275238E+00
         -2   -1    0    0    0  501 -0.00000000000E+00  0.00000000000E+00  0.33806900453E+02  0.33806900453E+02  0.00000000000E+00 0.  1.
          2   -1    0    0  501    0  0.00000000000E+00 -0.00000000000E+00 -0.43470365951E+03  0.43470365951E+03  0.00000000000E+00 0. -1.
         25    2    1    2    0    0  0.38070221535E+02 -0.31675377591E+02 -0.28947520058E+03  0.31921116070E+03  0.12508877668E+03 0.  0.
          5    1    3    3  502    0  0.68356823165E+02 -0.61335210700E+02 -0.19893785686E+03  0.21915384239E+03  0.41800000000E+01 0. -1.
         -5    1    3    3    0  502 -0.30286601630E+02  0.29659833109E+02 -0.90537343725E+02  0.10005731831E+03  0.41800000000E+01 0. -1.
        -11    1    1    2    0    0 -0.11278793150E+02  0.40584698396E+02 -0.90211794414E+01  0.43077959531E+02  0.00000000000E+00 0.  1.
         11    1    1    2    0    0 -0.26791428385E+02 -0.89093208045E+01 -0.10240037904E+03  0.10622143973E+03  0.00000000000E+00 0. -1.
</event>
<event>
 7    1  0.2690635E-009  0.1187310E+03  0.7561462E-02  0.1245205E+00
         -2   -1    0    0    0  501 -0.00000000000E+00  0.00000000000E+00  0.21927047386E+02  0.21927047386E+02  0.00000000000E+00 0. -1.
          2   -1    0    0  501    0  0.00000000000E+00 -0.00000000000E+00 -0.75044293600E+03  0.75044293600E+03  0.00000000000E+00 0.  1.
         25    2    1    2    0    0 -0.23580218793E+02  0.53889796832E+02 -0.29963625202E+03  0.32998341352E+03  0.12508809998E+03 0.  0.
          5    1    3    3  502    0  0.20858332261E+01  0.87287379625E+02 -0.14186655582E+03  0.16663441842E+03  0.41800000000E+01 0.  1.
         -5    1    3    3    0  502 -0.25666052019E+02 -0.33397582794E+02 -0.15776969620E+03  0.16334899510E+03  0.41800000000E+01 0.  1.
        -11    1    1    2    0    0  0.42829904285E+02 -0.70371579584E+02 -0.30418799097E+03  0.31514582936E+03  0.00000000000E+00 0. -1.
         11    1    1    2    0    0 -0.19249685492E+02  0.16481782752E+02 -0.12469164563E+03  0.12724074050E+03  0.00000000000E+00 0.  1.
</event>
<event>
 7    1  0.2690635E-009  0.1139592E+03  0.7561462E-02  0.1253409E+00
         -2   -1    0    0    0  501 -0.00000000000E+00  0.00000000000E+00  0.23988809394E+03  0.23988809394E+03  0.00000000000E+00 0.  1.
          2   -1    0    0  501    0  0.00000000000E+00 -0.00000000000E+00 -0.10667776853E+03  0.10667776853E+03  0.00000000000E+00 0. -1.
         25    2    1    2    0    0 -0.35577722537E+02 -0.63212654347E+02 -0.28026533846E+02  0.14727505801E+03  0.12507134804E+03 0.  0.
          5    1    3    3  502    0 -0.12651323915E+02 -0.96208430029E+02  0.16654751038E+01  0.97140950236E+02  0.41800000000E+01 0. -1.
         -5    1    3    3    0  502 -0.22926398622E+02  0.32995775682E+02 -0.29692008950E+02  0.50134107773E+02  0.41800000000E+01 0. -1.
        -11    1    1    2    0    0  0.15314419762E+02  0.67893424616E+02  0.16414566257E+03  0.17829146670E+03  0.00000000000E+00 0.  1.
         11    1    1    2    0    0  0.20263302775E+02 -0.46807702690E+01 -0.29088033164E+01  0.20999337761E+02  0.00000000000E+00 0. -1.
</event>
<event>
 7    1  0.2690635E-009  0.1046562E+03  0.7561462E-02  0.1270798E+00
          3   -1    0    0  501    0  0.00000000000E+00  0.00000000000E+00  0.18654341358E+03  0.18654341358E+03  0.00000000000E+00 0. -1.
         -3   -1    0    0    0  501 -0.00000000000E+00 -0.00000000000E+00 -0.74203903671E+02  0.74203903671E+02  0.00000000000E+00 0.  1.
         25    2    1    2    0    0 -0.29614523072E+02 -0.34208201154E+02  0.61175865952E+02  0.14641414111E+03  0.12508954049E+03 0.  0.
          5    1    3    3  502    0  0.18452285799E+02  0.28571168330E+02  0.57762965114E+02  0.67162720684E+02  0.41800000000E+01 0. -1.
         -5    1    3    3    0  502 -0.48066808871E+02 -0.62779369484E+02  0.34129008382E+01  0.79251420428E+02  0.41800000000E+01 0. -1.
        -11    1    1    2    0    0  0.44469388325E+02 -0.13037349719E+02  0.49675451987E+01  0.46606603513E+02  0.00000000000E+00 0.  1.
         11    1    1    2    0    0 -0.14854865253E+02  0.47245550872E+02  0.46196098756E+02  0.67726572623E+02  0.00000000000E+00 0. -1.
</event>
<event>
 7    1  0.2690635E-009  0.1324104E+03  0.7561462E-02  0.1223922E+00
         -1   -1    0    0    0  501 -0.00000000000E+00  0.00000000000E+00  0.29631427470E+03  0.29631427470E+03  0.00000000000E+00 0.  1.
          1   -1    0    0  501    0  0.00000000000E+00 -0.00000000000E+00 -0.60771622542E+02  0.60771622542E+02  0.00000000000E+00 0. -1.
         25    2    1    2    0    0  0.37079513908E+02 -0.80116370156E+02  0.14928917682E+03  0.21384151240E+03  0.12508961184E+03 0.  0.
          5    1    3    3  502    0 -0.20200580923E+02  0.24672910191E+02  0.44517226965E+02  0.54918775146E+02  0.41800000000E+01 0. -1.
         -5    1    3    3    0  502  0.57280094831E+02 -0.10478928035E+03  0.10477194985E+03  0.15892273725E+03  0.41800000000E+01 0. -1.
        -11    1    1    2    0    0  0.21402223121E+02  0.23033934137E+02  0.15069850360E+02  0.34867143075E+02  0.00000000000E+00 0.  1.
         11    1    1    2    0    0 -0.58481737029E+02  0.57082436020E+02  0.71183624976E+02  0.10837724177E+03  0.00000000000E+00 0. -1.
</event>
<event>
 7    1  0.2904210E-009  0.8617485E+02  0.7561462E-02  0.1312388E+00
          1   -1    0    0  501    0  0.00000000000E+00  0.00000000000E+00  0.44366914410E+03  0.44366914410E+03  0.00000000000E+00 0. -1.
         -1   -1    0    0    0  501 -0.00000000000E+00 -0.00000000000E+00 -0.40506708689E+02  0.40506708689E+02  0.00000000000E+00 0.  1.
         25    2    1    2    0    0 -0.70644983383E+01  0.64626031172E+02  0.29968740707E+03  0.33118884001E+03  0.12508826783E+03 0.  0.
          5    1    3    3  502    0 -0.22702101766E+02  0.24369378169E+02  0.57370166007E+01  0.34053454691E+02  0.41800000000E+01 0.  1.
         -5    1    3    3    0  502  0.15637603427E+02  0.40256653003E+02  0.29395039047E+03  0.29713538532E+03  0.41800000000E+01 0.  1.
        -11    1    1    2    0    0  0.38577082683E+02 -0.33326911061E+02  0.13640291252E+02  0.52772453559E+02  0.00000000000E+00 0.  1.
         11    1    1    2    0    0 -0.31512584344E+02 -0.31299120111E+02  0.89834737080E+02  0.10021455921E+03  0.00000000000E+00 0. -1.
</event>
<event>
 7    1  0.2690635E-009  0.9420633E+02  0.7561462E-02  0.1292974E+00
         -1   -1    0    0    0  501 -0.00000000000E+00  0.00000000000E+00  0.14946008435E+03  0.14946008435E+03  0.00000000000E+00 0.  1.
          1   -1    0    0  501    0  0.00000000000E+00 -0.00000000000E+00 -0.97306943124E+02  0.97306943124E+02  0.00000000000E+00 0. -1.
         25    2    1    2    0    0  0.43209344842E+02  0.36172851435E+02  0.21762689715E+02  0.13891610265E+03  0.12509414954E+03 0.  0.
          5    1    3    3  502    0  0.42543997893E+02 -0.16084187458E+02  0.58997173727E+02  0.74611203922E+02  0.41800000000E+01 0.  1.
         -5    1    3    3    0  502  0.66534694984E+00  0.52257038893E+02 -0.37234484012E+02  0.64304898726E+02  0.41800000000E+01 0.  1.
        -11    1    1    2    0    0 -0.55005409545E+02 -0.29830867613E+01  0.43578379744E+02  0.70239369779E+02  0.00000000000E+00 0.  1.
         11    1    1    2    0    0  0.11796064703E+02 -0.33189764674E+02 -0.13187928237E+02  0.37611555043E+02  0.00000000000E+00 0. -1.
</event>
<event>
 7    1  0.2690635E-009  0.9931426E+02  0.7561462E-02  0.1281745E+00
         -2   -1    0    0    0  501 -0.00000000000E+00  0.00000000000E+00  0.94293283084E+02  0.94293283084E+02  0.00000000000E+00 0.  1.
          2   -1    0    0  501    0  0.00000000000E+00 -0.00000000000E+00 -0.13661591847E+03  0.13661591847E+03  0.00000000000E+00 0. -1.
         25    2    1    2    0    0  0.28843475633E+02 -0.29886262691E+01 -0.37931036089E+02  0.13389644922E+03  0.12509443489E+03 0.  0.
          5    1    3    3  502    0 -0.28485024310E+02  0.24791718261E+02  0.24010179075E+02  0.44944265524E+02  0.41800000000E+01 0. -1.
         -5    1    3    3    0  502  0.57328499942E+02 -0.27780344530E+02 -0.61941215164E+02  0.88952183694E+02  0.41800000000E+01 0. -1.
        -11    1    1    2    0    0 -0.32908140599E+02 -0.41024802034E+02 -0.47897390044E+01  0.52810242372E+02  0.00000000000E+00 0.  1.
         11    1    1    2    0    0  0.40646649664E+01  0.44013428303E+02  0.39813970411E+00  0.44202509969E+02  0.00000000000E+00 0. -1.
</event>
<event>
 7    1  0.2690635E-009  0.5024613E+02  0.7561462E-02  0.1444018E+00
         -1   -1    0    0    0  501 -0.00000000000E+00  0.00000000000E+00  0.75080651468E+02  0.75080651468E+02  0.00000000000E+00 0.  1.
          1   -1    0    0  501    0  0.00000000000E+00 -0.00000000000E+00 -0.19935286523E+03  0.19935286523E+03  0.00000000000E+00 0. -1.
         25    2    1    2    0    0 -0.38361398094E+02 -0.50288507930E+01 -0.10329007291E+03  0.16677423263E+03  0.12509164362E+03 0.  0.
          5    1    3    3  502    0 -0.32073609886E+02 -0.10835291399E+02 -0.13209868025E+03  0.13643186473E+03  0.41800000000E+01 0. -1.
         -5    1    3    3    0  502 -0.62877882081E+01  0.58064406059E+01  0.28808607337E+02  0.30342367900E+02  0.41800000000E+01 0. -1.
        -11    1    1    2    0    0  0.45071631164E+02  0.12540346509E+02 -0.54985807348E+02  0.72195230009E+02  0.00000000000E+00 0. -1.
         11    1    1    2    0    0 -0.67102330697E+01 -0.75114957158E+01  0.34003666491E+02  0.35464054063E+02  0.00000000000E+00 0.  1.
</event>
<event>
 7    1  0.2690635E-009  0.9264203E+02  0.7561462E-02  0.1296577E+00
          1   -1    0    0  501    0  0.00000000000E+00  0.00000000000E+00  0.27415986185E+03  0.27415986185E+03  0.00000000000E+00 0. -1.
         -1   -1    0    0    0  501 -0.00000000000E+00 -0.00000000000E+00 -0.52976512145E+02  0.52976512145E+02  0.00000000000E+00 0.  1.
         25    2    1    2    0    0  0.11514360575E+02 -0.50982951031E+02  0.11362550100E+03  0.17688738057E+03  0.12508616683E+03 0.  0.
          5    1    3    3  502    0 -0.39547379732E+02 -0.10364487221E+02  0.10267754663E+03  0.11059642319E+03  0.41800000000E+01 0. -1.
         -5    1    3    3    0  502  0.51061740307E+02 -0.40618463811E+02  0.10947954362E+02  0.66290957379E+02  0.41800000000E+01 0. -1.
        -11    1    1    2    0    0  0.10150855820E+02  0.55714280976E+02  0.20209151009E+02  0.60129283739E+02  0.00000000000E+00 0.  1.
         11    1    1    2    0    0 -0.21665216395E+02 -0.47313299444E+01  0.87348697701E+02  0.90119709690E+02  0.00000000000E+00 0. -1.
</event>
<event>
 7    1  0.2690635E-009  0.9433031E+02  0.7561462E-02  0.1292692E+00
         -4   -1    0    0    0  501 -0.00000000000E+00  0.00000000000E+00  0.80972174180E+02  0.80972174180E+02  0.00000000000E+00 0.  1.
          4   -1    0    0  501    0  0.00000000000E+00 -0.00000000000E+00 -0.21343110922E+03  0.21343110922E+03  0.00000000000E+00 0. -1.
         25    2    1    2    0    0 -0.63421887317E+02  0.16768873800E+02 -0.35394301305E+02  0.14561538185E+03  0.12509017526E+03 0.  0.
          5    1    3    3  502    0 -0.38980250150E+02  0.49041699730E+02  0.29219836837E+02  0.69251855419E+02  0.41800000000E+01 0.  1.
         -5    1    3    3    0  502 -0.24441637167E+02 -0.32272825930E+02 -0.64614138142E+02  0.76363526430E+02  0.41800000000E+01 0.  1.
        -11    1    1    2    0    0  0.28097492244E+02  0.19768552317E+02 -0.91410426208E+02  0.97653114393E+02  0.00000000000E+00 0. -1.
         11    1    1    2    0    0  0.35324395073E+02 -0.36537426118E+02 -0.56542075217E+01  0.51134787154E+02  0.00000000000E+00 0.  1.
</event>
<event>
 7    1  0.2690635E-009  0.1028684E+03  0.7561462E-02  0.1274377E+00
          1   -1    0    0  501    0  0.00000000000E+00  0.00000000000E+00  0.14898282577E+03  0.14898282577E+03  0.00000000000E+00 0. -1.
         -1   -1    0    0    0  501 -0.00000000000E+00 -0.00000000000E+00 -0.13375387522E+03  0.13375387522E+03  0.00000000000E+00 0.  1.
         25    2    1    2    0    0  0.42381542162E+02  0.28631188770E+02 -0.66504890177E+02  0.15061266702E+03  0.12508131340E+03 0.  0.
          5    1    3    3  502    0 -0.30722808705E+02 -0.26923904626E+02 -0.33355231892E+02  0.52903983872E+02  0.41800000000E+01 0. -1.
         -5    1    3    3    0  502  0.73104350867E+02  0.55555093396E+02 -0.33149658285E+02  0.97708683147E+02  0.41800000000E+01 0. -1.
        -11    1    1    2    0    0 -0.51495101499E+02 -0.34441311676E+02  0.95983000398E+02  0.11423959819E+03  0.00000000000E+00 0. -1.
         11    1    1    2    0    0  0.91135593367E+01  0.58101229061E+01 -0.14249159671E+02  0.17884435784E+02  0.00000000000E+00 0.  1.
</event>
<event>
 7    1  0.2690635E-009  0.2887601E+03  0.7561462E-02  0.1090998E+00
          2   -1    0    0  501    0  0.00000000000E+00  0.00000000000E+00  0.65809705162E+03  0.65809705162E+03  0.00000000000E+00 0. -1.
         -2   -1    0    0    0  501 -0.00000000000E+00 -0.00000000000E+00 -0.15143618948E+03  0.15143618948E+03  0.00000000000E+00 0.  1.
         25    2    1    2    0    0 -0.75247083187E+02 -0.27250810921E+03  0.14905585610E+03  0.34320132890E+03  0.12508681310E+03 0.  0.
          5    1    3    3  502    0 -0.81276553239E+02 -0.27152411898E+03  0.16331168940E+03  0.32713820564E+03  0.41800000000E+01 0.  1.
         -5    1    3    3    0  502  0.60294700512E+01 -0.98399022641E+00 -0.14255833302E+02  0.16063123264E+02  0.41800000000E+01 0.  1.
        -11    1    1    2    0    0  0.72114384298E+02  0.17736793921E+03  0.17038919158E+03  0.25630518311E+03  0.00000000000E+00 0.  1.
         11    1    1    2    0    0  0.31326988890E+01  0.95140169999E+02  0.18721581446E+03  0.21002672909E+03  0.00000000000E+00 0. -1.
</event>
<event>
 7    1  0.2690635E-009  0.9837574E+02  0.7561462E-02  0.1283749E+00
          2   -1    0    0  501    0  0.00000000000E+00  0.00000000000E+00  0.51091359829E+03  0.51091359829E+03  0.00000000000E+00 0.  1.
         -2   -1    0    0    0  501 -0.00000000000E+00 -0.00000000000E+00 -0.25874522749E+02  0.25874522749E+02  0.00000000000E+00 0. -1.
         25    2    1    2    0    0 -0.39064926328E+01  0.36239503568E+02  0.29915607475E+03  0.32629782617E+03  0.12508937605E+03 0.  0.
          5    1    3    3  502    0  0.32940486985E+02  0.71432478476E+02  0.16882756997E+03  0.18630055139E+03  0.41800000000E+01 0.  1.
         -5    1    3    3    0  502 -0.36846979618E+02 -0.35192974909E+02  0.13032850478E+03  0.13999727479E+03  0.41800000000E+01 0.  1.
        -11    1    1    2    0    0 -0.23486386418E+02 -0.31118389973E+02  0.17699773094E+03  0.18124061713E+03  0.00000000000E+00 0.  1.
         11    1    1    2    0    0  0.27392879051E+02 -0.51211135948E+01  0.88852698502E+01  0.29249677732E+02  0.00000000000E+00 0. -1.
</event>
<event>
 7    1  0.2690635E-009  0.1499530E+03  0.7561462E-02  0.1200531E+00
          2   -1    0    0  501    0  0.00000000000E+00  0.00000000000E+00  0.10619067683E+03  0.10619067683E+03  0.00000000000E+00 0. -1.
         -2   -1    0    0    0  501 -0.00000000000E+00 -0.00000000000E+00 -0.30271307351E+03  0.30271307351E+03  0.00000000000E+00 0.  1.
         25    2    1    2    0    0  0.10177646612E+03 -0.65600440284E+02 -0.18804187376E+03  0.25625981965E+03  0.12508989592E+03 0.  0.
          5    1    3    3  502    0  0.11887696034E+03 -0.27401495797E+02 -0.17271114772E+03  0.21149275784E+03  0.41800000000E+01 0.  1.
         -5    1    3    3    0  502 -0.17100494220E+02 -0.38198944487E+02 -0.15330726034E+02  0.44767061811E+02  0.41800000000E+01 0.  1.
        -11    1    1    2    0    0 -0.99314831273E+02  0.35333188907E+02  0.24071674844E+02  0.10812638660E+03  0.00000000000E+00 0.  1.
         11    1    1    2    0    0 -0.24616348439E+01  0.30267251377E+02 -0.32552197765E+02  0.44517544085E+02  0.00000000000E+00 0. -1.
</event>
<event>
 7    1  0.2690635E-009  0.1590071E+03  0.7561462E-02  0.1189822E+00
          2   -1    0    0  501    0  0.00000000000E+00  0.00000000000E+00  0.94056454037E+03  0.94056454037E+03  0.00000000000E+00 0. -1.
         -2   -1    0    0    0  501 -0.00000000000E+00 -0.00000000000E+00 -0.32004326126E+02  0.32004326126E+02  0.00000000000E+00 0.  1.
         25    2    1    2    0    0  0.83528171941E+02 -0.90963585624E+02  0.32492502851E+03  0.36942560897E+03  0.12509067508E+03 0.  0.
          5    1    3    3  502    0  0.73697164914E+01  0.26897254061E+02  0.10328057788E+03  0.10706131497E+03  0.41800000000E+01 0.  1.
         -5    1    3    3    0  502  0.76158455450E+02 -0.11786083968E+03  0.22164445063E+03  0.26236429399E+03  0.41800000000E+01 0.  1.
        -11    1    1    2    0    0  0.17106574162E+02  0.19831731155E+02  0.15284468950E+03  0.15507234295E+03  0.00000000000E+00 0.  1.
         11    1    1    2    0    0 -0.10063474610E+03  0.71131854469E+02  0.43079049624E+03  0.44807091458E+03  0.00000000000E+00 0. -1.
</event>
<event>
 7    1  0.2690635E-009  0.9644550E+02  0.7561462E-02  0.1287953E+00
          1   -1    0    0  501    0  0.00000000000E+00  0.00000000000E+00  0.18378108828E+03  0.18378108828E+03  0.00000000000E+00 0. -1.
         -1   -1    0    0    0  501 -0.00000000000E+00 -0.00000000000E+00 -0.84599979059E+02  0.84599979059E+02  0.00000000000E+00 0.  1.
         25    2    1    2    0    0 -0.39744420624E+02  0.27288930048E+02  0.97908215329E+02  0.16600280093E+03  0.12508639659E+03 0.  0.
          5    1    3    3  502    0 -0.13862061598E+02  0.59708687626E+02  0.10694832915E+03  0.12333978125E+03  0.41800000000E+01 0.  1.
         -5    1    3    3    0  502 -0.25882359025E+02 -0.32419757577E+02 -0.90401138253E+01  0.42663019678E+02  0.41800000000E+01 0.  1.
        -11    1    1    2    0    0  0.62461834308E-01 -0.45919728816E+02 -0.23962241917E+02  0.51795892055E+02  0.00000000000E+00 0.  1.
         11    1    1    2    0    0  0.39681958789E+02  0.18630798768E+02  0.25235135803E+02  0.50582374352E+02  0.00000000000E+00 0. -1.
</event>
<event>
 7    1  0.2690635E-009  0.1412640E+03  0.7561462E-02  0.1211638E+00
          1   -1    0    0  501    0  0.00000000000E+00  0.00000000000E+00  0.19809451067E+03  0.19809451067E+03  0.00000000000E+00 0. -1.
         -1   -1    0    0    0  501 -0.00000000000E+00 -0.00000000000E+00 -0.16685440412E+03  0.16685440412E+03  0.00000000000E+00 0.  1.
         25    2    1    2    0    0  0.10604097834E+03  0.61249168460E+02  0.92486151964E+02  0.19798427202E+03  0.12509170211E+03 0.  0.
          5    1    3    3  502    0  0.55571396295E+02 -0.16637921064E+01 -0.20239176261E+02  0.59313109395E+02  0.41800000000E+01 0. -1.
         -5    1    3    3    0  502  0.50469582046E+02  0.62912960567E+02  0.11272532823E+03  0.13867116262E+03  0.41800000000E+01 0. -1.
        -11    1    1    2    0    0 -0.89041064325E+02 -0.80706339665E+02 -0.70727354657E+02  0.13944240064E+03  0.00000000000E+00 0.  1.
         11    1    1    2    0    0 -0.16999914016E+02  0.19457171205E+02  0.94813092433E+01  0.27522242147E+02  0.00000000000E+00 0. -1.
</event>
<event>
 7    1  0.2690635E-009  0.8966724E+02  0.7561462E-02  0.1303660E+00
         -2   -1    0    0    0  501 -0.00000000000E+00  0.00000000000E+00  0.22912892041E+02  0.22912892041E+02  0.00000000000E+00 0.  1.
          2   -1    0    0  501    0  0.00000000000E+00 -0.00000000000E+00 -0.60252891284E+03  0.60252891284E+03  0.00000000000E+00 0. -1.
         25    2    1    2    0    0  0.22043822416E+02 -0.27849526032E+02 -0.39982726382E+03  0.42043926810E+03  0.12508321655E+03 0.  0.
          5    1    3    3  502    0  0.25709107558E+02  0.29270706417E+02 -0.31850327361E+03  0.32090425389E+03  0.41800000000E+01 0.  1.
         -5    1    3    3    0  502 -0.36652851419E+01 -0.57120232449E+02 -0.81323990210E+02  0.99535014210E+02  0.41800000000E+01 0.  1.
        -11    1    1    2    0    0 -0.27699201655E+02 -0.20262554369E+02 -0.24060063522E+02  0.41913047355E+02  0.00000000000E+00 0.  1.
         11    1    1    2    0    0  0.56553792389E+01  0.48112080401E+02 -0.15572869346E+03  0.16308948943E+03  0.00000000000E+00 0. -1.
</event>
<event>
 7    1  0.2690635E-009  0.1070259E+03  0.7561462E-02  0.1266179E+00
         -1   -1    0    0    0  501 -0.00000000000E+00  0.00000000000E+00  0.23414564218E+03  0.23414564218E+03  0.00000000000E+00 0.  1.
          1   -1    0    0  501    0  0.00000000000E+00 -0.00000000000E+00 -0.63869190151E+02  0.63869190151E+02  0.00000000000E+00 0. -1.
         25    2    1    2    0    0 -0.35174318568E+02  0.33393000777E+02  0.59435317255E+02  0.14673947058E+03  0.12509032777E+03 0.  0.
          5    1    3    3  502    0  0.45803310770E+02  0.25233880935E+02  0.27281575219E+02  0.59130776851E+02  0.41800000000E+01 0.  1.
         -5    1    3    3    0  502 -0.80977629338E+02  0.81591198424E+01  0.32153742036E+02  0.87608693728E+02  0.41800000000E+01 0.  1.
        -11    1    1    2    0    0  0.49814637916E+02 -0.40141149132E+02  0.11753662059E+03  0.13381953215E+03  0.00000000000E+00 0.  1.
         11    1    1    2    0    0 -0.14640319348E+02  0.67481483555E+01 -0.66954858166E+01  0.17455829603E+02  0.00000000000E+00 0. -1.
</event>
<event>
 7    1  0.2690635E-009  0.1229005E+03  0.7561462E-02  0.1238387E+00
         -2   -1    0    0    0  501 -0.00000000000E+00  0.00000000000E+00  0.14752835668E+02  0.14752835668E+02  0.00000000000E+00 0.  1.
          2   -1    0    0  501    0  0.00000000000E+00 -0.00000000000E+00 -0.14612697282E+04  0.14612697282E+04  0.00000000000E+00 0. -1.
         25    2    1    2    0    0 -0.59473774509E+02  0.57477108823E+02 -0.10392771389E+04  0.10500394580E+04  0.12508055013E+03 0.  0.
          5    1    3    3  502    0  0.75941979631E+01 -0.18917620527E+02 -0.54511288911E+03  0.54550992886E+03  0.41800000000E+01 0.  1.
         -5    1    3    3    0  502 -0.67067972472E+02  0.76394729349E+02 -0.49416424983E+03  0.50452952918E+03  0.41800000000E+01 0.  1.
        -11    1    1    2    0    0  0.70077340708E+01 -0.69146167898E+02 -0.19398588233E+03  0.20606024220E+03  0.00000000000E+00 0. -1.
         11    1    1    2    0    0  0.52466040439E+02  0.11669059075E+02 -0.21325387121E+03  0.21992286358E+03  0.00000000000E+00 0.  1.
</event>
<event>
 7    1  0.2690635E-009  0.1949578E+03  0.7561462E-02  0.1154064E+00
          2   -1    0    0  501    0  0.00000000000E+00  0.00000000000E+00  0.16306874114E+04  0.16306874114E+04  0.00000000000E+00 0. -1.
         -2   -1    0    0    0  501 -0.00000000000E+00 -0.00000000000E+00 -0.33562794170E+02  0.33562794170E+02  0.00000000000E+00 0.  1.
         25    2    1    2    0    0 -0.17094184502E+03  0.46568759188E+02  0.12050088344E+04  0.12243709389E+04  0.12509253134E+03 0.  0.
          5    1    3    3  502    0 -0.22203305704E+02 -0.31357678473E+02  0.11085035304E+03  0.11739490599E+03  0.41800000000E+01 0. -1.
         -5    1    3    3    0  502 -0.14873853932E+03  0.77926437661E+02  0.10941584814E+04  0.11069760329E+04  0.41800000000E+01 0. -1.
        -11    1    1    2    0    0  0.45749148474E+02  0.84956439636E+01  0.37362411226E+02  0.59675039380E+02  0.00000000000E+00 0.  1.
         11    1    1    2    0    0  0.12519269655E+03 -0.55064403151E+02  0.35475337160E+03  0.38020422725E+03  0.00000000000E+00 0. -1.
</event>
<event>
 7    1  0.2690635E-009  0.1835072E+03  0.7561462E-02  0.1164451E+00
         -1   -1    0    0    0  501 -0.00000000000E+00  0.00000000000E+00  0.27578737085E+02  0.27578737085E+02  0.00000000000E+00 0. -1.
          1   -1    0    0  501    0  0.00000000000E+00 -0.00000000000E+00 -0.16191432474E+04  0.16191432474E+04  0.00000000000E+00 0.  1.
         25    2    1    2    0    0 -0.20139687387E+02  0.17571456333E+03 -0.68214297967E+03  0.71571434889E+03  0.12508704854E+03 0.  0.
          5    1    3    3  502    0  0.16464625129E+02  0.19273321888E+02 -0.30068190981E+03  0.30177744797E+03  0.41800000000E+01 0.  1.
         -5    1    3    3    0  502 -0.36604312516E+02  0.15644124144E+03 -0.38146106986E+03  0.41393690092E+03  0.41800000000E+01 0.  1.
        -11    1    1    2    0    0  0.83924014781E+01 -0.56138495269E+01 -0.62331434117E+01  0.11865908557E+02  0.00000000000E+00 0. -1.
         11    1    1    2    0    0  0.11747285909E+02 -0.17010071380E+03 -0.90318838726E+03  0.91914172707E+03  0.00000000000E+00 0.  1.
</event>
<event>
 7    1  0.3865400E-009  0.6289526E+02  0.7561462E-02  0.1386068E+00
         -2   -1    0    0    0  501 -0.00000000000E+00  0.00000000000E+00  0.28550841444E+02  0.28550841444E+02  0.00000000000E+00 0.  1.
          2   -1    0    0  501    0  0.00000000000E+00 -0.00000000000E+00 -0.70714733860E+03  0.70714733860E+03  0.00000000000E+00 0. -1.
         25    2    1    2    0    0  0.21101953473E+02  0.13879558710E+01 -0.60053318100E+03  0.61378764334E+03  0.12509176944E+03 0.  0.
          5    1    3    3  502    0  0.23010222358E+02 -0.39485960462E+02 -0.53115085755E+03  0.53312973775E+03  0.41800000000E+01 0.  1.
         -5    1    3    3    0  502 -0.19082688855E+01  0.40873916333E+02 -0.69382323451E+02  0.80657905589E+02  0.41800000000E+01 0.  1.
        -11    1    1    2    0    0 -0.17067263080E+02  0.14487428689E+02 -0.95440030338E+02  0.98030487349E+02  0.00000000000E+00 0. -1.
         11    1    1    2    0    0 -0.40346903925E+01 -0.15875384560E+02  0.17376714177E+02  0.23880049352E+02  0.00000000000E+00 0.  1.
</event>
<event>
 7    1  0.2690635E-009  0.1003841E+03  0.7561462E-02  0.1279490E+00
         -2   -1    0    0    0  501 -0.00000000000E+00  0.00000000000E+00  0.55277257830E+02  0.55277257830E+02  0.00000000000E+00 0.  1.
          2   -1    0    0  501    0  0.00000000000E+00 -0.00000000000E+00 -0.25214408796E+03  0.25214408796E+03  0.00000000000E+00 0. -1.
         25    2    1    2    0    0 -0.14278890760E+02 -0.21000449861E+02 -0.17353802767E+03  0.21542559481E+03  0.12509130360E+03 0.  0.
          5    1    3    3  502    0  0.46737046635E+02  0.13935400828E+02 -0.35534988661E+02  0.60487641246E+02  0.41800000000E+01 0. -1.
         -5    1    3    3    0  502 -0.61015937395E+02 -0.34935850689E+02 -0.13800303900E+03  0.15493795356E+03  0.41800000000E+01 0. -1.
        -11    1    1    2    0    0 -0.14001527328E+02 -0.24263077159E+02 -0.26457270905E+02  0.38532153644E+02  0.00000000000E+00 0. -1.
         11    1    1    2    0    0  0.28280418088E+02  0.45263527020E+02  0.31284684410E+01  0.53463597338E+02  0.00000000000E+00 0.  1.
</event>
<event>
 7    1  0.2690635E-009  0.1369528E+03  0.7561462E-02  0.1217489E+00
         -2   -1    0    0    0  501 -0.00000000000E+00  0.00000000000E+00  0.99887362501E+02  0.99887362501E+02  0.00000000000E+00 0.  1.
          2   -1    0    0  501    0  0.00000000000E+00 -0.00000000000E+00 -0.27974436527E+03  0.27974436527E+03  0.00000000000E+00 0. -1.
         25    2    1    2    0    0  0.59927298008E+02  0.11105562356E+03 -0.71879650846E+02  0.19167132574E+03  0.12508629155E+03 0.  0.
          5    1    3    3  502    0  0.59766943105E+02  0.53772144537E+02 -0.99458668035E+02  0.12795714151E+03  0.41800000000E+01 0.  1.
         -5    1    3    3    0  502  0.16035490228E+00  0.57283479021E+02  0.27579017190E+02  0.63714184226E+02  0.41800000000E+01 0.  1.
        -11    1    1    2    0    0 -0.29224704845E+02 -0.98586335450E+02 -0.11480968463E+03  0.15412531458E+03  0.00000000000E+00 0. -1.
         11    1    1    2    0    0 -0.30702593163E+02 -0.12469288107E+02  0.68323327031E+01  0.33835087454E+02  0.00000000000E+00 0.  1.
</event>
<event>
 7    1  0.2690635E-009  0.7273054E+02  0.7561462E-02  0.1351046E+00
          1   -1    0    0  501    0  0.00000000000E+00  0.00000000000E+00  0.44359909492E+03  0.44359909492E+03  0.00000000000E+00 0. -1.
         -1   -1    0    0    0  501 -0.00000000000E+00 -0.00000000000E+00 -0.30505859034E+02  0.30505859034E+02  0.00000000000E+00 0.  1.
         25    2    1    2    0    0 -0.49166104136E+01 -0.31834829533E+02  0.17766620561E+03  0.21966027976E+03  0.12509088079E+03 0.  0.
          5    1    3    3  502    0 -0.39486526494E+01  0.83018000842E+01  0.17898864756E+03  0.17927331117E+03  0.41800000000E+01 0.  1.
         -5    1    3    3    0  502 -0.96795776420E+00 -0.40136629617E+02 -0.13224419472E+01  0.40386968590E+02  0.41800000000E+01 0.  1.
        -11    1    1    2    0    0  0.42349711967E+02  0.38192666034E+02  0.16266117723E+03  0.17236831617E+03  0.00000000000E+00 0.  1.
         11    1    1    2    0    0 -0.37433101553E+02 -0.63578365018E+01  0.72765853050E+02  0.82076358027E+02  0.00000000000E+00 0. -1.
</event>
<event>
 7    1  0.2690635E-009  0.6749364E+02  0.7561462E-02  0.1368830E+00
          1   -1    0    0  501    0  0.00000000000E+00  0.00000000000E+00  0.10929064160E+04  0.10929064160E+04  0.00000000000E+00 0.  1.
         -1   -1    0    0    0  501 -0.00000000000E+00 -0.00000000000E+00 -0.29293661817E+02  0.29293661817E+02  0.00000000000E+00 0. -1.
         25    2    1    2    0    0 -0.12448940910E+02 -0.21902413279E+02  0.10004602843E+04  0.10085653724E+04  0.12509451667E+03 0.  0.
          5    1    3    3  502    0  0.16823323900E+02 -0.29486746595E+02  0.73141886047E+02  0.80744661411E+02  0.41800000000E+01 0.  1.
         -5    1    3    3    0  502 -0.29272264810E+02  0.75843333160E+01  0.92731839824E+03  0.92782071097E+03  0.41800000000E+01 0.  1.
        -11    1    1    2    0    0  0.12545127314E+02 -0.22549430405E+02 -0.10295791032E+02  0.27782374698E+02  0.00000000000E+00 0. -1.
         11    1    1    2    0    0 -0.96186403275E-01  0.44451843684E+02  0.73448260919E+02  0.85852330724E+02  0.00000000000E+00 0.  1.
</event>
<event>
 7    1  0.2690635E-009  0.1349021E+03  0.7561462E-02  0.1220358E+00
         -3   -1    0    0    0  501 -0.00000000000E+00  0.00000000000E+00  0.65822616281E+03  0.65822616281E+03  0.00000000000E+00 0.  1.
          3   -1    0    0  501    0  0.00000000000E+00 -0.00000000000E+00 -0.31654524586E+02  0.31654524586E+02  0.00000000000E+00 0. -1.
         25    2    1    2    0    0  0.64973052584E+02  0.67356664338E+02  0.30042638798E+03  0.33861708161E+03  0.12508835106E+03 0.  0.
          5    1    3    3  502    0  0.93805241327E+02  0.79416661733E+02  0.21691198558E+03  0.24934857399E+03  0.41800000000E+01 0.  1.
         -5    1    3    3    0  502 -0.28832188743E+02 -0.12059997394E+02  0.83514402403E+02  0.89268507625E+02  0.41800000000E+01 0.  1.
        -11    1    1    2    0    0 -0.71894468826E+02 -0.31015348585E+02  0.28663632367E+03  0.29713826502E+03  0.00000000000E+00 0. -1.
         11    1    1    2    0    0  0.69214162422E+01 -0.36341315754E+02  0.39508926574E+02  0.54125340761E+02  0.00000000000E+00 0.  1.
</event>
<event>
 7    1  0.2690635E-009  0.9766564E+02  0.7561462E-02  0.1285283E+00
          2   -1    0    0  501    0  0.00000000000E+00  0.00000000000E+00  0.44115888442E+03  0.44115888442E+03  0.00000000000E+00 0.  1.
         -2   -1    0    0    0  501 -0.00000000000E+00 -0.00000000000E+00 -0.29895521672E+02  0.29895521672E+02  0.00000000000E+00 0. -1.
         25    2    1    2    0    0  0.87754566554E+01  0.23595901922E+00  0.15858122091E+03  0.20217314404E+03  0.12509561234E+03 0.  0.
          5    1    3    3  502    0  0.28169431940E+01 -0.51443282278E+02  0.22400913080E+02  0.56334889432E+02  0.41800000000E+01 0.  1.
         -5    1    3    3    0  502  0.59585134614E+01  0.51679241298E+02  0.13618030783E+03  0.14583825460E+03  0.41800000000E+01 0.  1.
        -11    1    1    2    0    0  0.24044054294E+02 -0.35757869205E+02  0.13261937298E+03  0.13944403840E+03  0.00000000000E+00 0. -1.
         11    1    1    2    0    0 -0.32819510949E+02  0.35521910186E+02  0.12006276886E+03  0.12943722366E+03  0.00000000000E+00 0.  1.
</event>
<event>
 7    1  0.2690635E-009  0.9488085E+02  0.7561462E-02  0.1291445E+00
         -1   -1    0    0    0  501 -0.00000000000E+00  0.00000000000E+00  0.27645460931E+03  0.27645460931E+03  0.00000000000E+00 0.  1.
          1   -1    0    0  501    0  0.00000000000E+00 -0.00000000000E+00 -0.49535397595E+02  0.49535397595E+02  0.00000000000E+00 0. -1.
         25    2    1    2    0    0 -0.33438747699E+02 -0.96736870820E+01  0.91340555091E+02  0.15875236806E+03  0.12508991682E+03 0.  0.
          5    1    3    3  502    0 -0.58889944312E+02 -0.53027882292E+02  0.53907560999E+02  0.95934766244E+02  0.41800000000E+01 0. -1.
         -5    1    3    3    0  502  0.25451196613E+02  0.43354195210E+02  0.37432994092E+02  0.62817601817E+02  0.41800000000E+01 0. -1.
        -11    1    1    2    0    0 -0.12734382761E+02 -0.22652099936E+00 -0.87022152235E+01  0.15425445403E+02  0.00000000000E+00 0. -1.
         11    1    1    2    0    0  0.46173130460E+02  0.99002080814E+01  0.14428087184E+03  0.15181219344E+03  0.00000000000E+00 0.  1.
</event>
<event>
 7    1  0.2690635E-009  0.9338860E+02  0.7561462E-02  0.1294847E+00
         -1   -1    0    0    0  501 -0.00000000000E+00  0.00000000000E+00  0.85836046396E+02  0.85836046396E+02  0.00000000000E+00 0.  1.
          1   -1    0    0  501    0  0.00000000000E+00 -0.00000000000E+00 -0.18390111282E+03  0.18390111282E+03  0.00000000000E+00 0. -1.
         25    2    1    2    0    0 -0.60524464092E+02 -0.18859690285E+02 -0.55208091820E+02  0.15071212206E+03  0.12508921482E+03 0.  0.
          5    1    3    3  502    0 -0.72885375412E+02 -0.24106261665E+02 -0.86907175083E+02  0.11603326799E+03  0.41800000000E+01 0.  1.
         -5    1    3    3    0  502  0.12360911320E+02  0.52465713806E+01  0.31699083263E+02  0.34678854071E+02  0.41800000000E+01 0.  1.
        -11    1    1    2    0    0  0.68748348268E+02 -0.66113127279E+01 -0.56270281491E+02  0.89086415489E+02  0.00000000000E+00 0. -1.
         11    1    1    2    0    0 -0.82238841766E+01  0.25471003013E+02  0.13413306887E+02  0.29938621662E+02  0.00000000000E+00 0.  1.
</event>
<event>
 7    1  0.2690635E-009  0.1276648E+03  0.7561462E-02  0.1230962E+00
          2   -1    0    0  501    0  0.00000000000E+00  0.00000000000E+00  0.99469977845E+02  0.99469977845E+02  0.00000000000E+00 0. -1.
         -2   -1    0    0    0  501 -0.00000000000E+00 -0.00000000000E+00 -0.20910942177E+03  0.20910942177E+03  0.00000000000E+00 0.  1.
         25    2    1    2    0    0 -0.76736307771E+01 -0.71380392980E+02  0.65171791517E+01  0.14437307037E+03  0.12508822771E+03 0.  0.
          5    1    3    3  502    0 -0.64394716049E+02 -0.36516812028E+02  0.18915422785E+02  0.76520733366E+02  0.41800000000E+01 0. -1.
         -5    1    3    3    0  502  0.56721085272E+02 -0.34863580952E+02 -0.12398243634E+02  0.67852337001E+02  0.41800000000E+01 0. -1.
        -11    1    1    2    0    0 -0.13354105222E+02 -0.18135196620E+02 -0.34674009086E+02  0.41346153253E+02  0.00000000000E+00 0. -1.
         11    1    1    2    0    0  0.21027735999E+02  0.89515589600E+02 -0.81482613990E+02  0.12286017599E+03  0.00000000000E+00 0.  1.
</event>
<event>
 7    1  0.2690635E-009  0.9839469E+02  0.7561462E-02  0.1283708E+00
          2   -1    0    0  501    0  0.00000000000E+00  0.00000000000E+00  0.40972531497E+02  0.40972531497E+02  0.00000000000E+00 0. -1.
         -2   -1    0    0    0  501 -0.00000000000E+00 -0.00000000000E+00 -0.36472231292E+03  0.36472231292E+03  0.00000000000E+00 0.  1.
         25    2    1    2    0    0 -0.20362262137E+02  0.50322166963E+02 -0.16368681218E+03  0.21304477776E+03  0.12509101743E+03 0.  0.
          5    1    3    3  502    0 -0.21397340876E+02 -0.27181150051E+02 -0.11786197702E+03  0.12290475638E+03  0.41800000000E+01 0. -1.
         -5    1    3    3    0  502  0.10350787387E+01  0.77503317014E+02 -0.45824835160E+02  0.90140021376E+02  0.41800000000E+01 0. -1.
        -11    1    1    2    0    0  0.29894106044E+01  0.15736115158E+02  0.26007202881E+01  0.16227311609E+02  0.00000000000E+00 0. -1.
         11    1    1    2    0    0  0.17372851532E+02 -0.66058282121E+02 -0.16266368953E+03  0.17642275505E+03  0.00000000000E+00 0.  1.
</event>
<event>
 7    1  0.2690635E-009  0.9600554E+02  0.7561462E-02  0.1288927E+00
          1   -1    0    0  501    0  0.00000000000E+00  0.00000000000E+00  0.34763603747E+03  0.34763603747E+03  0.00000000000E+00 0. -1.
         -1   -1    0    0    0  501 -0.00000000000E+00 -0.00000000000E+00 -0.63862328069E+02  0.63862328069E+02  0.00000000000E+00 0.  1.
         25    2    1    2    0    0  0.70845703969E+02 -0.43066330769E+02  0.22446984236E+03  0.27001414025E+03  0.12508838153E+03 0.  0.
          5    1    3    3  502    0  0.91583833275E+01 -0.41887537318E+02  0.19819618778E+03  0.20282416774E+03  0.41800000000E+01 0. -1.
         -5    1    3    3    0  502  0.61687320641E+02 -0.11787934511E+01  0.26273654572E+02  0.67189972514E+02  0.41800000000E+01 0. -1.
        -11    1    1    2    0    0 -0.63679574033E+02  0.26373937358E+02 -0.10172980805E+02  0.69671818257E+02  0.00000000000E+00 0.  1.
         11    1    1    2    0    0 -0.71661299359E+01  0.16692393411E+02  0.69476847846E+02  0.71812407025E+02  0.00000000000E+00 0. -1.
</event>
<event>
 7    1  0.2690635E-009  0.9035823E+02  0.7561462E-02  0.1301987E+00
          2   -1    0    0  501    0  0.00000000000E+00  0.00000000000E+00  0.22138512134E+03  0.22138512134E+03  0.00000000000E+00 0. -1.
         -2   -1    0    0    0  501 -0.00000000000E+00 -0.00000000000E+00 -0.48236800710E+02  0.48236800710E+02  0.00000000000E+00 0.  1.
         25    2    1    2    0    0  0.23756707213E+01 -0.59018812560E+01  0.13341562727E+03  0.18299550701E+03  0.12508856851E+03 0.  0.
          5    1    3    3  502    0  0.62840057865E+02 -0.26629658301E+01  0.82147272716E+02  0.10354521271E+03  0.41800000000E+01 0.  1.
         -5    1    3    3    0  502 -0.60464387144E+02 -0.32389154259E+01  0.51268354555E+02  0.79450294302E+02  0.41800000000E+01 0.  1.
        -11    1    1    2    0    0 -0.21554569989E+02 -0.16755681346E+02  0.48515366166E+02  0.55669498821E+02  0.00000000000E+00 0. -1.
         11    1    1    2    0    0  0.19178899268E+02  0.22657562602E+02 -0.87826728096E+01  0.30956916221E+02  0.00000000000E+00 0.  1.
</event>
<event>
 7    1  0.2690635E-009  0.1272118E+03  0.7561462E-02  0.1231653E+00
         -3   -1    0    0    0  501 -0.00000000000E+00  0.00000000000E+00  0.19911319690E+03  0.19911319690E+03  0.00000000000E+00 0.  1.
          3   -1    0    0  501    0  0.00000000000E+00 -0.00000000000E+00 -0.11793420427E+03  0.11793420427E+03  0.00000000000E+00 0. -1.
         25    2    1    2    0    0  0.23459891650E+02  0.94232783121E+02  0.92132955483E+02  0.18320373434E+03  0.12507974600E+03 0.  0.
          5    1    3    3  502    0 -0.14274824008E+02  0.11068732105E+03  0.44795372583E+02  0.12033100783E+03  0.41800000000E+01 0.  1.
         -5    1    3    3    0  502  0.37734715658E+02 -0.16454537925E+02  0.47337582900E+02  0.62872726511E+02  0.41800000000E+01 0.  1.
        -11    1    1    2    0    0  0.63552289666E+00 -0.57065628345E+02  0.37428198831E+02  0.68247783081E+02  0.00000000000E+00 0.  1.
         11    1    1    2    0    0 -0.24095414546E+02 -0.37167154776E+02 -0.48382161682E+02  0.65595883753E+02  0.00000000000E+00 0. -1.
</event>
<event>
 7    1  0.2690635E-009  0.1030578E+03  0.7561462E-02  0.1273994E+00
          1   -1    0    0  501    0  0.00000000000E+00  0.00000000000E+00  0.10847277238E+03  0.10847277238E+03  0.00000000000E+00 0. -1.
         -1   -1    0    0    0  501 -0.00000000000E+00 -0.00000000000E+00 -0.13445680909E+03  0.13445680909E+03  0.00000000000E+00 0.  1.
         25    2    1    2    0    0  0.56653987090E+02  0.21228996252E+02 -0.97103864812E+01  0.13928529523E+03  0.12508300175E+03 0.  0.
          5    1    3    3  502    0 -0.28342982051E+02  0.41222592944E+02 -0.12825254439E+02  0.51812994046E+02  0.41800000000E+01 0. -1.
         -5    1    3    3    0  502  0.84996969140E+02 -0.19993596692E+02  0.31148679579E+01  0.87472301182E+02  0.41800000000E+01 0. -1.
        -11    1    1    2    0    0 -0.26453913361E+01 -0.13716885249E+02 -0.41335415077E+02  0.43632185091E+02  0.00000000000E+00 0.  1.
         11    1    1    2    0    0 -0.54008595753E+02 -0.75121110030E+01  0.25061764851E+02  0.60012101150E+02  0.00000000000E+00 0. -1.
</event>
<event>
 7    1  0.2690635E-009  0.1258289E+03  0.7561462E-02  0.1233779E+00
         -1   -1    0    0    0  501 -0.00000000000E+00  0.00000000000E+00  0.20084696818E+03  0.20084696818E+03  0.00000000000E+00 0.  1.
          1   -1    0    0  501    0  0.00000000000E+00 -0.00000000000E+00 -0.11930760030E+03  0.11930760030E+03  0.00000000000E+00 0. -1.
         25    2    1    2    0    0  0.60781840133E+02  0.58599156887E+02  0.11698970970E+03  0.19094651490E+03  0.12508271702E+03 0.  0.
          5    1    3    3  502    0  0.79998127454E+02  0.73317062828E+02  0.12455287813E+03  0.16524522368E+03  0.41800000000E+01 0.  1.
         -5    1    3    3    0  502 -0.19216287321E+02 -0.14717905941E+02 -0.75631684284E+01  0.25701291220E+02  0.41800000000E+01 0.  1.
        -11    1    1    2    0    0 -0.80437148297E+02 -0.57383957234E+02 -0.43466446330E+02  0.10794621499E+03  0.00000000000E+00 0. -1.
         11    1    1    2    0    0  0.19655308163E+02 -0.12151996529E+01  0.80161045075E+01  0.21261838600E+02  0.00000000000E+00 0.  1.
</event>
<event>
 7    1  0.2690635E-009  0.1435730E+03  0.7561462E-02  0.1208601E+00
          2   -1    0    0  501    0  0.00000000000E+00  0.00000000000E+00  0.22181438630E+04  0.22181438630E+04  0.00000000000E+00 0.  1.
         -2   -1    0    0    0  501 -0.00000000000E+00 -0.00000000000E+00 -0.30799467210E+02  0.30799467210E+02  0.00000000000E+00 0. -1.
         25    2    1    2    0    0  0.23955716235E+02  0.13137764984E+03  0.19688899908E+04  0.19773743668E+04  0.12509047777E+03 0.  0.
          5    1    3    3  502    0  0.36778982120E+02  0.40906281470E+02  0.24830739587E+03  0.25436205030E+03  0.41800000000E+01 0. -1.
         -5    1    3    3    0  502 -0.12823265886E+02  0.90471368365E+02  0.17205825949E+04  0.17230123165E+04  0.41800000000E+01 0. -1.
        -11    1    1    2    0    0 -0.21024267919E+02 -0.19765855799E+02  0.11767636705E+03  0.12116285016E+03  0.00000000000E+00 0.  1.
         11    1    1    2    0    0 -0.29314483154E+01 -0.11161179404E+03  0.10077803798E+03  0.15040611323E+03  0.00000000000E+00 0. -1.
</event>
<event>
 7    1  0.2690635E-009  0.1695775E+03  0.7561462E-02  0.1178289E+00
         -1   -1    0    0    0  501 -0.00000000000E+00  0.00000000000E+00  0.11496504442E+03  0.11496504442E+03  0.00000000000E+00 0.  1.
          1   -1    0    0  501    0  0.00000000000E+00 -0.00000000000E+00 -0.35123632653E+03  0.35123632653E+03  0.00000000000E+00 0. -1.
         25    2    1    2    0    0  0.13911941137E+03  0.15016948481E+02 -0.13820138396E+02  0.18819608894E+03  0.12508817811E+03 0.  0.
          5    1    3    3  502    0  0.20691093476E+02 -0.37593068211E+02  0.28646065812E+02  0.51763207139E+02  0.41800000000E+01 0.  1.
         -5    1    3    3    0  502  0.11842831790E+03  0.52610016692E+02 -0.42466204208E+02  0.13643288180E+03  0.41800000000E+01 0.  1.
        -11    1    1    2    0    0 -0.98192179461E+01  0.28353086514E+02 -0.47403497194E+02  0.56101747764E+02  0.00000000000E+00 0.  1.
         11    1    1    2    0    0 -0.12930019343E+03 -0.43370034995E+02 -0.17504764652E+03  0.22190353424E+03  0.00000000000E+00 0. -1.
</event>
<event>
 7    1  0.2690635E-009  0.1618074E+03  0.7561462E-02  0.1186671E+00
          2   -1    0    0  501    0  0.00000000000E+00  0.00000000000E+00  0.16170819894E+04  0.16170819894E+04  0.00000000000E+00 0. -1.
         -2   -1    0    0    0  501 -0.00000000000E+00 -0.00000000000E+00 -0.21277645571E+02  0.21277645571E+02  0.00000000000E+00 0.  1.
         25    2    1    2    0    0 -0.24375596647E+02 -0.14783430026E+03  0.91535739282E+03  0.93593603691E+03  0.12509180050E+03 0.  0.
          5    1    3    3  502    0 -0.68185115063E+01  0.10831719269E+01 -0.29629561700E+00  0.80762337557E+01  0.41800000000E+01 0. -1.
         -5    1    3    3    0  502 -0.17557085141E+02 -0.14891747218E+03  0.91565368844E+03  0.92785980315E+03  0.41800000000E+01 0. -1.
        -11    1    1    2    0    0  0.49265822954E+02  0.90698043942E+02  0.52306359834E+03  0.53314987049E+03  0.00000000000E+00 0. -1.
         11    1    1    2    0    0 -0.24890226307E+02  0.57136256316E+02  0.15738335266E+03  0.16927372757E+03  0.00000000000E+00 0.  1.
</event>
<event>
 7    1  0.2690635E-009  0.1120152E+03  0.7561462E-02  0.1256883E+00
          2   -1    0    0  501    0  0.00000000000E+00  0.00000000000E+00  0.35959136599E+03  0.35959136599E+03  0.00000000000E+00 0. -1.
         -2   -1    0    0    0  501 -0.00000000000E+00 -0.00000000000E+00 -0.47265394861E+02  0.47265394861E+02  0.00000000000E+00 0.  1.
         25    2    1    2    0    0  0.65411502180E+02 -0.11055071125E+02  0.21711944174E+03  0.25920948975E+03  0.12509128018E+03 0.  0.
          5    1    3    3  502    0  0.14207177090E+02 -0.56862779859E+02  0.45547253898E+02  0.74345439348E+02  0.41800000000E+01 0. -1.
         -5    1    3    3    0  502  0.51204325090E+02  0.45807708735E+02  0.17157218785E+03  0.18486405040E+03  0.41800000000E+01 0. -1.
        -11    1    1    2    0    0  0.15164537487E+02  0.30387226303E+01 -0.72292733244E+01  0.17072182790E+02  0.00000000000E+00 0.  1.
         11    1    1    2    0    0 -0.80576039667E+02  0.80163484945E+01  0.10243580271E+03  0.13057508831E+03  0.00000000000E+00 0. -1.
</event>
<event>
 7    1  0.2690635E-009  0.8665852E+02  0.7561462E-02  0.1311151E+00
         -2   -1    0    0    0  501 -0.00000000000E+00  0.00000000000E+00  0.53366092648E+02  0.53366092648E+02  0.00000000000E+00 0.  1.
          2   -1    0    0  501    0  0.00000000000E+00 -0.00000000000E+00 -0.26099164838E+03  0.26099164838E+03  0.00000000000E+00 0. -1.
         25    2    1    2    0    0  0.14642029026E+02  0.42153492380E+02 -0.10033876759E+03  0.16645671314E+03  0.12509461673E+03 0.  0.
          5    1    3    3  502    0  0.37696232934E+02  0.53983237424E+02 -0.34381542014E+01  0.66064280852E+02  0.41800000000E+01 0. -1.
         -5    1    3    3    0  502 -0.23054203908E+02 -0.11829745044E+02 -0.96900613385E+02  0.10039243228E+03  0.41800000000E+01 0. -1.
        -11    1    1    2    0    0  0.10277609414E+02 -0.52949289547E+02 -0.10801549836E+03  0.12073360926E+03  0.00000000000E+00 0. -1.
         11    1    1    2    0    0 -0.24919638441E+02  0.10795797167E+02  0.72871021623E+00  0.27167418631E+02  0.00000000000E+00 0.  1.
</event>
<event>
 7    1  0.2690635E-009  0.1791403E+03  0.7561462E-02  0.1168638E+00
          2   -1    0    0  501    0  0.00000000000E+00  0.00000000000E+00  0.20445002905E+03  0.20445002905E+03  0.00000000000E+00 0. -1.
         -2   -1    0    0    0  501 -0.00000000000E+00 -0.00000000000E+00 -0.23513511782E+03  0.23513511782E+03  0.00000000000E+00 0.  1.
         25    2    1    2    0    0  0.45347804975E+02  0.14331091144E+03  0.10106322271E+03  0.22012551556E+03  0.12508807642E+03 0.  0.
          5    1    3    3  502    0 -0.22224362820E+01  0.14498063416E+03  0.59467932196E+02  0.15677445859E+03  0.41800000000E+01 0.  1.
         -5    1    3    3    0  502  0.47570241257E+02 -0.16697227181E+01  0.41595290513E+02  0.63351056977E+02  0.41800000000E+01 0.  1.
        -11    1    1    2    0    0 -0.55701738715E+02 -0.61495990513E+02 -0.10269200220E+03  0.13202305806E+03  0.00000000000E+00 0. -1.
         11    1    1    2    0    0  0.10353933741E+02 -0.81814920931E+02 -0.29056309288E+02  0.87436573242E+02  0.00000000000E+00 0.  1.
</event>
<event>
 7    1  0.2690635E-009  0.8627802E+02  0.7561462E-02  0.1312124E+00
         -2   -1    0    0    0  501 -0.00000000000E+00  0.00000000000E+00  0.80849349785E+02  0.80849349785E+02  0.00000000000E+00 0.  1.
          2   -1    0    0  501    0  0.00000000000E+00 -0.00000000000E+00 -0.15621992098E+03  0.15621992098E+03  0.00000000000E+00 0. -1.
         25    2    1    2    0    0  0.19601278356E+02  0.23323342068E+02 -0.43712709812E+02  0.13597056072E+03  0.12509597909E+03 0.  0.
          5    1    3    3  502    0 -0.37651003114E+02 -0.76204682590E+01  0.21100767712E+02  0.44027086777E+02  0.41800000000E+01 0.  1.
         -5    1    3    3    0  502  0.57252281471E+02  0.30943810327E+02 -0.64813477525E+02  0.91943473939E+02  0.41800000000E+01 0.  1.
        -11    1    1    2    0    0 -0.41973923091E+02 -0.12170275075E+02 -0.52671572849E+02  0.68441364696E+02  0.00000000000E+00 0. -1.
         11    1    1    2    0    0  0.22372644735E+02 -0.11153066993E+02  0.21013711468E+02  0.32657345352E+02  0.00000000000E+00 0.  1.
</event>
<event>
 7    1  0.2690635E-009  0.1165961E+03  0.7561462E-02  0.1248820E+00
          1   -1    0    0  501    0  0.00000000000E+00  0.00000000000E+00  0.11405299075E+03  0.11405299075E+03  0.00000000000E+00 0. -1.
         -1   -1    0    0    0  501 -0.00000000000E+00 -0.00000000000E+00 -0.17188960526E+03  0.17188960526E+03  0.00000000000E+00 0.  1.
         25    2    1    2    0    0  0.40834149358E+02 -0.77287215642E+02 -0.14468834370E+02  0.15330234433E+03  0.12510603564E+03 0.  0.
          5    1    3    3  502    0  0.41371136123E+02  0.38560232312E-01  0.40727136887E+02  0.58204333773E+02  0.41800000000E+01 0.  1.
         -5    1    3    3    0  502 -0.53698676540E+00 -0.77325775874E+02 -0.55195971257E+02  0.95098010559E+02  0.41800000000E+01 0.  1.
        -11    1    1    2    0    0 -0.50538480057E+02  0.17322023579E+02 -0.47862652924E+02  0.71728822744E+02  0.00000000000E+00 0.  1.
         11    1    1    2    0    0  0.97043306992E+01  0.59965192062E+02  0.44948727764E+01  0.60911428933E+02  0.00000000000E+00 0. -1.
</event>
<event>
 7    1  0.2690635E-009  0.8643151E+02  0.7561462E-02  0.1311731E+00
          2   -1    0    0  501    0  0.00000000000E+00  0.00000000000E+00  0.61902569610E+02  0.61902569610E+02  0.00000000000E+00 0.  1.
         -2   -1    0    0    0  501 -0.00000000000E+00 -0.00000000000E+00 -0.25687896000E+03  0.25687896000E+03  0.00000000000E+00 0. -1.
         25    2    1    2    0    0 -0.25207244160E+01  0.42600101158E+02 -0.17077746981E+03  0.21594803317E+03  0.12508991233E+03 0.  0.
          5    1    3    3  502    0 -0.66697013472E+01 -0.25702548761E+02  0.49395921870E+01  0.27330896434E+02  0.41800000000E+01 0.  1.
         -5    1    3    3    0  502  0.41489769312E+01  0.68302649919E+02 -0.17571706200E+03  0.18861713674E+03  0.41800000000E+01 0.  1.
        -11    1    1    2    0    0  0.33281098167E+02 -0.16813910943E+02  0.20668176495E+02  0.42632295458E+02  0.00000000000E+00 0.  1.
         11    1    1    2    0    0 -0.30760373751E+02 -0.25786190215E+02 -0.44867097072E+02  0.60201200974E+02  0.00000000000E+00 0. -1.
</event>
<event>
 7    1  0.2690635E-009  0.9819881E+02  0.7561462E-02  0.1284130E+00
         -2   -1    0    0    0  501 -0.00000000000E+00  0.00000000000E+00  0.10282062506E+02  0.10282062506E+02  0.00000000000E+00 0.  1.
          2   -1    0    0  501    0  0.00000000000E+00 -0.00000000000E+00 -0.16059010849E+04  0.16059010849E+04  0.00000000000E+00 0. -1.
         25    2    1    2    0    0  0.38288690334E+02  0.53988187713E+02 -0.10018379581E+04  0.10117842954E+04  0.12508963887E+03 0.  0.
          5    1    3    3  502    0 -0.79749218156E+01  0.30422735218E+02 -0.86162439066E+03  0.86220833050E+03  0.41800000000E+01 0.  1.
         -5    1    3    3    0  502  0.46263612150E+02  0.23565452495E+02 -0.14021356748E+03  0.14957596486E+03  0.41800000000E+01 0.  1.
        -11    1    1    2    0    0 -0.49870989367E+02 -0.74132433321E+02 -0.45567621736E+03  0.46435282741E+03  0.00000000000E+00 0.  1.
         11    1    1    2    0    0  0.11582299033E+02  0.20144245607E+02 -0.13810484694E+03  0.14004602469E+03  0.00000000000E+00 0. -1.
</event>
<event>
 7    1  0.2690635E-009  0.1183989E+03  0.7561462E-02  0.1245762E+00
          2   -1    0    0  501    0  0.00000000000E+00  0.00000000000E+00  0.38416469380E+03  0.38416469380E+03  0.00000000000E+00 0. -1.
         -2   -1    0    0    0  501 -0.00000000000E+00 -0.00000000000E+00 -0.37442729246E+02  0.37442729246E+02  0.00000000000E+00 0.  1.
         25    2    1    2    0    0 -0.37912367066E+02  0.34215337176E+02  0.20624251429E+03  0.24655926710E+03  0.12508981020E+03 0.  0.
          5    1    3    3  502    0  0.40158514632E+02  0.38921722000E+02  0.73804587648E+02  0.92694100669E+02  0.41800000000E+01 0. -1.
         -5    1    3    3    0  502 -0.78070881699E+02 -0.47063848236E+01  0.13243792664E+03  0.15386516643E+03  0.41800000000E+01 0. -1.
        -11    1    1    2    0    0 -0.20497462762E+02 -0.38718504113E+02  0.43432954135E+02  0.61690275127E+02  0.00000000000E+00 0.  1.
         11    1    1    2    0    0  0.58409829828E+02  0.45031669365E+01  0.97046496132E+02  0.11335788082E+03  0.00000000000E+00 0. -1.
</event>
<event>
 7    1  0.2690635E-009  0.1090038E+03  0.7561462E-02  0.1262426E+00
         -1   -1    0    0    0  501 -0.00000000000E+00  0.00000000000E+00  0.29775500465E+03  0.29775500465E+03  0.00000000000E+00 0.  1.
          1   -1    0    0  501    0  0.00000000000E+00 -0.00000000000E+00 -0.49472652047E+02  0.49472652047E+02  0.00000000000E+00 0. -1.
         25    2    1    2    0    0 -0.18644551848E+02  0.50346897902E+02  0.15558454147E+03  0.20672618484E+03  0.12508691582E+03 0.  0.
          5    1    3    3  502    0 -0.65558403752E+02  0.86017060883E+01  0.11214718174E+03  0.13025496698E+03  0.41800000000E+01 0.  1.
         -5    1    3    3    0  502  0.46913851904E+02  0.41745191814E+02  0.43437359731E+02  0.76471217857E+02  0.41800000000E+01 0.  1.
        -11    1    1    2    0    0  0.45821299029E+02 -0.34519285035E+02  0.92742068881E+02  0.10905165668E+03  0.00000000000E+00 0.  1.
         11    1    1    2    0    0 -0.27176747181E+02 -0.15827612868E+02 -0.44257748177E-01  0.31449815185E+02  0.00000000000E+00 0. -1.
</event>
<event>
 7    1  0.2690635E-009  0.1766189E+03  0.7561462E-02  0.1171116E+00
         -1   -1    0    0    0  501 -0.00000000000E+00  0.00000000000E+00  0.10688534026E+03  0.10688534026E+03  0.00000000000E+00 0.  1.
          1   -1    0    0  501    0  0.00000000000E+00 -0.00000000000E+00 -0.50620522931E+03  0.50620522931E+03  0.00000000000E+00 0. -1.
         25    2    1    2    0    0  0.65892160558E+02  0.14945925020E+03 -0.42413253608E+02  0.21006449199E+03  0.12509341478E+03 0.  0.
          5    1    3    3  502    0  0.63459204273E+01  0.78868575409E+02  0.37690631817E+02  0.87741546714E+02  0.41800000000E+01 0.  1.
         -5    1    3    3    0  502  0.59546240131E+02  0.70590674790E+02 -0.80103885425E+02  0.12232294528E+03  0.41800000000E+01 0.  1.
        -11    1    1    2    0    0  0.17729421979E+02 -0.15032632931E+02 -0.19561372915E+02  0.30380252909E+02  0.00000000000E+00 0. -1.
         11    1    1    2    0    0 -0.83621582537E+02 -0.13442661727E+03 -0.33734526252E+03  0.37264582467E+03  0.00000000000E+00 0.  1.
</event>
<event>
 7    1  0.2690635E-009  0.6914861E+02  0.7561462E-02  0.1363012E+00
         -1   -1    0    0    0  501 -0.00000000000E+00  0.00000000000E+00  0.63440336619E+02  0.63440336619E+02  0.00000000000E+00 0.  1.
          1   -1    0    0  501    0  0.00000000000E+00 -0.00000000000E+00 -0.31649835621E+03  0.31649835621E+03  0.00000000000E+00 0. -1.
         25    2    1    2    0    0  0.23199053966E+02  0.35359675252E+02 -0.24692786728E+03  0.28001671116E+03  0.12508990426E+03 0.  0.
          5    1    3    3  502    0  0.24004511696E+02 -0.43898335840E+01  0.47279496253E+01  0.25205418631E+02  0.41800000000E+01 0. -1.
         -5    1    3    3    0  502 -0.80545773006E+00  0.39749508836E+02 -0.25165581691E+03  0.25481129252E+03  0.41800000000E+01 0. -1.
        -11    1    1    2    0    0 -0.18503068139E+02  0.14484084788E+02  0.30054450303E+02  0.38149996405E+02  0.00000000000E+00 0.  1.
         11    1    1    2    0    0 -0.46959858270E+01 -0.49843760039E+02 -0.36184602607E+02  0.61771985265E+02  0.00000000000E+00 0. -1.
</event>
<event>
 7    1  0.2690635E-009  0.7841849E+02  0.7561462E-02  0.1333600E+00
         -2   -1    0    0    0  501 -0.00000000000E+00  0.00000000000E+00  0.38050258372E+02  0.38050258372E+02  0.00000000000E+00 0.  1.
          2   -1    0    0  501    0  0.00000000000E+00 -0.00000000000E+00 -0.33111593652E+03  0.33111593652E+03  0.00000000000E+00 0. -1.
         25    2    1    2    0    0  0.18352729297E+02  0.24575917251E+02 -0.17479092028E+03  0.21711401097E+03  0.12508329052E+03 0.  0.
          5    1    3    3  502    0 -0.21303114630E+02  0.16861278930E+02  0.89727634283E+01  0.28915537409E+02  0.41800000000E+01 0.  1.
         -5    1    3    3    0  502  0.39655843927E+02  0.77146383212E+01 -0.18376368370E+03  0.18819847356E+03  0.41800000000E+01 0.  1.
        -11    1    1    2    0    0 -0.51728178685E+02 -0.17573382463E+02 -0.43383614955E+02  0.69762212463E+02  0.00000000000E+00 0.  1.
         11    1    1    2    0    0  0.33375449388E+02 -0.70025347873E+01 -0.74891142914E+02  0.82289971456E+02  0.00000000000E+00 0. -1.
</event>
<event>
 7    1  0.2690635E-009  0.1748372E+03  0.7561462E-02  0.1172895E+00
         -2   -1    0    0    0  501 -0.00000000000E+00  0.00000000000E+00  0.57128363242E+02  0.57128363242E+02  0.00000000000E+00 0.  1.
          2   -1    0    0  501    0  0.00000000000E+00 -0.00000000000E+00 -0.69520038439E+03  0.69520038439E+03  0.00000000000E+00 0. -1.
         25    2    1    2    0    0 -0.38662435482E+02  0.13152939693E+03 -0.15411039223E+03  0.24123220803E+03  0.12509276167E+03 0.  0.
          5    1    3    3  502    0 -0.73510993417E+02  0.32717637816E+02 -0.71887049597E+02  0.10797930486E+03  0.41800000000E+01 0. -1.
         -5    1    3    3    0  502  0.34848557936E+02  0.98811759118E+02 -0.82223342633E+02  0.13325290317E+03  0.41800000000E+01 0. -1.
        -11    1    1    2    0    0  0.68021703680E+02 -0.10200859111E+03 -0.36796008338E+03  0.38784962008E+03  0.00000000000E+00 0.  1.
         11    1    1    2    0    0 -0.29359268199E+02 -0.29520805821E+02 -0.11600154554E+03  0.12324691953E+03  0.00000000000E+00 0. -1.
</event>
<event>
 7    1  0.4113296E-009  0.9939188E+02  0.7561462E-02  0.1281580E+00
         -1   -1    0    0    0  501 -0.00000000000E+00  0.00000000000E+00  0.68589842915E+02  0.68589842915E+02  0.00000000000E+00 0.  1.
          1   -1    0    0  501    0  0.00000000000E+00 -0.00000000000E+00 -0.25021451484E+03  0.25021451484E+03  0.00000000000E+00 0. -1.
         25    2    1    2    0    0 -0.30131444466E+01  0.73092731609E+02 -0.10927639381E+03  0.18149636972E+03  0.12509186833E+03 0.  0.
          5    1    3    3  502    0  0.47102859170E+02  0.48233490440E+02 -0.11143231554E+02  0.68460155941E+02  0.41800000000E+01 0.  1.
         -5    1    3    3    0  502 -0.50116003617E+02  0.24859241169E+02 -0.98133162258E+02  0.11303621378E+03  0.41800000000E+01 0.  1.
        -11    1    1    2    0    0 -0.62969604040E+01 -0.14474855952E+02  0.21253766850E+02  0.26474436169E+02  0.00000000000E+00 0.  1.
         11    1    1    2    0    0  0.93101048506E+01 -0.58617875657E+02 -0.93602044965E+02  0.11083355187E+03  0.00000000000E+00 0. -1.
</event>
<event>
 7    1  0.2690635E-009  0.1372703E+03  0.7561462E-02  0.1217050E+00
          1   -1    0    0  501    0  0.00000000000E+00  0.00000000000E+00  0.14328584338E+03  0.14328584338E+03  0.00000000000E+00 0. -1.
         -1   -1    0    0    0  501 -0.00000000000E+00 -0.00000000000E+00 -0.15898032389E+03  0.15898032389E+03  0.00000000000E+00 0.  1.
         25    2    1    2    0    0 -0.63765027472E+02 -0.68119185304E+02  0.35846377201E+02  0.16011294886E+03  0.12507994044E+03 0.  0.
          5    1    3    3  502    0 -0.56006528443E+02 -0.10012323219E+03  0.51728825148E+01  0.11491572549E+03  0.41800000000E+01 0.  1.
         -5    1    3    3    0  502 -0.77584990289E+01  0.32004046883E+02  0.30673494687E+02  0.45197223370E+02  0.41800000000E+01 0.  1.
        -11    1    1    2    0    0 -0.90188432991E+01  0.50979763162E+02 -0.78102877263E+00  0.51777271003E+02  0.00000000000E+00 0.  1.
         11    1    1    2    0    0  0.72783870771E+02  0.17139422142E+02 -0.50759828937E+02  0.90375947406E+02  0.00000000000E+00 0. -1.
</event>
<event>
 7    1  0.2690635E-009  0.2212394E+03  0.7561462E-02  0.1132962E+00
         -2   -1    0    0    0  501 -0.00000000000E+00  0.00000000000E+00  0.86608784315E+02  0.86608784315E+02  0.00000000000E+00 0.  1.
          2   -1    0    0  501    0  0.00000000000E+00 -0.00000000000E+00 -0.64530128069E+03  0.64530128069E+03  0.00000000000E+00 0. -1.
         25    2    1    2    0    0  0.12278735746E+03  0.14934599112E+03 -0.16231755798E+03  0.28173524436E+03  0.12508716190E+03 0.  0.
          5    1    3    3  502    0  0.62841274556E+02  0.15745373481E+03 -0.11673490144E+03  0.20587669613E+03  0.41800000000E+01 0.  1.
         -5    1    3    3    0  502  0.59946082902E+02 -0.81077436938E+01 -0.45582656542E+02  0.75858548236E+02  0.41800000000E+01 0.  1.
        -11    1    1    2    0    0 -0.70335890213E+02 -0.20678723030E+02 -0.11535063213E+03  0.13667668188E+03  0.00000000000E+00 0.  1.
         11    1    1    2    0    0 -0.52451467246E+02 -0.12866726809E+03 -0.28102430626E+03  0.31349813876E+03  0.00000000000E+00 0. -1.
</event>
<event>
 7    1  0.2690635E-009  0.1915392E+03  0.7561462E-02  0.1157080E+00
          1   -1    0    0  501    0  0.00000000000E+00  0.00000000000E+00  0.15129348145E+04  0.15129348145E+04  0.00000000000E+00 0. -1.
         -1   -1    0    0    0  501 -0.00000000000E+00 -0.00000000000E+00 -0.42025273496E+02  0.42025273496E+02  0.00000000000E+00 0.  1.
         25    2    1    2    0    0  0.11756489173E+03  0.11361509083E+03  0.12435446398E+04  0.12604683842E+04  0.12508950368E+03 0.  0.
          5    1    3    3  502    0  0.46667227133E+01  0.89097191648E+02  0.60223634241E+03  0.60882359709E+03  0.41800000000E+01 0.  1.
         -5    1    3    3    0  502  0.11289816901E+03  0.24517899185E+02  0.64130829735E+03  0.65164478713E+03  0.41800000000E+01 0.  1.
        -11    1    1    2    0    0 -0.62940019778E+02 -0.10561679720E+03  0.19491992953E+03  0.23045635784E+03  0.00000000000E+00 0. -1.
         11    1    1    2    0    0 -0.54624871949E+02 -0.79982936366E+01  0.32444971675E+02  0.64035345893E+02  0.00000000000E+00 0.  1.
</event>
<event>
 7    1  0.2690635E-009  0.1010307E+03  0.7561462E-02  0.1278143E+00
         -2   -1    0    0    0  501 -0.00000000000E+00  0.00000000000E+00  0.11542711120E+03  0.11542711120E+03  0.00000000000E+00 0.  1.
          2   -1    0    0  501    0  0.00000000000E+00 -0.00000000000E+00 -0.13779782428E+03  0.13779782428E+03  0.00000000000E+00 0. -1.
         25    2    1    2    0    0 -0.46824254825E+02 -0.43462632392E+02 -0.19730828999E+01  0.14047515038E+03  0.12509142083E+03 0.  0.
          5    1    3    3  502    0 -0.36731081466E+02  0.10849690893E+02  0.50937986819E+02  0.63867355037E+02  0.41800000000E+01 0. -1.
         -5    1    3    3    0  502 -0.10093173359E+02 -0.54312323285E+02 -0.52911069719E+02  0.76607795347E+02  0.41800000000E+01 0. -1.
        -11    1    1    2    0    0  0.71284974452E+02  0.19528353687E+02 -0.25420322629E+02  0.78160712528E+02  0.00000000000E+00 0. -1.
         11    1    1    2    0    0 -0.24460719627E+02  0.23934278706E+02  0.50226924501E+01  0.34589072570E+02  0.00000000000E+00 0.  1.
</event>
<event>
 7    1  0.2690635E-009  0.1655163E+03  0.7561462E-02  0.1182606E+00
          3   -1    0    0  501    0  0.00000000000E+00  0.00000000000E+00  0.46015683040E+02  0.46015683040E+02  0.00000000000E+00 0. -1.
         -3   -1    0    0    0  501 -0.00000000000E+00 -0.00000000000E+00 -0.65780439197E+03  0.65780439197E+03  0.00000000000E+00 0.  1.
         25    2    1    2    0    0  0.25258258033E+02 -0.12175554307E+03 -0.42809696110E+03  0.46300821749E+03  0.12508880645E+03 0.  0.
          5    1    3    3  502    0  0.69064290975E+02 -0.32590659867E+02 -0.20291989733E+03  0.21685475445E+03  0.41800000000E+01 0. -1.
         -5    1    3    3    0  502 -0.43806032942E+02 -0.89164883200E+02 -0.22517706377E+03  0.24615346304E+03  0.41800000000E+01 0. -1.
        -11    1    1    2    0    0 -0.57982798323E+02  0.51240274239E+02 -0.81086913697E+02  0.11208326449E+03  0.00000000000E+00 0. -1.
         11    1    1    2    0    0  0.32724540290E+02  0.70515268828E+02 -0.10260483414E+03  0.12872859303E+03  0.00000000000E+00 0.  1.
</event>
<event>
 7    1  0.2690635E-009  0.1232392E+03  0.7561462E-02  0.1237847E+00
          2   -1    0    0  501    0  0.00000000000E+00  0.00000000000E+00  0.91356266776E+03  0.91356266776E+03  0.00000000000E+00 0. -1.
         -2   -1    0    0    0  501 -0.00000000000E+00 -0.00000000000E+00 -0.18809528842E+02  0.18809528842E+02  0.00000000000E+00 0.  1.
         25    2    1    2    0    0  0.46300364154E+02 -0.45906713062E+02  0.59167250712E+03  0.60825511300E+03  0.12508707678E+03 0.  0.
          5    1    3    3  502    0 -0.16177581291E+02  0.29466207179E+02  0.26634585166E+03  0.26849125982E+03  0.41800000000E+01 0.  1.
         -5    1    3    3    0  502  0.62477945445E+02 -0.75372920242E+02  0.32532665546E+03  0.33976385318E+03  0.41800000000E+01 0.  1.
        -11    1    1    2    0    0  0.25333872454E+02 -0.61419585908E+01  0.60313204726E+02  0.65705489978E+02  0.00000000000E+00 0.  1.
         11    1    1    2    0    0 -0.71634236608E+02  0.52048671653E+02  0.24276742706E+03  0.25841159362E+03  0.00000000000E+00 0. -1.
</event>
<event>
 7    1  0.2690635E-009  0.1578301E+03  0.7561462E-02  0.1191169E+00
         -1   -1    0    0    0  501 -0.00000000000E+00  0.00000000000E+00  0.61251298254E+03  0.61251298254E+03  0.00000000000E+00 0.  1.
          1   -1    0    0  501    0  0.00000000000E+00 -0.00000000000E+00 -0.53713604025E+02  0.53713604025E+02  0.00000000000E+00 0. -1.
         25    2    1    2    0    0  0.11095110189E+03 -0.84603157266E+02  0.21778135559E+03  0.28730681506E+03  0.12509454787E+03 0.  0.
          5    1    3    3  502    0  0.10570253187E+03 -0.42840304247E+02  0.70678041357E+02  0.13424296943E+03  0.41800000000E+01 0. -1.
         -5    1    3    3    0  502  0.52485700179E+01 -0.41762853019E+02  0.14710331424E+03  0.15306384563E+03  0.41800000000E+01 0. -1.
        -11    1    1    2    0    0 -0.35093595550E+02 -0.11378529024E+02  0.42341492697E+02  0.56159000839E+02  0.00000000000E+00 0. -1.
         11    1    1    2    0    0 -0.75857506341E+02  0.95981686291E+02  0.29867653023E+03  0.32276077067E+03  0.00000000000E+00 0.  1.
</event>
<event>
 7    1  0.2690635E-009  0.1691957E+03  0.7561462E-02  0.1178689E+00
         -2   -1    0    0    0  501 -0.00000000000E+00  0.00000000000E+00  0.12770282975E+03  0.12770282975E+03  0.00000000000E+00 0.  1.
          2   -1    0    0  501    0  0.00000000000E+00 -0.00000000000E+00 -0.30511722640E+03  0.30511722640E+03  0.00000000000E+00 0. -1.
         25    2    1    2    0    0 -0.40907311028E+02  0.16345746033E+03 -0.56671557785E+02  0.21736986146E+03  0.12508493825E+03 0.  0.
          5    1    3    3  502    0 -0.36919386543E+02  0.13434307804E+03 -0.95155179680E+02  0.16876932286E+03  0.41800000000E+01 0.  1.
         -5    1    3    3    0  502 -0.39879244849E+01  0.29114382291E+02  0.38483621895E+02  0.48600538598E+02  0.41800000000E+01 0.  1.
        -11    1    1    2    0    0  0.21863847761E+02 -0.11847506643E+03 -0.52237457830E+02  0.13131306563E+03  0.00000000000E+00 0.  1.
         11    1    1    2    0    0  0.19043463267E+02 -0.44982393904E+02 -0.68505381036E+02  0.84137129054E+02  0.00000000000E+00 0. -1.
</event>
<event>
 7    1  0.2690635E-009  0.1147389E+03  0.7561462E-02  0.1252038E+00
          2   -1    0    0  501    0  0.00000000000E+00  0.00000000000E+00  0.12733869728E+04  0.12733869728E+04  0.00000000000E+00 0.  1.
         -2   -1    0    0    0  501 -0.00000000000E+00 -0.00000000000E+00 -0.13095353729E+02  0.13095353729E+02  0.00000000000E+00 0. -1.
         25    2    1    2    0    0 -0.52323508373E+02  0.35015799296E+02  0.87094760911E+03  0.88213467622E+03  0.12509193997E+03 0.  0.
          5    1    3    3  502    0 -0.77087158409E+02  0.49882650060E+02  0.80220573986E+03  0.80745416603E+03  0.41800000000E+01 0. -1.
         -5    1    3    3    0  502  0.24763650036E+02 -0.14866850765E+02  0.68741869248E+02  0.74680510191E+02  0.41800000000E+01 0. -1.
        -11    1    1    2    0    0  0.50968719870E+02  0.18964100676E+02  0.21894934123E+03  0.22560199810E+03  0.00000000000E+00 0.  1.
         11    1    1    2    0    0  0.13547885028E+01 -0.53979899972E+02  0.17039466870E+03  0.17874565218E+03  0.00000000000E+00 0. -1.
</event>
<event>
 7    1  0.2690635E-009  0.2868413E+03  0.7561462E-02  0.1092010E+00
         -2   -1    0    0    0  501 -0.00000000000E+00  0.00000000000E+00  0.85098797455E+03  0.85098797455E+03  0.00000000000E+00 0. -1.
          2   -1    0    0  501    0  0.00000000000E+00 -0.00000000000E+00 -0.10331712960E+03  0.10331712960E+03  0.00000000000E+00 0.  1.
         25    2    1    2    0    0  0.19724930231E+02 -0.27462705912E+03  0.39861798535E+03  0.50035350985E+03  0.12509293384E+03 0.  0.
          5    1    3    3  502    0 -0.44226718083E+02 -0.13275881682E+03  0.24170827983E+03  0.27932287943E+03  0.41800000000E+01 0.  1.
         -5    1    3    3    0  502  0.63951648314E+02 -0.14186824229E+03  0.15690970552E+03  0.22103063041E+03  0.41800000000E+01 0.  1.
        -11    1    1    2    0    0  0.11090652915E+02  0.45818762337E+02  0.11912950345E+03  0.12811791505E+03  0.00000000000E+00 0. -1.
         11    1    1    2    0    0 -0.30815583146E+02  0.22880829678E+03  0.22992335614E+03  0.32583367926E+03  0.00000000000E+00 0.  1.
</event>
<event>
 7    1  0.2690635E-009  0.1289514E+03  0.7561462E-02  0.1229020E+00
         -1   -1    0    0    0  501 -0.00000000000E+00  0.00000000000E+00  0.77023985510E+02  0.77023985510E+02  0.00000000000E+00 0.  1.
          1   -1    0    0  501    0  0.00000000000E+00 -0.00000000000E+00 -0.28076969742E+03  0.28076969742E+03  0.00000000000E+00 0. -1.
         25    2    1    2    0    0  0.96956680734E+02 -0.27390274019E+02 -0.92689610739E+02  0.18544500062E+03  0.12509060424E+03 0.  0.
          5    1    3    3  502    0  0.14833294782E+02 -0.59716544135E+02 -0.71804906426E+02  0.94654684324E+02  0.41800000000E+01 0. -1.
         -5    1    3    3    0  502  0.82123385951E+02  0.32326270116E+02 -0.20884704312E+02  0.90790316300E+02  0.41800000000E+01 0. -1.
        -11    1    1    2    0    0 -0.76325039611E+02  0.37339133136E+02 -0.33253130489E+02  0.91244140756E+02  0.00000000000E+00 0.  1.
         11    1    1    2    0    0 -0.20631641123E+02 -0.99488591173E+01 -0.77802970684E+02  0.81104541552E+02  0.00000000000E+00 0. -1.
</event>
<event>
 7    1  0.2690635E-009  0.9854433E+02  0.7561462E-02  0.1283387E+00
          2   -1    0    0  501    0  0.00000000000E+00  0.00000000000E+00  0.15000797874E+03  0.15000797874E+03  0.00000000000E+00 0. -1.
         -2   -1    0    0    0  501 -0.00000000000E+00 -0.00000000000E+00 -0.94301692788E+02  0.94301692788E+02  0.00000000000E+00 0.  1.
         25    2    1    2    0    0  0.29301934078E+02 -0.15435606235E+01 -0.90811238635E+01  0.12880763895E+03  0.12509178678E+03 0.  0.
          5    1    3    3  502    0  0.33749581408E+02  0.51795679411E+02 -0.32807109764E+02  0.70111379261E+02  0.41800000000E+01 0.  1.
         -5    1    3    3    0  502 -0.44476473296E+01 -0.53339240035E+02  0.23725985900E+02  0.58696259687E+02  0.41800000000E+01 0.  1.
        -11    1    1    2    0    0 -0.19349150638E+02  0.38541602885E+02  0.35565508980E+01  0.43272321843E+02  0.00000000000E+00 0.  1.
         11    1    1    2    0    0 -0.99527834396E+01 -0.36998042262E+02  0.61230858913E+02  0.72229710733E+02  0.00000000000E+00 0. -1.
</event>
<event>
 7    1  0.2690635E-009  0.1723137E+03  0.7561462E-02  0.1175456E+00
         -2   -1    0    0    0  501 -0.00000000000E+00  0.00000000000E+00  0.20700020923E+02  0.20700020923E+02  0.00000000000E+00 0.  1.
          2   -1    0    0  501    0  0.00000000000E+00 -0.00000000000E+00 -0.18229670651E+04  0.18229670651E+04  0.00000000000E+00 0. -1.
         25    2    1    2    0    0 -0.13965104864E+03 -0.43636089362E+02 -0.12797132096E+04  0.12941097982E+04  0.12509095595E+03 0.  0.
          5    1    3    3  502    0  0.78523744815E+01 -0.27846451797E+02 -0.78545121224E+02  0.83808669783E+02  0.41800000000E+01 0.  1.
         -5    1    3    3    0  502 -0.14750342312E+03 -0.15789637565E+02 -0.12011680884E+04  0.12103011284E+04  0.41800000000E+01 0.  1.
        -11    1    1    2    0    0  0.88228381116E+02 -0.14458912513E+02 -0.22651259136E+03  0.24351850326E+03  0.00000000000E+00 0.  1.
         11    1    1    2    0    0  0.51422667524E+02  0.58095001874E+02 -0.29604124318E+03  0.30603878454E+03  0.00000000000E+00 0. -1.
</event>
<event>
 7    1  0.2690635E-009  0.1247813E+03  0.7561462E-02  0.1235412E+00
         -2   -1    0    0    0  501 -0.00000000000E+00  0.00000000000E+00  0.33783587367E+02  0.33783587367E+02  0.00000000000E+00 0.  1.
          2   -1    0    0  501    0  0.00000000000E+00 -0.00000000000E+00 -0.55394540432E+03  0.55394540432E+03  0.00000000000E+00 0. -1.
         25    2    1    2    0    0  0.82341615551E+01 -0.82267648962E+02 -0.25008403722E+03  0.29159093326E+03  0.12508988450E+03 0.  0.
          5    1    3    3  502    0  0.59206320191E+02 -0.49829906276E+02 -0.19456550236E+03  0.20943164760E+03  0.41800000000E+01 0. -1.
         -5    1    3    3    0  502 -0.50972158636E+02 -0.32437742686E+02 -0.55518534868E+02  0.82159285662E+02  0.41800000000E+01 0. -1.
        -11    1    1    2    0    0  0.33428511844E+02  0.40404710754E+02 -0.69619701103E+02  0.87160248032E+02  0.00000000000E+00 0.  1.
         11    1    1    2    0    0 -0.41662673399E+02  0.41862938208E+02 -0.20045807863E+03  0.20897781040E+03  0.00000000000E+00 0. -1.
</event>
<event>
 7    1  0.2690635E-009  0.9450803E+02  0.7561462E-02  0.1292288E+00
          2   -1    0    0  501    0  0.00000000000E+00  0.00000000000E+00  0.21123752673E+04  0.21123752673E+04  0.00000000000E+00 0. -1.
         -2   -1    0    0    0  501 -0.00000000000E+00 -0.00000000000E+00 -0.88294211467E+01  0.88294211467E+01  0.00000000000E+00 0.  1.
         25    2    1    2    0    0 -0.17147821389E+02 -0.28166128677E+02  0.17298736807E+04  0.17347026891E+04  0.12507233822E+03 0.  0.
          5    1    3    3  502    0 -0.12578660923E+01  0.36479585913E+02  0.12112839506E+04  0.12118410060E+04  0.41800000000E+01 0. -1.
         -5    1    3    3    0  502 -0.15889955297E+02 -0.64645714590E+02  0.51858973010E+03  0.52286168311E+03  0.41800000000E+01 0. -1.
        -11    1    1    2    0    0 -0.18576469320E+02 -0.18890638565E+02  0.42358720388E+02  0.49962011876E+02  0.00000000000E+00 0.  1.
         11    1    1    2    0    0  0.35724290709E+02  0.47056767242E+02  0.33131344508E+03  0.33653998749E+03  0.00000000000E+00 0. -1.
</event>
<event>
 7    1  0.2690635E-009  0.1282258E+03  0.7561462E-02  0.1230112E+00
         -2   -1    0    0    0  501 -0.00000000000E+00  0.00000000000E+00  0.38910064507E+02  0.38910064507E+02  0.00000000000E+00 0.  1.
          2   -1    0    0  501    0  0.00000000000E+00 -0.00000000000E+00 -0.58145838213E+03  0.58145838213E+03  0.00000000000E+00 0. -1.
         25    2    1    2    0    0 -0.81202297062E+02  0.20882548069E+02 -0.41892411169E+03  0.44516840406E+03  0.12509037834E+03 0.  0.
          5    1    3    3  502    0 -0.10115435263E+03 -0.26612830570E+01 -0.38904244543E+03  0.40200843552E+03  0.41800000000E+01 0.  1.
         -5    1    3    3    0  502  0.19952055572E+02  0.23543831126E+02 -0.29881666261E+02  0.43159968538E+02  0.41800000000E+01 0.  1.
        -11    1    1    2    0    0  0.23109560740E+02 -0.52881471171E+02 -0.61244963010E+02  0.84151335610E+02  0.00000000000E+00 0. -1.
         11    1    1    2    0    0  0.58092736323E+02  0.31998923102E+02 -0.62379242924E+02  0.91048706970E+02  0.00000000000E+00 0.  1.
</event>
<event>
 7    1  0.2690635E-009  0.2275991E+03  0.7561462E-02  0.1128341E+00
         -1   -1    0    0    0  501 -0.00000000000E+00  0.00000000000E+00  0.15030415360E+03  0.15030415360E+03  0.00000000000E+00 0.  1.
          1   -1    0    0  501    0  0.00000000000E+00 -0.00000000000E+00 -0.47231786923E+03  0.47231786923E+03  0.00000000000E+00 0. -1.
         25    2    1    2    0    0 -0.75980404351E+02  0.20276145425E+03 -0.36707587397E+02  0.25274222432E+03  0.12508379514E+03 0.  0.
          5    1    3    3  502    0 -0.36262029216E+02  0.19068226656E+03  0.43655374037E+01  0.19419369676E+03  0.41800000000E+01 0. -1.
         -5    1    3    3    0  502 -0.39718375135E+02  0.12079187685E+02 -0.41073124801E+02  0.58548527560E+02  0.41800000000E+01 0. -1.
        -11    1    1    2    0    0  0.54894107903E+02 -0.96725697276E+02 -0.77257196352E+02  0.13541749512E+03  0.00000000000E+00 0.  1.
         11    1    1    2    0    0  0.21086296448E+02 -0.10603575697E+03 -0.20804893188E+03  0.23446230339E+03  0.00000000000E+00 0. -1.
</event>
<event>
 7    1  0.2690635E-009  0.1018037E+03  0.7561462E-02  0.1276548E+00
          1   -1    0    0  501    0  0.00000000000E+00  0.00000000000E+00  0.72630259089E+03  0.72630259089E+03  0.00000000000E+00 0. -1.
         -1   -1    0    0    0  501 -0.00000000000E+00 -0.00000000000E+00 -0.17218086086E+02  0.17218086086E+02  0.00000000000E+00 0.  1.
         25    2    1    2    0    0 -0.97228691707E+01  0.22187226334E+02  0.34421024567E+03  0.36703560287E+03  0.12509050065E+03 0.  0.
          5    1    3    3  502    0  0.46722319737E+02 -0.66142595761E+01  0.63457992692E+02  0.79190358175E+02  0.41800000000E+01 0.  1.
         -5    1    3    3    0  502 -0.56445188908E+02  0.28801485911E+02  0.28075225297E+03  0.28784524469E+03  0.41800000000E+01 0.  1.
        -11    1    1    2    0    0 -0.32221659403E+02 -0.36239167574E+02  0.19697678239E+03  0.20285799319E+03  0.00000000000E+00 0.  1.
         11    1    1    2    0    0  0.41944528574E+02  0.14051941240E+02  0.16789747675E+03  0.17362708092E+03  0.00000000000E+00 0. -1.
</event>
<event>
 7    1  0.2690635E-009  0.8519115E+02  0.7561462E-02  0.1314933E+00
         -1   -1    0    0    0  501 -0.00000000000E+00  0.00000000000E+00  0.59889699193E+02  0.59889699193E+02  0.00000000000E+00 0.  1.
          1   -1    0    0  501    0  0.00000000000E+00 -0.00000000000E+00 -0.28517031800E+03  0.28517031800E+03  0.00000000000E+00 0. -1.
         25    2    1    2    0    0  0.48224745922E+02 -0.44993712259E+02 -0.16388589603E+03  0.21646565586E+03  0.12509489594E+03 0.  0.
          5    1    3    3  502    0  0.64821859277E+01  0.12930518511E+02  0.16549015737E+02  0.22373184065E+02  0.41800000000E+01 0. -1.
         -5    1    3    3    0  502  0.41742559994E+02 -0.57924230769E+02 -0.18043491177E+03  0.19409247180E+03  0.41800000000E+01 0. -1.
        -11    1    1    2    0    0 -0.58984407642E+02  0.32601647957E+02 -0.24839226403E+01  0.67440326705E+02  0.00000000000E+00 0.  1.
         11    1    1    2    0    0  0.10759661721E+02  0.12392064301E+02 -0.58910800136E+02  0.61154034622E+02  0.00000000000E+00 0. -1.
</event>
<event>
 7    1  0.2690635E-009  0.9839107E+02  0.7561462E-02  0.1283716E+00
         -1   -1    0    0    0  501 -0.00000000000E+00  0.00000000000E+00  0.26629359674E+02  0.26629359674E+02  0.00000000000E+00 0.  1.
          1   -1    0    0  501    0  0.00000000000E+00 -0.00000000000E+00 -0.46165268823E+03  0.46165268823E+03  0.00000000000E+00 0. -1.
         25    2    1    2    0    0  0.83798232836E+01  0.17444460517E+02 -0.28427713550E+03  0.31118465272E+03  0.12509143726E+03 0.  0.
          5    1    3    3  502    0  0.47101617295E+02  0.51420811007E+02 -0.20474177604E+03  0.21633152662E+03  0.41800000000E+01 0. -1.
         -5    1    3    3    0  502 -0.38721794011E+02 -0.33976350490E+02 -0.79535359466E+02  0.94853126092E+02  0.41800000000E+01 0. -1.
        -11    1    1    2    0    0 -0.10372958630E+02  0.27944408100E+02 -0.13867050065E+02  0.32875268703E+02  0.00000000000E+00 0.  1.
         11    1    1    2    0    0  0.19931353462E+01 -0.45388868616E+02 -0.13687914299E+03  0.14422212649E+03  0.00000000000E+00 0. -1.
</event>
<event>
 7    1  0.2690635E-009  0.1312126E+03  0.7561462E-02  0.1225668E+00
          4   -1    0    0  501    0  0.00000000000E+00  0.00000000000E+00  0.72890050504E+03  0.72890050504E+03  0.00000000000E+00 0. -1.
         -4   -1    0    0    0  501 -0.00000000000E+00 -0.00000000000E+00 -0.28764055364E+02  0.28764055364E+02  0.00000000000E+00 0.  1.
         25    2    1    2    0    0  0.63445698990E+02  0.42052220612E+02  0.23059267909E+03  0.27315551623E+03  0.12508879413E+03 0.  0.
          5    1    3    3  502    0  0.41356041584E+02  0.85113152913E+02  0.17751057441E+03  0.20120150944E+03  0.41800000000E+01 0.  1.
         -5    1    3    3    0  502  0.22089657406E+02 -0.43060932301E+02  0.53082104679E+02  0.71954006783E+02  0.41800000000E+01 0.  1.
        -11    1    1    2    0    0 -0.84174083820E+02 -0.48839103524E+02  0.39726653640E+03  0.40901251248E+03  0.00000000000E+00 0.  1.
         11    1    1    2    0    0  0.20728384831E+02  0.67868829119E+01  0.72277234185E+02  0.75496531701E+02  0.00000000000E+00 0. -1.
</event>
<event>
 7    1  0.2690635E-009  0.1418887E+03  0.7561462E-02  0.1210810E+00
         -2   -1    0    0    0  501 -0.00000000000E+00  0.00000000000E+00  0.19418518464E+02  0.19418518464E+02  0.00000000000E+00 0. -1.
          2   -1    0    0  501    0  0.00000000000E+00 -0.00000000000E+00 -0.11690359905E+04  0.11690359905E+04  0.00000000000E+00 0.  1.
         25    2    1    2    0    0 -0.20564437975E+02 -0.99993587533E+02 -0.69274739099E+03  0.71131492097E+03  0.12509338674E+03 0.  0.
          5    1    3    3  502    0 -0.64365043322E+02 -0.62495340495E+02 -0.26792524420E+03  0.28257730847E+03  0.41800000000E+01 0. -1.
         -5    1    3    3    0  502  0.43800605347E+02 -0.37498247038E+02 -0.42482214680E+03  0.42873761249E+03  0.41800000000E+01 0. -1.
        -11    1    1    2    0    0 -0.27014563235E+02  0.18385302994E+01 -0.12133591594E+03  0.12432043805E+03  0.00000000000E+00 0.  1.
         11    1    1    2    0    0  0.47579001210E+02  0.98155057234E+02 -0.33553416510E+03  0.35281914995E+03  0.00000000000E+00 0. -1.
</event>
<event>
 7    1  0.2690635E-009  0.1067230E+03  0.7561462E-02  0.1266762E+00
         -1   -1    0    0    0  501 -0.00000000000E+00  0.00000000000E+00  0.18012417213E+02  0.18012417213E+02  0.00000000000E+00 0.  1.
          1   -1    0    0  501    0  0.00000000000E+00 -0.00000000000E+00 -0.83225650390E+03  0.83225650390E+03  0.00000000000E+00 0. -1.
         25    2    1    2    0    0 -0.21854936287E+02  0.68627930377E+00 -0.64467649608E+03  0.65706435384E+03  0.12509065222E+03 0.  0.
          5    1    3    3  502    0 -0.28827089710E+02 -0.57794811976E+02 -0.26290062847E+03  0.27074980008E+03  0.41800000000E+01 0. -1.
         -5    1    3    3    0  502  0.69721534230E+01  0.58481091280E+02 -0.38177586761E+03  0.38631455377E+03  0.41800000000E+01 0. -1.
        -11    1    1    2    0    0 -0.31695079921E+02 -0.13769977580E+02 -0.90004626316E+02  0.96410700299E+02  0.00000000000E+00 0.  1.
         11    1    1    2    0    0  0.53550016208E+02  0.13083698277E+02 -0.79562964291E+02  0.96793866972E+02  0.00000000000E+00 0. -1.
</event>
<event>
 7    1  0.2690635E-009  0.1078068E+03  0.7561462E-02  0.1264686E+00
         -2   -1    0    0    0  501 -0.00000000000E+00  0.00000000000E+00  0.16211643362E+02  0.16211643362E+02  0.00000000000E+00 0.  1.
          2   -1    0    0  501    0  0.00000000000E+00 -0.00000000000E+00 -0.12572198240E+04  0.12572198240E+04  0.00000000000E+00 0. -1.
         25    2    1    2    0    0  0.30606545055E+02  0.62985246751E+02 -0.10526978578E+04  0.10624143139E+04  0.12508993806E+03 0.  0.
          5    1    3    3  502    0  0.50015392954E+01  0.92573583527E+02 -0.51624220214E+03  0.52451727086E+03  0.41800000000E+01 0.  1.
         -5    1    3    3    0  502  0.25605005759E+02 -0.29588336776E+02 -0.53645565564E+03  0.53789704300E+03  0.41800000000E+01 0.  1.
        -11    1    1    2    0    0 -0.39147057055E+02 -0.29817655066E+02 -0.56950652790E+02  0.75265938398E+02  0.00000000000E+00 0.  1.
         11    1    1    2    0    0  0.85405120004E+01 -0.33167591685E+02 -0.13135967009E+03  0.13575121513E+03  0.00000000000E+00 0. -1.
</event>
<event>
 7    1  0.2690635E-009  0.1704987E+03  0.7561462E-02  0.1177329E+00
         -2   -1    0    0    0  501 -0.00000000000E+00  0.00000000000E+00  0.47038054708E+02  0.47038054708E+02  0.00000000000E+00 0.  1.
          2   -1    0    0  501    0  0.00000000000E+00 -0.00000000000E+00 -0.82313734753E+03  0.82313734753E+03  0.00000000000E+00 0. -1.
         25    2    1    2    0    0  0.97982519897E+02 -0.90860522453E+02 -0.61699441236E+03  0.64357287482E+03  0.12509089329E+03 0.  0.
          5    1    3    3  502    0  0.46151967200E+02 -0.11548375230E+03 -0.38822141750E+03  0.40767614907E+03  0.41800000000E+01 0.  1.
         -5    1    3    3    0  502  0.51830552698E+02  0.24623229850E+02 -0.22877299486E+03  0.23589672575E+03  0.41800000000E+01 0.  1.
        -11    1    1    2    0    0 -0.16453182712E+02  0.73957481822E+02 -0.56773286010E+02  0.94676408589E+02  0.00000000000E+00 0.  1.
         11    1    1    2    0    0 -0.81529337185E+02  0.16903040630E+02 -0.10233159446E+03  0.13192611883E+03  0.00000000000E+00 0. -1.
</event>
<event>
 7    1  0.2690635E-009  0.1136783E+03  0.7561462E-02  0.1253906E+00
          3   -1    0    0  501    0  0.00000000000E+00  0.00000000000E+00  0.26340445460E+02  0.26340445460E+02  0.00000000000E+00 0. -1.
         -3   -1    0    0    0  501 -0.00000000000E+00 -0.00000000000E+00 -0.58024351923E+03  0.58024351923E+03  0.00000000000E+00 0.  1.
         25    2    1    2    0    0 -0.44444091910E+02 -0.39966939836E+02 -0.31054748252E+03  0.34008785726E+03  0.12508948065E+03 0.  0.
          5    1    3    3  502    0 -0.17084685585E+02 -0.84159708811E+02 -0.17883886819E+03  0.19843274992E+03  0.41800000000E+01 0. -1.
         -5    1    3    3    0  502 -0.27359406324E+02  0.44192768975E+02 -0.13170861434E+03  0.14165510734E+03  0.41800000000E+01 0. -1.
        -11    1    1    2    0    0  0.45635154987E+02 -0.34832328816E+01 -0.47839538116E+02  0.66206658948E+02  0.00000000000E+00 0. -1.
         11    1    1    2    0    0 -0.11910630770E+01  0.43450172718E+02 -0.19551605313E+03  0.20028944848E+03  0.00000000000E+00 0.  1.
</event>
<event>
 7    1  0.2690635E-009  0.1964458E+03  0.7561462E-02  0.1152773E+00
          1   -1    0    0  501    0  0.00000000000E+00  0.00000000000E+00  0.16404930049E+03  0.16404930049E+03  0.00000000000E+00 0. -1.
         -1   -1    0    0    0  501 -0.00000000000E+00 -0.00000000000E+00 -0.23716276174E+03  0.23716276174E+03  0.00000000000E+00 0.  1.
         25    2    1    2    0    0 -0.61723839819E+02 -0.15145641259E+03 -0.54068363342E+02  0.21288530451E+03  0.12509151707E+03 0.  0.
          5    1    3    3  502    0 -0.67947406038E+02 -0.17135059214E+03 -0.45118753103E+02  0.18981846511E+03  0.41800000000E+01 0.  1.
         -5    1    3    3    0  502  0.62235662194E+01  0.19894179547E+02 -0.89496102390E+01  0.23066839397E+02  0.41800000000E+01 0.  1.
        -11    1    1    2    0    0 -0.88805522479E+00  0.11459125049E+03 -0.14766535414E+02  0.11554217368E+03  0.00000000000E+00 0. -1.
         11    1    1    2    0    0  0.62611895044E+02  0.36865162102E+02 -0.42785624907E+01  0.72784584046E+02  0.00000000000E+00 0.  1.
</event>
<event>
 7    1  0.2690635E-009  0.3488419E+03  0.7561462E-02  0.1063091E+00
         -1   -1    0    0    0  501 -0.00000000000E+00  0.00000000000E+00  0.73284747471E+03  0.73284747471E+03  0.00000000000E+00 0.  1.
          1   -1    0    0  501    0  0.00000000000E+00 -0.00000000000E+00 -0.17375204513E+03  0.17375204513E+03  0.00000000000E+00 0. -1.
         25    2    1    2    0    0  0.27819462359E+03  0.19335299259E+03  0.31177735751E+03  0.47710624787E+03  0.12509045833E+03 0.  0.
          5    1    3    3  502    0  0.85554887557E+02  0.10267575506E+03  0.57822789142E+02  0.14568080452E+03  0.41800000000E+01 0.  1.
         -5    1    3    3    0  502  0.19263973604E+03  0.90677237529E+02  0.25395456837E+03  0.33142544335E+03  0.41800000000E+01 0.  1.
        -11    1    1    2    0    0 -0.72468034053E+02 -0.10391344107E+03  0.83807922087E+02  0.15189926596E+03  0.00000000000E+00 0.  1.
         11    1    1    2    0    0 -0.20572658954E+03 -0.89439551514E+02  0.16351014998E+03  0.27759400600E+03  0.00000000000E+00 0. -1.
</event>
<event>
 7    1  0.2690635E-009  0.2405604E+03  0.7561462E-02  0.1119420E+00
         -2   -1    0    0    0  501 -0.00000000000E+00  0.00000000000E+00  0.89872815694E+02  0.89872815694E+02  0.00000000000E+00 0.  1.
          2   -1    0    0  501    0  0.00000000000E+00 -0.00000000000E+00 -0.10958721092E+04  0.10958721092E+04  0.00000000000E+00 0. -1.
         25    2    1    2    0    0  0.41273592663E+02  0.21801468058E+03 -0.14751144098E+03  0.29434805996E+03  0.12508894748E+03 0.  0.
          5    1    3    3  502    0 -0.30323085487E+02  0.52561573378E+02 -0.82843273039E+02  0.10277494246E+03  0.41800000000E+01 0. -1.
         -5    1    3    3    0  502  0.71596678150E+02  0.16545310720E+03 -0.64668167941E+02  0.19157311750E+03  0.41800000000E+01 0. -1.
        -11    1    1    2    0    0 -0.21984740057E+02 -0.90572080145E+00 -0.80451630618E+02  0.83406318674E+02  0.00000000000E+00 0.  1.
         11    1    1    2    0    0 -0.19288852607E+02 -0.21710895978E+03 -0.77803622191E+03  0.80799054627E+03  0.00000000000E+00 0. -1.
</event>
<event>
 7    1  0.2690635E-009  0.1101648E+03  0.7561462E-02  0.1260265E+00
         -1   -1    0    0    0  501 -0.00000000000E+00  0.00000000000E+00  0.22076778403E+02  0.22076778403E+02  0.00000000000E+00 0.  1.
          1   -1    0    0  501    0  0.00000000000E+00 -0.00000000000E+00 -0.85746537496E+03  0.85746537496E+03  0.00000000000E+00 0. -1.
         25    2    1    2    0    0  0.55756565950E+02 -0.63242787392E+02 -0.52389596250E+03  0.54518400728E+03  0.12510066936E+03 0.  0.
          5    1    3    3  502    0 -0.15450991573E+02 -0.37988622791E+02 -0.47835034634E+02  0.63146904442E+02  0.41800000000E+01 0. -1.
         -5    1    3    3    0  502  0.71207557523E+02 -0.25254164601E+02 -0.47606092786E+03  0.48203710284E+03  0.41800000000E+01 0. -1.
        -11    1    1    2    0    0  0.70213569605E+00  0.43680285087E+02 -0.22519733061E+03  0.22939550565E+03  0.00000000000E+00 0. -1.
         11    1    1    2    0    0 -0.56458701646E+02  0.19562502305E+02 -0.86295303451E+02  0.10496264043E+03  0.00000000000E+00 0.  1.
</event>
<event>
 7    1  0.2690635E-009  0.1136282E+03  0.7561462E-02  0.1253995E+00
         -1   -1    0    0    0  501 -0.00000000000E+00  0.00000000000E+00  0.33101953785E+03  0.33101953785E+03  0.00000000000E+00 0.  1.
          1   -1    0    0  501    0  0.00000000000E+00 -0.00000000000E+00 -0.41013167496E+02  0.41013167496E+02  0.00000000000E+00 0. -1.
         25    2    1    2    0    0  0.35104423485E+02 -0.24364450488E+02  0.16105301485E+03  0.20835376788E+03  0.12508905628E+03 0.  0.
          5    1    3    3  502    0  0.10406959430E+01 -0.69885841987E+02  0.59462279472E+02  0.91860486817E+02  0.41800000000E+01 0. -1.
         -5    1    3    3    0  502  0.34063727542E+02  0.45521391499E+02  0.10159073538E+03  0.11649328106E+03  0.41800000000E+01 0. -1.
        -11    1    1    2    0    0 -0.16416576411E+02 -0.34641453574E+02  0.57994209804E+02  0.69518793557E+02  0.00000000000E+00 0. -1.
         11    1    1    2    0    0 -0.18687847073E+02  0.59005904063E+02  0.70959145696E+02  0.94160143906E+02  0.00000000000E+00 0.  1.
</event>
<event>
 7    1  0.2734287E-009  0.1401799E+03  0.7561462E-02  0.1213087E+00
          2   -1    0    0  501    0  0.00000000000E+00  0.00000000000E+00  0.18357473066E+04  0.18357473066E+04  0.00000000000E+00 0. -1.
         -2   -1    0    0    0  501 -0.00000000000E+00 -0.00000000000E+00 -0.15077371668E+02  0.15077371668E+02  0.00000000000E+00 0.  1.
         25    2    1    2    0    0 -0.34980165615E+02  0.95549554141E+02  0.13822516040E+04  0.13916257387E+04  0.12509744449E+03 0.  0.
          5    1    3    3  502    0  0.39992789956E+02  0.52272121586E+02  0.38428253303E+03  0.38990041746E+03  0.41800000000E+01 0. -1.
         -5    1    3    3    0  502 -0.74972955571E+02  0.43277432555E+02  0.99796907099E+03  0.10017253213E+04  0.41800000000E+01 0. -1.
        -11    1    1    2    0    0 -0.24891531167E+02 -0.26753292536E+02  0.21159718798E+03  0.21472935744E+03  0.00000000000E+00 0.  1.
         11    1    1    2    0    0  0.59871696782E+02 -0.68796261605E+02  0.22682114294E+03  0.24446958209E+03  0.00000000000E+00 0. -1.
</event>
<event>
 7    1  0.2690635E-009  0.1345830E+03  0.7561462E-02  0.1220810E+00
          1   -1    0    0  501    0  0.00000000000E+00  0.00000000000E+00  0.63895073273E+02  0.63895073273E+02  0.00000000000E+00 0. -1.
         -1   -1    0    0    0  501 -0.00000000000E+00 -0.00000000000E+00 -0.36424508795E+03  0.36424508795E+03  0.00000000000E+00 0.  1.
         25    2    1    2    0    0 -0.54307030921E+02  0.88727514007E+02 -0.12595012475E+03  0.20575624663E+03  0.12510145383E+03 0.  0.
          5    1    3    3  502    0  0.95878773075E-02  0.97939680867E+02 -0.45284209127E+02  0.10798293002E+03  0.41800000000E+01 0. -1.
         -5    1    3    3    0  502 -0.54316618798E+02 -0.92121668591E+01 -0.80665915626E+02  0.97773316603E+02  0.41800000000E+01 0. -1.
        -11    1    1    2    0    0  0.17965046858E+02 -0.74865134991E+02 -0.16542827439E+03  0.18246655944E+03  0.00000000000E+00 0.  1.
         11    1    1    2    0    0  0.36341984063E+02 -0.13862379016E+02 -0.89716155386E+01  0.39917355160E+02  0.00000000000E+00 0. -1.
</event>
<event>
 7    1  0.2690635E-009  0.2230923E+03  0.7561462E-02  0.1131598E+00
          3   -1    0    0  501    0  0.00000000000E+00  0.00000000000E+00  0.66408671614E+02  0.66408671614E+02  0.00000000000E+00 0. -1.
         -3   -1    0    0    0  501 -0.00000000000E+00 -0.00000000000E+00 -0.10839349931E+04  0.10839349931E+04  0.00000000000E+00 0.  1.
         25    2    1    2    0    0  0.88031668501E+02  0.17983283372E+03 -0.82429604424E+03  0.85743908276E+03  0.12509352241E+03 0.  0.
          5    1    3    3  502    0  0.76511472210E+02  0.19569896348E+03 -0.67943113651E+03  0.71119352594E+03  0.41800000000E+01 0. -1.
         -5    1    3    3    0  502  0.11520196291E+02 -0.15866129758E+02 -0.14486490773E+03  0.14624555681E+03  0.41800000000E+01 0. -1.
        -11    1    1    2    0    0 -0.36251790997E+02 -0.15380132311E+03 -0.16492731965E+03  0.22840766210E+03  0.00000000000E+00 0. -1.
         11    1    1    2    0    0 -0.51779877504E+02 -0.26031510614E+02 -0.28302957555E+02  0.64496919814E+02  0.00000000000E+00 0.  1.
</event>
<event>
 7    1  0.3733084E-009  0.1155122E+03  0.7561462E-02  0.1250690E+00
         -1   -1    0    0    0  501 -0.00000000000E+00  0.00000000000E+00  0.12709735052E+03  0.12709735052E+03  0.00000000000E+00 0.  1.
          1   -1    0    0  501    0  0.00000000000E+00 -0.00000000000E+00 -0.14823224969E+03  0.14823224969E+03  0.00000000000E+00 0. -1.
         25    2    1    2    0    0 -0.28101736950E+02  0.71900778176E+02  0.20907795591E+02  0.14847278349E+03  0.12509037533E+03 0.  0.
          5    1    3    3  502    0 -0.73318758119E+02  0.54411166111E+02 -0.82073361425E+01  0.91766268619E+02  0.41800000000E+01 0.  1.
         -5    1    3    3    0  502  0.45217021168E+02  0.17489612065E+02  0.29115131734E+02  0.56706514876E+02  0.41800000000E+01 0.  1.
        -11    1    1    2    0    0  0.36384352373E+02 -0.27004957077E+02  0.20246495242E+02  0.49628715215E+02  0.00000000000E+00 0.  1.
         11    1    1    2    0    0 -0.82826154224E+01 -0.44895821099E+02 -0.62289189997E+02  0.77228101497E+02  0.00000000000E+00 0. -1.
</event>
<event>
 7    1  0.2690635E-009  0.9298346E+02  0.7561462E-02  0.1295784E+00
          1   -1    0    0  501    0  0.00000000000E+00  0.00000000000E+00  0.54371730906E+02  0.54371730906E+02  0.00000000000E+00 0. -1.
         -1   -1    0    0    0  501 -0.00000000000E+00 -0.00000000000E+00 -0.30817144718E+03  0.30817144718E+03  0.00000000000E+00 0.  1.
         25    2    1    2    0    0  0.56249690497E+02  0.34579667385E+02 -0.97946782725E+02  0.17204932698E+03  0.12509043764E+03 0.  0.
          5    1    3    3  502    0  0.67384163838E+02  0.93518024135E+01 -0.11897798432E+03  0.13711788687E+03  0.41800000000E+01 0. -1.
         -5    1    3    3    0  502 -0.11134473341E+02  0.25227864972E+02  0.21031201599E+02  0.34931440112E+02  0.41800000000E+01 0. -1.
        -11    1    1    2    0    0 -0.66266935320E+01  0.17058986243E+02  0.72449633068E+00  0.18315211540E+02  0.00000000000E+00 0. -1.
         11    1    1    2    0    0 -0.49622996965E+02 -0.51638653629E+02 -0.15657742988E+03  0.17217863957E+03  0.00000000000E+00 0.  1.
</event>
<event>
 7    1  0.2690635E-009  0.1179104E+03  0.7561462E-02  0.1246585E+00
          2   -1    0    0  501    0  0.00000000000E+00  0.00000000000E+00  0.74946825584E+03  0.74946825584E+03  0.00000000000E+00 0. -1.
         -2   -1    0    0    0  501 -0.00000000000E+00 -0.00000000000E+00 -0.27489901831E+02  0.27489901831E+02  0.00000000000E+00 0.  1.
         25    2    1    2    0    0  0.59087433600E+02 -0.46048915779E+02  0.24073684951E+03  0.28145473941E+03  0.12510280641E+03 0.  0.
          5    1    3    3  502    0  0.47542849914E+02 -0.73598443918E+02  0.82669138187E+02  0.12053510830E+03  0.41800000000E+01 0.  1.
         -5    1    3    3    0  502  0.11544583687E+02  0.27549528139E+02  0.15806771132E+03  0.16091963111E+03  0.41800000000E+01 0.  1.
        -11    1    1    2    0    0  0.13438820844E+02  0.43327091550E+02  0.19436905943E+03  0.19959250996E+03  0.00000000000E+00 0.  1.
         11    1    1    2    0    0 -0.72526254445E+02  0.27218242293E+01  0.28687244506E+03  0.29591090829E+03  0.00000000000E+00 0. -1.
</event>
<event>
 7    1  0.2690635E-009  0.1153786E+03  0.7561462E-02  0.1250922E+00
          1   -1    0    0  501    0  0.00000000000E+00  0.00000000000E+00  0.12700570965E+03  0.12700570965E+03  0.00000000000E+00 0. -1.
         -1   -1    0    0    0  501 -0.00000000000E+00 -0.00000000000E+00 -0.17997875424E+03  0.17997875424E+03  0.00000000000E+00 0.  1.
         25    2    1    2    0    0 -0.95205537746E+02  0.41914338192E+02 -0.17195343203E+02  0.16359909670E+03  0.12509227973E+03 0.  0.
          5    1    3    3  502    0 -0.92073928494E+02  0.56442305475E+02 -0.56080472052E+02  0.12176138099E+03  0.41800000000E+01 0.  1.
         -5    1    3    3    0  502 -0.31316092519E+01 -0.14527967282E+02  0.38885128848E+02  0.41837715705E+02  0.41800000000E+01 0.  1.
        -11    1    1    2    0    0  0.63806548739E+02 -0.14215999401E+02 -0.65109202093E+02  0.92263635839E+02  0.00000000000E+00 0.  1.
         11    1    1    2    0    0  0.31398989006E+02 -0.27698338791E+02  0.29331500706E+02  0.51121731349E+02  0.00000000000E+00 0. -1.
</event>
<event>
 7    1  0.2690635E-009  0.1545620E+03  0.7561462E-02  0.1194977E+00
         -1   -1    0    0    0  501 -0.00000000000E+00  0.00000000000E+00  0.61177815816E+02  0.61177815816E+02  0.00000000000E+00 0.  1.
          1   -1    0    0  501    0  0.00000000000E+00 -0.00000000000E+00 -0.63164574738E+03  0.63164574738E+03  0.00000000000E+00 0. -1.
         25    2    1    2    0    0 -0.90189778205E+02  0.75971701899E+02 -0.98194007579E+02  0.19797692494E+03  0.12508758572E+03 0.  0.
          5    1    3    3  502    0  0.31629872458E+02  0.13152545665E+02 -0.15362663255E+02  0.37774622585E+02  0.41800000000E+01 0. -1.
         -5    1    3    3    0  502 -0.12181965066E+03  0.62819156234E+02 -0.82831344324E+02  0.16020230236E+03  0.41800000000E+01 0. -1.
        -11    1    1    2    0    0  0.30855853913E+02 -0.71632201091E+02 -0.35354956955E+03  0.36205048554E+03  0.00000000000E+00 0. -1.
         11    1    1    2    0    0  0.59333924292E+02 -0.43395008081E+01 -0.11872435444E+03  0.13279615271E+03  0.00000000000E+00 0.  1.
</event>
<event>
 7    1  0.2690635E-009  0.1314861E+03  0.7561462E-02  0.1225267E+00
          2   -1    0    0  501    0  0.00000000000E+00  0.00000000000E+00  0.88684772849E+02  0.88684772849E+02  0.00000000000E+00 0. -1.
         -2   -1    0    0    0  501 -0.00000000000E+00 -0.00000000000E+00 -0.20994624564E+03  0.20994624564E+03  0.00000000000E+00 0.  1.
         25    2    1    2    0    0 -0.69676775977E+02 -0.33372203158E+02 -0.43765362098E+02  0.15339863077E+03  0.12508867235E+03 0.  0.
          5    1    3    3  502    0 -0.10316905697E+03 -0.32988413872E+02 -0.49496045295E+02  0.11916132202E+03  0.41800000000E+01 0. -1.
         -5    1    3    3    0  502  0.33492280997E+02 -0.38378928667E+00  0.57306831975E+01  0.34237308751E+02  0.41800000000E+01 0. -1.
        -11    1    1    2    0    0 -0.21526634045E+02  0.18562009688E+02 -0.30053384505E+02  0.41366050055E+02  0.00000000000E+00 0.  1.
         11    1    1    2    0    0  0.91203410022E+02  0.14810193470E+02 -0.47442726187E+02  0.10386633766E+03  0.00000000000E+00 0. -1.
</event>
<event>
 7    1  0.2690635E-009  0.1152575E+03  0.7561462E-02  0.1251132E+00
         -1   -1    0    0    0  501 -0.00000000000E+00  0.00000000000E+00  0.10802897424E+03  0.10802897424E+03  0.00000000000E+00 0.  1.
          1   -1    0    0  501    0  0.00000000000E+00 -0.00000000000E+00 -0.25760802818E+03  0.25760802818E+03  0.00000000000E+00 0. -1.
         25    2    1    2    0    0  0.58662135884E+01  0.88163103663E+02  0.18798021024E+02  0.15430615786E+03  0.12509947822E+03 0.  0.
          5    1    3    3  502    0  0.77130983608E+01 -0.90208455489E+01  0.50449996439E+02  0.51995596750E+02  0.41800000000E+01 0. -1.
         -5    1    3    3    0  502 -0.18468847724E+01  0.97183949212E+02 -0.31651975414E+02  0.10231056111E+03  0.41800000000E+01 0. -1.
        -11    1    1    2    0    0  0.17490868495E+02 -0.94767044425E+02 -0.15770028018E+03  0.18481369419E+03  0.00000000000E+00 0. -1.
         11    1    1    2    0    0 -0.23357082083E+02  0.66039407623E+01 -0.10676794777E+02  0.26517150370E+02  0.00000000000E+00 0.  1.
</event>
<event>
 7    1  0.2690635E-009  0.2169071E+03  0.7561462E-02  0.1136210E+00
          1   -1    0    0  501    0  0.00000000000E+00  0.00000000000E+00  0.71635586373E+03  0.71635586373E+03  0.00000000000E+00 0. -1.
         -1   -1    0    0    0  501 -0.00000000000E+00 -0.00000000000E+00 -0.89431386233E+02  0.89431386233E+02  0.00000000000E+00 0.  1.
         25    2    1    2    0    0  0.98943699949E+02  0.18216029641E+03  0.17127723897E+03  0.29657431354E+03  0.12509277162E+03 0.  0.
          5    1    3    3  502    0 -0.93490383391E+01  0.43027258953E+02  0.94279829047E+02  0.10413888849E+03  0.41800000000E+01 0. -1.
         -5    1    3    3    0  502  0.10829273829E+03  0.13913303745E+03  0.76997409924E+02  0.19243542504E+03  0.41800000000E+01 0. -1.
        -11    1    1    2    0    0 -0.61794133881E+02 -0.15598804853E+03  0.41724848136E+03  0.44971889160E+03  0.00000000000E+00 0. -1.
         11    1    1    2    0    0 -0.37149566069E+02 -0.26172247880E+02  0.38398757169E+02  0.59494044830E+02  0.00000000000E+00 0.  1.
</event>
<event>
 7    1  0.2690635E-009  0.8835899E+02  0.7561462E-02  0.1306875E+00
         -1   -1    0    0    0  501 -0.00000000000E+00  0.00000000000E+00  0.89581587699E+02  0.89581587699E+02  0.00000000000E+00 0.  1.
          1   -1    0    0  501    0  0.00000000000E+00 -0.00000000000E+00 -0.15908637409E+03  0.15908637409E+03  0.00000000000E+00 0. -1.
         25    2    1    2    0    0 -0.43258574935E+02  0.18650618230E+02 -0.64037426288E+02  0.14821409200E+03  0.12508986864E+03 0.  0.
          5    1    3    3  502    0  0.13640740743E+01 -0.18415763592E+02  0.31274248638E+02  0.36558885029E+02  0.41800000000E+01 0.  1.
         -5    1    3    3    0  502 -0.44622649010E+02  0.37066381822E+02 -0.95311674926E+02  0.11165520697E+03  0.41800000000E+01 0.  1.
        -11    1    1    2    0    0 -0.14851243256E+02  0.23526450844E+02 -0.67915679391E+01  0.28638762380E+02  0.00000000000E+00 0. -1.
         11    1    1    2    0    0  0.58109818192E+02 -0.42177069074E+02  0.13242078367E+01  0.71815107410E+02  0.00000000000E+00 0.  1.
</event>
<event>
 7    1  0.2690635E-009  0.1303202E+03  0.7561462E-02  0.1226981E+00
         -1   -1    0    0    0  501 -0.00000000000E+00  0.00000000000E+00  0.17652172245E+03  0.17652172245E+03  0.00000000000E+00 0.  1.
          1   -1    0    0  501    0  0.00000000000E+00 -0.00000000000E+00 -0.11604663432E+03  0.11604663432E+03  0.00000000000E+00 0. -1.
         25    2    1    2    0    0  0.78615231164E+02 -0.36769481199E+02 -0.30065384306E-01  0.15224523578E+03  0.12508501747E+03 0.  0.
          5    1    3    3  502    0  0.67813665082E+02  0.36300048730E+02 -0.96776170468E+01  0.77637074786E+02  0.41800000000E+01 0. -1.
         -5    1    3    3    0  502  0.10801566082E+02 -0.73069529928E+02  0.96475516625E+01  0.74608160994E+02  0.41800000000E+01 0. -1.
        -11    1    1    2    0    0 -0.56497695737E+02  0.56562926647E+02  0.72866722599E+02  0.10817076110E+03  0.00000000000E+00 0. -1.
         11    1    1    2    0    0 -0.22117535427E+02 -0.19793445448E+02 -0.12361569087E+02  0.32152359888E+02  0.00000000000E+00 0.  1.
</event>
<event>
 7    1  0.2690635E-009  0.1965049E+03  0.7561462E-02  0.1152722E+00
          2   -1    0    0  501    0  0.00000000000E+00  0.00000000000E+00  0.81586613366E+03  0.81586613366E+03  0.00000000000E+00 0. -1.
         -2   -1    0    0    0  501 -0.00000000000E+00 -0.00000000000E+00 -0.64579293540E+02  0.64579293540E+02  0.00000000000E+00 0.  1.
         25    2    1    2    0    0 -0.31065835851E+02 -0.18457910805E+03  0.53236118596E+03  0.57800524870E+03  0.12508837644E+03 0.  0.
          5    1    3    3  502    0 -0.46827364793E+01 -0.89730528909E+02  0.99763989286E+02  0.13432729357E+03  0.41800000000E+01 0.  1.
         -5    1    3    3    0  502 -0.26383099372E+02 -0.94848579136E+02  0.43259719668E+03  0.44367795513E+03  0.41800000000E+01 0.  1.
        -11    1    1    2    0    0  0.49212411397E+02  0.55511899386E+02  0.10947492365E+03  0.13224292540E+03  0.00000000000E+00 0.  1.
         11    1    1    2    0    0 -0.18146575546E+02  0.12906720866E+03  0.10945073050E+03  0.17019725310E+03  0.00000000000E+00 0. -1.
</event>
<event>
 7    1  0.2690635E-009  0.1156941E+03  0.7561462E-02  0.1250374E+00
          4   -1    0    0  501    0  0.00000000000E+00  0.00000000000E+00  0.33522351791E+02  0.33522351791E+02  0.00000000000E+00 0. -1.
         -4   -1    0    0    0  501 -0.00000000000E+00 -0.00000000000E+00 -0.49207417290E+03  0.49207417290E+03  0.00000000000E+00 0.  1.
         25    2    1    2    0    0 -0.61192565029E+02 -0.25795750843E+01 -0.33624071713E+03  0.36394562223E+03  0.12508961533E+03 0.  0.
          5    1    3    3  502    0 -0.97081992308E+02  0.12156021513E+02 -0.20801422860E+03  0.22991318751E+03  0.41800000000E+01 0.  1.
         -5    1    3    3    0  502  0.35889427280E+02 -0.14735596598E+02 -0.12822648853E+03  0.13403243472E+03  0.41800000000E+01 0.  1.
        -11    1    1    2    0    0  0.77797335799E+02  0.20508528369E+01 -0.12238976117E+03  0.14503752995E+03  0.00000000000E+00 0.  1.
         11    1    1    2    0    0 -0.16604770771E+02  0.52872224740E+00  0.78657179537E-01  0.16613372521E+02  0.00000000000E+00 0. -1.
</event>
<event>
 7    1  0.2690635E-009  0.1612436E+03  0.7561462E-02  0.1187300E+00
          1   -1    0    0  501    0  0.00000000000E+00  0.00000000000E+00  0.85052950554E+03  0.85052950554E+03  0.00000000000E+00 0. -1.
         -1   -1    0    0    0  501 -0.00000000000E+00 -0.00000000000E+00 -0.41073126067E+02  0.41073126067E+02  0.00000000000E+00 0.  1.
         25    2    1    2    0    0  0.38391573817E+02 -0.13322387750E+03  0.57861869675E+03  0.60800351076E+03  0.12508460492E+03 0.  0.
          5    1    3    3  502    0  0.42599132832E+02 -0.15118377283E+03  0.55936246989E+03  0.58101210349E+03  0.41800000000E+01 0. -1.
         -5    1    3    3    0  502 -0.42075590149E+01  0.17959895332E+02  0.19256226863E+02  0.26991407267E+02  0.41800000000E+01 0. -1.
        -11    1    1    2    0    0  0.11155695503E+02  0.28038413400E+02  0.64225581342E+01  0.30852089413E+02  0.00000000000E+00 0.  1.
         11    1    1    2    0    0 -0.49547269320E+02  0.10518546410E+03  0.22441512459E+03  0.25274703144E+03  0.00000000000E+00 0. -1.
</event>
<event>
 7    1  0.2690635E-009  0.1586461E+03  0.7561462E-02  0.1190234E+00
          2   -1    0    0  501    0  0.00000000000E+00  0.00000000000E+00  0.65687798158E+03  0.65687798158E+03  0.00000000000E+00 0. -1.
         -2   -1    0    0    0  501 -0.00000000000E+00 -0.00000000000E+00 -0.42348020984E+02  0.42348020984E+02  0.00000000000E+00 0.  1.
         25    2    1    2    0    0  0.10433888725E+03  0.71238305477E+02  0.32089180089E+03  0.36685282212E+03  0.12509174897E+03 0.  0.
          5    1    3    3  502    0 -0.19938020380E+02  0.38075960064E+02  0.44711021171E+02  0.62159884215E+02  0.41800000000E+01 0.  1.
         -5    1    3    3    0  502  0.12427690763E+03  0.33162345413E+02  0.27618077972E+03  0.30469293790E+03  0.41800000000E+01 0.  1.
        -11    1    1    2    0    0 -0.10785600569E+03 -0.41648801532E+02  0.27198412804E+03  0.29553833345E+03  0.00000000000E+00 0. -1.
         11    1    1    2    0    0  0.35171184379E+01 -0.29589503945E+02  0.21654031667E+02  0.36834846996E+02  0.00000000000E+00 0.  1.
</event>
<event>
 7    1  0.2690635E-009  0.7349720E+02  0.7561462E-02  0.1348589E+00
         -2   -1    0    0    0  501 -0.00000000000E+00  0.00000000000E+00  0.68562206782E+02  0.68562206782E+02  0.00000000000E+00 0. -1.
          2   -1    0    0  501    0  0.00000000000E+00 -0.00000000000E+00 -0.19347517035E+03  0.19347517035E+03  0.00000000000E+00 0.  1.
         25    2    1    2    0    0 -0.39964872900E+02  0.69399194082E+01 -0.85114393570E+02  0.15664485459E+03  0.12509115448E+03 0.  0.
          5    1    3    3  502    0  0.14735505194E+02 -0.13500245713E+02  0.24792837046E+02  0.32117735232E+02  0.41800000000E+01 0.  1.
         -5    1    3    3    0  502 -0.54700378094E+02  0.20440165121E+02 -0.10990723062E+03  0.12452711936E+03  0.41800000000E+01 0.  1.
        -11    1    1    2    0    0  0.53538373778E+02 -0.19578142115E+01 -0.60072023882E+02  0.80491232794E+02  0.00000000000E+00 0.  1.
         11    1    1    2    0    0 -0.13573500878E+02 -0.49821051967E+01  0.20273453890E+02  0.24901289743E+02  0.00000000000E+00 0. -1.
</event>
<event>
 7    1  0.2690635E-009  0.1109967E+03  0.7561462E-02  0.1258735E+00
          1   -1    0    0  501    0  0.00000000000E+00  0.00000000000E+00  0.22031450703E+03  0.22031450703E+03  0.00000000000E+00 0. -1.
         -1   -1    0    0    0  501 -0.00000000000E+00 -0.00000000000E+00 -0.16853127556E+03  0.16853127556E+03  0.00000000000E+00 0.  1.
         25    2    1    2    0    0 -0.45255372793E+02 -0.54630613279E+02 -0.11618265579E+03  0.18487451023E+03  0.12509045667E+03 0.  0.
          5    1    3    3  502    0 -0.36298673351E+02 -0.75456569063E+02 -0.20301022221E+02  0.86260601696E+02  0.41800000000E+01 0.  1.
         -5    1    3    3    0  502 -0.89566994425E+01  0.20825955784E+02 -0.95881633572E+02  0.98613908531E+02  0.41800000000E+01 0.  1.
        -11    1    1    2    0    0  0.40381923574E+02  0.79816436935E+02  0.12124310136E+03  0.15066934985E+03  0.00000000000E+00 0. -1.
         11    1    1    2    0    0  0.48734492198E+01 -0.25185823656E+02  0.46722785907E+02  0.53301922511E+02  0.00000000000E+00 0.  1.
</event>
<event>
 7    1  0.2690635E-009  0.1451107E+03  0.7561462E-02  0.1206613E+00
          2   -1    0    0  501    0  0.00000000000E+00  0.00000000000E+00  0.47641435985E+03  0.47641435985E+03  0.00000000000E+00 0. -1.
         -2   -1    0    0    0  501 -0.00000000000E+00 -0.00000000000E+00 -0.59422447314E+02  0.59422447314E+02  0.00000000000E+00 0.  1.
         25    2    1    2    0    0  0.94238295396E+02  0.84729529841E+02  0.19168974410E+03  0.26163466299E+03  0.12509112414E+03 0.  0.
          5    1    3    3  502    0  0.45434510151E+02 -0.14776647027E+02  0.12088645636E+03  0.13005249610E+03  0.41800000000E+01 0. -1.
         -5    1    3    3    0  502  0.48803785245E+02  0.99506176867E+02  0.70803287740E+02  0.13158216689E+03  0.41800000000E+01 0. -1.
        -11    1    1    2    0    0 -0.33794312062E+02 -0.53599486585E+02  0.35589677547E+02  0.72674518491E+02  0.00000000000E+00 0.  1.
         11    1    1    2    0    0 -0.60443983334E+02 -0.31130043256E+02  0.18971249089E+03  0.20152762568E+03  0.00000000000E+00 0. -1.
</event>
<event>
 7    1  0.2690635E-009  0.1257165E+03  0.7561462E-02  0.1233954E+00
          1   -1    0    0  501    0  0.00000000000E+00  0.00000000000E+00  0.81636839906E+03  0.81636839906E+03  0.00000000000E+00 0.  1.
         -1   -1    0    0    0  501 -0.00000000000E+00 -0.00000000000E+00 -0.23907015393E+02  0.23907015393E+02  0.00000000000E+00 0. -1.
         25    2    1    2    0    0 -0.58836402198E+02 -0.51801478880E+02  0.34894009738E+03  0.37888297230E+03  0.12509196497E+03 0.  0.
          5    1    3    3  502    0 -0.55957123574E+02  0.15567230292E+02  0.66127109957E+02  0.88112458874E+02  0.41800000000E+01 0.  1.
         -5    1    3    3    0  502 -0.28792786244E+01 -0.67368709172E+02  0.28281298742E+03  0.29077051342E+03  0.41800000000E+01 0.  1.
        -11    1    1    2    0    0  0.75629526908E+02  0.48593580467E+01  0.30133643358E+03  0.31072026793E+03  0.00000000000E+00 0.  1.
         11    1    1    2    0    0 -0.16793124710E+02  0.46942120834E+02  0.14218485271E+03  0.15067217423E+03  0.00000000000E+00 0. -1.
</event>
<event>
 7    1  0.2690635E-009  0.2896465E+03  0.7561462E-02  0.1090534E+00
         -2   -1    0    0    0  501 -0.00000000000E+00  0.00000000000E+00  0.36372214163E+03  0.36372214163E+03  0.00000000000E+00 0.  1.
          2   -1    0    0  501    0  0.00000000000E+00 -0.00000000000E+00 -0.29568483450E+03  0.29568483450E+03  0.00000000000E+00 0. -1.
         25    2    1    2    0    0 -0.21017011338E+03 -0.18044953857E+03 -0.92562956848E+02  0.31772737451E+03  0.12509704635E+03 0.  0.
          5    1    3    3  502    0 -0.15488298125E+03 -0.66420488142E+02 -0.15350378477E+02  0.16927352317E+03  0.41800000000E+01 0. -1.
         -5    1    3    3    0  502 -0.55287132129E+02 -0.11402905043E+03 -0.77212578371E+02  0.14845385135E+03  0.41800000000E+01 0. -1.
        -11    1    1    2    0    0  0.80207441393E+02  0.10986935991E+03  0.19767938771E+02  0.13746010805E+03  0.00000000000E+00 0. -1.
         11    1    1    2    0    0  0.12996267198E+03  0.70580178658E+02  0.14083232521E+03  0.20421949357E+03  0.00000000000E+00 0.  1.
</event>
<event>
 7    1  0.2690635E-009  0.1397528E+03  0.7561462E-02  0.1213662E+00
         -1   -1    0    0    0  501 -0.00000000000E+00  0.00000000000E+00  0.74537584659E+02  0.74537584659E+02  0.00000000000E+00 0. -1.
          1   -1    0    0  501    0  0.00000000000E+00 -0.00000000000E+00 -0.43681244310E+03  0.43681244310E+03  0.00000000000E+00 0.  1.
         25    2    1    2    0    0  0.92400383689E+02 -0.87041014059E+02 -0.29019231145E+03  0.34054880993E+03  0.12509174747E+03 0.  0.
          5    1    3    3  502    0  0.70584356094E+02 -0.82173518918E+02 -0.95318708993E+02  0.14435292592E+03  0.41800000000E+01 0.  1.
         -5    1    3    3    0  502  0.21816027595E+02 -0.48674951407E+01 -0.19487360245E+03  0.19619588401E+03  0.41800000000E+01 0.  1.
        -11    1    1    2    0    0 -0.45454553675E+02  0.90512118996E+02 -0.25218591533E+02  0.10437690115E+03  0.00000000000E+00 0. -1.
         11    1    1    2    0    0 -0.46945830014E+02 -0.34711049377E+01 -0.46863955464E+02  0.66424316684E+02  0.00000000000E+00 0.  1.
</event>
<event>
 7    1  0.2690635E-009  0.1263919E+03  0.7561462E-02  0.1232910E+00
          2   -1    0    0  501    0  0.00000000000E+00  0.00000000000E+00  0.35961357833E+03  0.35961357833E+03  0.00000000000E+00 0. -1.
         -2   -1    0    0    0  501 -0.00000000000E+00 -0.00000000000E+00 -0.49831739299E+02  0.49831739299E+02  0.00000000000E+00 0.  1.
         25    2    1    2    0    0 -0.18358037531E+02 -0.73672528378E+02  0.16422143619E+03  0.21995541217E+03  0.12508814595E+03 0.  0.
          5    1    3    3  502    0 -0.63596235252E+02 -0.41804442698E+02  0.14000484132E+03  0.15940803167E+03  0.41800000000E+01 0.  1.
         -5    1    3    3    0  502  0.45238197721E+02 -0.31868085681E+02  0.24216594871E+02  0.60547380498E+02  0.41800000000E+01 0.  1.
        -11    1    1    2    0    0  0.24186958353E+02 -0.17409733153E+02  0.30735574449E+02  0.42811018436E+02  0.00000000000E+00 0.  1.
         11    1    1    2    0    0 -0.58289208218E+01  0.91082261532E+02  0.11482482838E+03  0.14667888702E+03  0.00000000000E+00 0. -1.
</event>
<event>
 7    1  0.2690635E-009  0.9962468E+02  0.7561462E-02  0.1281087E+00
         -4   -1    0    0    0  501 -0.00000000000E+00  0.00000000000E+00  0.12331894285E+03  0.12331894285E+03  0.00000000000E+00 0. -1.
          4   -1    0    0  501    0  0.00000000000E+00 -0.00000000000E+00 -0.11770731106E+03  0.11770731106E+03  0.00000000000E+00 0.  1.
         25    2    1    2    0    0  0.49601361360E+02  0.17311612440E+02  0.19680514109E+01  0.13569455205E+03  0.12509656772E+03 0.  0.
          5    1    3    3  502    0  0.88176946870E+01  0.50839893787E+02  0.44110462036E+02  0.68012144510E+02  0.41800000000E+01 0. -1.
         -5    1    3    3    0  502  0.40783666673E+02 -0.33528281347E+02 -0.42142410625E+02  0.67682407542E+02  0.41800000000E+01 0. -1.
        -11    1    1    2    0    0 -0.67156405525E+02  0.35556278971E+01 -0.19004052972E+02  0.69884041970E+02  0.00000000000E+00 0. -1.
         11    1    1    2    0    0  0.17555044165E+02 -0.20867240337E+02  0.22647633354E+02  0.35447659887E+02  0.00000000000E+00 0.  1.
</event>
<event>
 7    1  0.2690635E-009  0.1082756E+03  0.7561462E-02  0.1263797E+00
          1   -1    0    0  501    0  0.00000000000E+00  0.00000000000E+00  0.76150259022E+02  0.76150259022E+02  0.00000000000E+00 0. -1.
         -1   -1    0    0    0  501 -0.00000000000E+00 -0.00000000000E+00 -0.24435028566E+03  0.24435028566E+03  0.00000000000E+00 0.  1.
         25    2    1    2    0    0  0.24487490673E+02  0.45402744707E+02 -0.16751264645E+03  0.21533585036E+03  0.12509194739E+03 0.  0.
          5    1    3    3  502    0  0.34395322628E+02  0.84104033937E+02 -0.13884395837E+03  0.16598687876E+03  0.41800000000E+01 0.  1.
         -5    1    3    3    0  502 -0.99078319543E+01 -0.38701289230E+02 -0.28668688077E+02  0.49348971602E+02  0.41800000000E+01 0.  1.
        -11    1    1    2    0    0  0.22736394219E+02 -0.50146727128E+01  0.28258203423E+02  0.36614431925E+02  0.00000000000E+00 0. -1.
         11    1    1    2    0    0 -0.47223884892E+02 -0.40388071994E+02 -0.28945583607E+02  0.68550262393E+02  0.00000000000E+00 0.  1.
</event>
<event>
 7    1  0.2690635E-009  0.1780930E+03  0.7561462E-02  0.1169661E+00
          2   -1    0    0  501    0  0.00000000000E+00  0.00000000000E+00  0.11482493199E+04  0.11482493199E+04  0.00000000000E+00 0. -1.
         -2   -1    0    0    0  501 -0.00000000000E+00 -0.00000000000E+00 -0.36954145199E+02  0.36954145199E+02  0.00000000000E+00 0.  1.
         25    2    1    2    0    0  0.50609533352E+02 -0.14386022148E+03  0.83338360609E+03  0.85640672141E+03  0.12508856616E+03 0.  0.
          5    1    3    3  502    0  0.62473558504E+02 -0.16560611523E+02  0.37303909704E+03  0.37861965042E+03  0.41800000000E+01 0.  1.
         -5    1    3    3    0  502 -0.11864025152E+02 -0.12729960996E+03  0.46034450906E+03  0.47778707099E+03  0.41800000000E+01 0.  1.
        -11    1    1    2    0    0 -0.40565007435E+02  0.33294114817E+02  0.39110405560E+02  0.65449535772E+02  0.00000000000E+00 0. -1.
         11    1    1    2    0    0 -0.10044525917E+02  0.11056610666E+03  0.23880116304E+03  0.26334720790E+03  0.00000000000E+00 0.  1.
</event>
<event>
 7    1  0.2690635E-009  0.1709419E+03  0.7561462E-02  0.1176869E+00
         -2   -1    0    0    0  501 -0.00000000000E+00  0.00000000000E+00  0.17212713362E+02  0.17212713362E+02  0.00000000000E+00 0.  1.
          2   -1    0    0  501    0  0.00000000000E+00 -0.00000000000E+00 -0.29216559109E+04  0.29216559109E+04  0.00000000000E+00 0. -1.
         25    2    1    2    0    0 -0.57562302764E+02 -0.13500414531E+03 -0.23583003543E+04  0.23661714418E+04  0.12508874104E+03 0.  0.
          5    1    3    3  502    0 -0.65703454449E+02 -0.14775025577E+03 -0.16985797226E+04  0.17062642317E+04  0.41800000000E+01 0. -1.
         -5    1    3    3    0  502  0.81411516844E+01  0.12746110460E+02 -0.65972063165E+03  0.65990721007E+03  0.41800000000E+01 0. -1.
        -11    1    1    2    0    0 -0.16811836480E+02  0.42753886389E+02 -0.24127961465E+03  0.24561430148E+03  0.00000000000E+00 0. -1.
         11    1    1    2    0    0  0.74374139244E+02  0.92250258920E+02 -0.30486322860E+03  0.32708288095E+03  0.00000000000E+00 0.  1.
</event>
<event>
 7    1  0.2690635E-009  0.1642618E+03  0.7561462E-02  0.1183968E+00
         -2   -1    0    0    0  501 -0.00000000000E+00  0.00000000000E+00  0.10169122585E+03  0.10169122585E+03  0.00000000000E+00 0.  1.
          2   -1    0    0  501    0  0.00000000000E+00 -0.00000000000E+00 -0.47852312505E+03  0.47852312505E+03  0.00000000000E+00 0. -1.
         25    2    1    2    0    0  0.67359999731E+02 -0.11330852046E+03 -0.37885741105E+03  0.42018546931E+03  0.12508677125E+03 0.  0.
          5    1    3    3  502    0  0.94784678119E+02 -0.11341127927E+03 -0.35098739655E+03  0.38086202017E+03  0.41800000000E+01 0.  1.
         -5    1    3    3    0  502 -0.27424678388E+02  0.10275880995E+00 -0.27870014493E+02  0.39323449135E+02  0.41800000000E+01 0.  1.
        -11    1    1    2    0    0 -0.67442522834E+02  0.37611857280E+02  0.24587548646E+02  0.81041305781E+02  0.00000000000E+00 0.  1.
         11    1    1    2    0    0  0.82523103448E-01  0.75696663184E+02 -0.22562036803E+02  0.78987575808E+02  0.00000000000E+00 0. -1.
</event>
<event>
 7    1  0.2690635E-009  0.1141463E+03  0.7561462E-02  0.1253079E+00
          2   -1    0    0  501    0  0.00000000000E+00  0.00000000000E+00  0.20083262364E+03  0.20083262364E+03  0.00000000000E+00 0. -1.
         -2   -1    0    0    0  501 -0.00000000000E+00 -0.00000000000E+00 -0.67217139455E+02  0.67217139455E+02  0.00000000000E+00 0.  1.
         25    2    1    2    0    0  0.42572462975E+00  0.37735129329E+02  0.55540222532E+02  0.14197205280E+03  0.12508887333E+03 0.  0.
          5    1    3    3  502    0  0.62446532142E+02  0.18609622974E+02  0.22815150780E+02  0.69165677535E+02  0.41800000000E+01 0.  1.
         -5    1    3    3    0  502 -0.62020807512E+02  0.19125506356E+02  0.32725071753E+02  0.72806375263E+02  0.41800000000E+01 0.  1.
        -11    1    1    2    0    0  0.29812088923E+02  0.17804115436E+02  0.36609826914E+02  0.50458166822E+02  0.00000000000E+00 0. -1.
         11    1    1    2    0    0 -0.30237813552E+02 -0.55539244765E+02  0.41465434741E+02  0.75619543478E+02  0.00000000000E+00 0.  1.
</event>
<event>
 7    1  0.2690635E-009  0.1435211E+03  0.7561462E-02  0.1208668E+00
          2   -1    0    0  501    0  0.00000000000E+00  0.00000000000E+00  0.47863821681E+03  0.47863821681E+03  0.00000000000E+00 0. -1.
         -2   -1    0    0    0  501 -0.00000000000E+00 -0.00000000000E+00 -0.54632296221E+02  0.54632296221E+02  0.00000000000E+00 0.  1.
         25    2    1    2    0    0  0.39448811667E+02  0.10773061675E+03  0.17216295303E+03  0.24176152991E+03  0.12508581223E+03 0.  0.
          5    1    3    3  502    0  0.14098519528E+02 -0.11537150596E+02 -0.10998325870E+02  0.21686624189E+02  0.41800000000E+01 0.  1.
         -5    1    3    3    0  502  0.25350292139E+02  0.11926776735E+03  0.18316127890E+03  0.22007490572E+03  0.41800000000E+01 0.  1.
        -11    1    1    2    0    0 -0.55111723262E+02 -0.22233387082E+02  0.11374546149E+03  0.12833415582E+03  0.00000000000E+00 0.  1.
         11    1    1    2    0    0  0.15662911595E+02 -0.85497229669E+02  0.13809750608E+03  0.16317482730E+03  0.00000000000E+00 0. -1.
</event>
<event>
 7    1  0.2690635E-009  0.1045660E+03  0.7561462E-02  0.1270977E+00
         -1   -1    0    0    0  501 -0.00000000000E+00  0.00000000000E+00  0.90112631654E+02  0.90112631654E+02  0.00000000000E+00 0.  1.
          1   -1    0    0  501    0  0.00000000000E+00 -0.00000000000E+00 -0.14361801017E+03  0.14361801017E+03  0.00000000000E+00 0. -1.
         25    2    1    2    0    0 -0.10390518710E+02 -0.50470895497E+01 -0.63787492714E+02  0.14088953550E+03  0.12509029137E+03 0.  0.
          5    1    3    3  502    0  0.21878953728E+02 -0.55391342782E+02 -0.10366761393E+02  0.60595640216E+02  0.41800000000E+01 0.  1.
         -5    1    3    3    0  502 -0.32269472437E+02  0.50344253232E+02 -0.53420731322E+02  0.80293895284E+02  0.41800000000E+01 0.  1.
        -11    1    1    2    0    0  0.49200717832E+02  0.10457646585E+02  0.16977396413E+02  0.53087710407E+02  0.00000000000E+00 0.  1.
         11    1    1    2    0    0 -0.38810199122E+02 -0.54105570348E+01 -0.66952822176E+01  0.39753395921E+02  0.00000000000E+00 0. -1.
</event>
<event>
 7    1  0.2690635E-009  0.1183468E+03  0.7561462E-02  0.1245850E+00
          2   -1    0    0  501    0  0.00000000000E+00  0.00000000000E+00  0.73778608412E+03  0.73778608412E+03  0.00000000000E+00 0. -1.
         -2   -1    0    0    0  501 -0.00000000000E+00 -0.00000000000E+00 -0.34770772764E+02  0.34770772764E+02  0.00000000000E+00 0.  1.
         25    2    1    2    0    0 -0.89596884200E+02  0.34370903042E+02  0.53991469013E+03  0.56246356625E+03  0.12509368534E+03 0.  0.
          5    1    3    3  502    0 -0.34565167929E+02 -0.34387393712E+02  0.77051798875E+02  0.91278123284E+02  0.41800000000E+01 0. -1.
         -5    1    3    3    0  502 -0.55031716271E+02  0.68758296754E+02  0.46286289125E+03  0.47118544297E+03  0.41800000000E+01 0. -1.
        -11    1    1    2    0    0  0.45750380207E+02 -0.31703833616E+02  0.18016472599E+02  0.58504902700E+02  0.00000000000E+00 0.  1.
         11    1    1    2    0    0  0.43846503993E+02 -0.26670694257E+01  0.14508414863E+03  0.15158838793E+03  0.00000000000E+00 0. -1.
</event>
<event>
 7    1  0.2690635E-009  0.9828975E+02  0.7561462E-02  0.1283934E+00
         -1   -1    0    0    0  501 -0.00000000000E+00  0.00000000000E+00  0.32327983412E+03  0.32327983412E+03  0.00000000000E+00 0.  1.
          1   -1    0    0  501    0  0.00000000000E+00 -0.00000000000E+00 -0.41074254214E+02  0.41074254214E+02  0.00000000000E+00 0. -1.
         25    2    1    2    0    0 -0.29539384246E+02 -0.27044923995E+02  0.13253841943E+03  0.18659500088E+03  0.12508900269E+03 0.  0.
          5    1    3    3  502    0 -0.10918808086E+02 -0.74590828046E+02  0.54005947987E+02  0.92828480632E+02  0.41800000000E+01 0.  1.
         -5    1    3    3    0  502 -0.18620576160E+02  0.47545904050E+02  0.78532471439E+02  0.93766520245E+02  0.41800000000E+01 0.  1.
        -11    1    1    2    0    0  0.30491692078E+02 -0.10529499829E+02  0.13262091728E+03  0.13648780661E+03  0.00000000000E+00 0.  1.
         11    1    1    2    0    0 -0.95230783205E+00  0.37574423824E+02  0.17046243204E+02  0.41271280854E+02  0.00000000000E+00 0. -1.
</event>
<event>
 7    1  0.2690635E-009  0.8644943E+02  0.7561462E-02  0.1311685E+00
          4   -1    0    0  501    0  0.00000000000E+00  0.00000000000E+00  0.15039680524E+03  0.15039680524E+03  0.00000000000E+00 0. -1.
         -4   -1    0    0    0  501 -0.00000000000E+00 -0.00000000000E+00 -0.80095623236E+02  0.80095623236E+02  0.00000000000E+00 0.  1.
         25    2    1    2    0    0  0.12529659254E+02  0.12450739249E+02  0.45329565997E+02  0.13421826364E+03  0.12509100476E+03 0.  0.
          5    1    3    3  502    0 -0.22807448157E+02  0.55773994034E+02 -0.26026292259E+01  0.60457953826E+02  0.41800000000E+01 0. -1.
         -5    1    3    3    0  502  0.35337107412E+02 -0.43323254785E+02  0.47932195223E+02  0.73760309817E+02  0.41800000000E+01 0. -1.
        -11    1    1    2    0    0 -0.28818495567E+02 -0.23132974041E+02 -0.23664554417E+02  0.43882243681E+02  0.00000000000E+00 0.  1.
         11    1    1    2    0    0  0.16288836313E+02  0.10682234791E+02  0.48636170425E+02  0.52391921154E+02  0.00000000000E+00 0. -1.
</event>
<event>
 7    1  0.2690635E-009  0.7015793E+02  0.7561462E-02  0.1359557E+00
         -1   -1    0    0    0  501 -0.00000000000E+00  0.00000000000E+00  0.27324389027E+02  0.27324389027E+02  0.00000000000E+00 0.  1.
          1   -1    0    0  501    0  0.00000000000E+00 -0.00000000000E+00 -0.53342354303E+03  0.53342354303E+03  0.00000000000E+00 0. -1.
         25    2    1    2    0    0 -0.40085488830E+01 -0.21834135545E+02 -0.17143355856E+03  0.21337516252E+03  0.12508675805E+03 0.  0.
          5    1    3    3  502    0 -0.17645871528E+02 -0.26710101322E+02 -0.18813047634E+03  0.19088047260E+03  0.41800000000E+01 0. -1.
         -5    1    3    3    0  502  0.13637322645E+02  0.48759657766E+01  0.16696917774E+02  0.22494689914E+02  0.41800000000E+01 0. -1.
        -11    1    1    2    0    0 -0.23064695346E+02 -0.27980490596E+02 -0.13987917217E+03  0.14450284022E+03  0.00000000000E+00 0.  1.
         11    1    1    2    0    0  0.27073244229E+02  0.49814626141E+02 -0.19478642328E+03  0.20286992932E+03  0.00000000000E+00 0. -1.
</event>
<event>
 7    1  0.2690635E-009  0.8257721E+02  0.7561462E-02  0.1321893E+00
         -1   -1    0    0    0  501 -0.00000000000E+00  0.00000000000E+00  0.82239471953E+02  0.82239471953E+02  0.00000000000E+00 0. -1.
          1   -1    0    0  501    0  0.00000000000E+00 -0.00000000000E+00 -0.18339588748E+03  0.18339588748E+03  0.00000000000E+00 0.  1.
         25    2    1    2    0    0  0.55710049691E+02  0.36477590972E+01 -0.70404393947E+02  0.15401220701E+03  0.12508423337E+03 0.  0.
          5    1    3    3  502    0 -0.15974094622E+02 -0.15952512977E+02 -0.75977734632E+02  0.79370919921E+02  0.41800000000E+01 0. -1.
         -5    1    3    3    0  502  0.71684144313E+02  0.19600272075E+02  0.55733406857E+01  0.74641287085E+02  0.41800000000E+01 0. -1.
        -11    1    1    2    0    0 -0.32658858989E+01 -0.13940204314E+02  0.28460016517E+02  0.31858560030E+02  0.00000000000E+00 0. -1.
         11    1    1    2    0    0 -0.52444163792E+02  0.10292445217E+02 -0.59212038096E+02  0.79764592395E+02  0.00000000000E+00 0.  1.
</event>
<event>
 7    1  0.2690635E-009  0.9526034E+02  0.7561462E-02  0.1290591E+00
         -1   -1    0    0    0  501 -0.00000000000E+00  0.00000000000E+00  0.30819928912E+02  0.30819928912E+02  0.00000000000E+00 0. -1.
          1   -1    0    0  501    0  0.00000000000E+00 -0.00000000000E+00 -0.46536446873E+03  0.46536446873E+03  0.00000000000E+00 0.  1.
         25    2    1    2    0    0  0.39809951673E+02 -0.41851164809E+01 -0.27495154744E+03  0.30470937178E+03  0.12508837019E+03 0.  0.
          5    1    3    3  502    0 -0.32798661399E+02 -0.18776120943E+02 -0.18127649792E+03  0.18522131629E+03  0.41800000000E+01 0.  1.
         -5    1    3    3    0  502  0.72608613072E+02  0.14591004462E+02 -0.93675049516E+02  0.11948805549E+03  0.41800000000E+01 0.  1.
        -11    1    1    2    0    0 -0.10273475244E+02 -0.30838029331E+02 -0.13621614768E+03  0.14004059138E+03  0.00000000000E+00 0.  1.
         11    1    1    2    0    0 -0.29536476429E+02  0.35023145812E+02 -0.23376844704E+02  0.51434434484E+02  0.00000000000E+00 0. -1.
</event>
<event>
 7    1  0.2690635E-009  0.1462652E+03  0.7561462E-02  0.1205139E+00
         -2   -1    0    0    0  501 -0.00000000000E+00  0.00000000000E+00  0.60175300156E+02  0.60175300156E+02  0.00000000000E+00 0. -1.
          2   -1    0    0  501    0  0.00000000000E+00 -0.00000000000E+00 -0.56890711162E+03  0.56890711162E+03  0.00000000000E+00 0.  1.
         25    2    1    2    0    0 -0.75693762790E+02 -0.63712257251E+02 -0.77740271318E+02  0.17742517206E+03  0.12508934586E+03 0.  0.
          5    1    3    3  502    0  0.17938716014E+02 -0.63031715875E+02 -0.29084567621E+02  0.71820465134E+02  0.41800000000E+01 0.  1.
         -5    1    3    3    0  502 -0.93632478805E+02 -0.68054137612E+00 -0.48655703697E+02  0.10560470693E+03  0.41800000000E+01 0.  1.
        -11    1    1    2    0    0  0.95732820004E+02  0.45255211126E+02 -0.37006841713E+03  0.38492004406E+03  0.00000000000E+00 0.  1.
         11    1    1    2    0    0 -0.20039057214E+02  0.18457046125E+02 -0.60923123009E+02  0.66737195647E+02  0.00000000000E+00 0. -1.
</event>
<event>
 7    1  0.2690635E-009  0.1108685E+03  0.7561462E-02  0.1258970E+00
         -2   -1    0    0    0  501 -0.00000000000E+00  0.00000000000E+00  0.14855784222E+02  0.14855784222E+02  0.00000000000E+00 0.  1.
          2   -1    0    0  501    0  0.00000000000E+00 -0.00000000000E+00 -0.10536495457E+04  0.10536495457E+04  0.00000000000E+00 0. -1.
         25    2    1    2    0    0 -0.82160064227E+01  0.29597446263E+02 -0.81936503813E+03  0.82942680382E+03  0.12508495354E+03 0.  0.
          5    1    3    3  502    0 -0.64311383950E+02  0.32784756254E+02 -0.48047928165E+03  0.48588950065E+03  0.41800000000E+01 0.  1.
         -5    1    3    3    0  502  0.56095377528E+02 -0.31873099911E+01 -0.33888575648E+03  0.34353730317E+03  0.41800000000E+01 0.  1.
        -11    1    1    2    0    0  0.47868370235E+02 -0.22144727959E+02 -0.10060855838E+03  0.11359512254E+03  0.00000000000E+00 0.  1.
         11    1    1    2    0    0 -0.39652363813E+02 -0.74527183039E+01 -0.11882016496E+03  0.12548340356E+03  0.00000000000E+00 0. -1.
</event>
<event>
 7    1  0.2690635E-009  0.1009302E+03  0.7561462E-02  0.1278352E+00
          4   -1    0    0  501    0  0.00000000000E+00  0.00000000000E+00  0.16151724421E+03  0.16151724421E+03  0.00000000000E+00 0. -1.
         -4   -1    0    0    0  501 -0.00000000000E+00 -0.00000000000E+00 -0.10530247343E+03  0.10530247343E+03  0.00000000000E+00 0.  1.
         25    2    1    2    0    0 -0.61976592199E+02  0.24259295121E+02 -0.21878556738E+00  0.14169435625E+03  0.12509049262E+03 0.  0.
          5    1    3    3  502    0 -0.37224434418E+02  0.49038041643E+02  0.50622727616E+02  0.79815543581E+02  0.41800000000E+01 0. -1.
         -5    1    3    3    0  502 -0.24752157781E+02 -0.24778746522E+02 -0.50841513183E+02  0.61878812664E+02  0.41800000000E+01 0. -1.
        -11    1    1    2    0    0  0.62445377934E+02 -0.49469377396E+02  0.22373672265E+02  0.82747965147E+02  0.00000000000E+00 0.  1.
         11    1    1    2    0    0 -0.46878573573E+00  0.25210082275E+02  0.34059884089E+02  0.42377396245E+02  0.00000000000E+00 0. -1.
</event>
<event>
 7    1  0.2690635E-009  0.9152271E+02  0.7561462E-02  0.1299206E+00
          1   -1    0    0  501    0  0.00000000000E+00  0.00000000000E+00  0.10561544751E+04  0.10561544751E+04  0.00000000000E+00 0. -1.
         -1   -1    0    0    0  501 -0.00000000000E+00 -0.00000000000E+00 -0.17116145344E+02  0.17116145344E+02  0.00000000000E+00 0.  1.
         25    2    1    2    0    0 -0.60988264306E+02 -0.14687429966E+02  0.75325332732E+03  0.76614240229E+03  0.12509323113E+03 0.  0.
          5    1    3    3  502    0 -0.61437216263E+02 -0.42062816514E+02  0.71519839242E+03  0.71907581310E+03  0.41800000000E+01 0.  1.
         -5    1    3    3    0  502  0.44895195622E+00  0.27375386548E+02  0.38054934907E+02  0.47066589183E+02  0.41800000000E+01 0.  1.
        -11    1    1    2    0    0  0.93706022619E+01  0.26255035326E+02  0.15868603243E+02  0.32077213651E+02  0.00000000000E+00 0.  1.
         11    1    1    2    0    0  0.51617662044E+02 -0.11567605360E+02  0.26991639918E+03  0.27505100450E+03  0.00000000000E+00 0. -1.
</event>
<event>
 7    1  0.2690635E-009  0.7170681E+02  0.7561462E-02  0.1354383E+00
         -2   -1    0    0    0  501 -0.00000000000E+00  0.00000000000E+00  0.15491400459E+03  0.15491400459E+03  0.00000000000E+00 0.  1.
          2   -1    0    0  501    0  0.00000000000E+00 -0.00000000000E+00 -0.80213384723E+02  0.80213384723E+02  0.00000000000E+00 0. -1.
         25    2    1    2    0    0 -0.14839744380E+02  0.53094480592E+01  0.43859320511E+02  0.13349299622E+03  0.12509329235E+03 0.  0.
          5    1    3    3  502    0  0.15075271123E+02  0.56272727516E+01 -0.40558312506E+02  0.43833538659E+02  0.41800000000E+01 0. -1.
         -5    1    3    3    0  502 -0.29915015503E+02 -0.31782469245E+00  0.84417633017E+02  0.89659457556E+02  0.41800000000E+01 0. -1.
        -11    1    1    2    0    0  0.34563841060E+01 -0.50174956351E+02  0.12331757433E+02  0.51783637158E+02  0.00000000000E+00 0. -1.
         11    1    1    2    0    0  0.11383360274E+02  0.44865508292E+02  0.18509541920E+02  0.49850755937E+02  0.00000000000E+00 0.  1.
</event>
<event>
 7    1  0.2690635E-009  0.1172647E+03  0.7561462E-02  0.1247679E+00
         -1   -1    0    0    0  501 -0.00000000000E+00  0.00000000000E+00  0.86179027330E+02  0.86179027330E+02  0.00000000000E+00 0.  1.
          1   -1    0    0  501    0  0.00000000000E+00 -0.00000000000E+00 -0.25386261778E+03  0.25386261778E+03  0.00000000000E+00 0. -1.
         25    2    1    2    0    0 -0.17652922004E+02  0.82854163393E+02 -0.15167674549E+03  0.21407397846E+03  0.12508155373E+03 0.  0.
          5    1    3    3  502    0  0.38058765211E+02  0.50376700000E+02 -0.18302754465E+02  0.65869148569E+02  0.41800000000E+01 0. -1.
         -5    1    3    3    0  502 -0.55711687215E+02  0.32477463393E+02 -0.13337399102E+03  0.14820482989E+03  0.41800000000E+01 0. -1.
        -11    1    1    2    0    0  0.34712931922E+02 -0.82569369028E+02  0.14768595191E+02  0.90778850776E+02  0.00000000000E+00 0.  1.
         11    1    1    2    0    0 -0.17060009918E+02 -0.28479436535E+00 -0.30775440149E+02  0.35188815873E+02  0.00000000000E+00 0. -1.
</event>
<event>
 7    1  0.2690635E-009  0.1143111E+03  0.7561462E-02  0.1252788E+00
         -4   -1    0    0    0  501 -0.00000000000E+00  0.00000000000E+00  0.30055775017E+03  0.30055775017E+03  0.00000000000E+00 0. -1.
          4   -1    0    0  501    0  0.00000000000E+00 -0.00000000000E+00 -0.84816339185E+02  0.84816339185E+02  0.00000000000E+00 0.  1.
         25    2    1    2    0    0  0.93979536233E+02  0.80854424024E+01  0.20165875534E+03  0.25536970969E+03  0.12509958999E+03 0.  0.
          5    1    3    3  502    0  0.10584577802E+03 -0.13205053606E+02  0.85955052561E+02  0.13705271112E+03  0.41800000000E+01 0. -1.
         -5    1    3    3    0  502 -0.11866241788E+02  0.21290496009E+02  0.11570370278E+03  0.11831699857E+03  0.41800000000E+01 0. -1.
        -11    1    1    2    0    0 -0.81339618128E+02 -0.15038276004E+02 -0.26559856193E+02  0.86877552817E+02  0.00000000000E+00 0.  1.
         11    1    1    2    0    0 -0.12639918105E+02  0.69528336012E+01  0.40642511837E+02  0.43126826839E+02  0.00000000000E+00 0. -1.
</event>
<event>
 7    1  0.2690635E-009  0.1310204E+03  0.7561462E-02  0.1225949E+00
         -2   -1    0    0    0  501 -0.00000000000E+00  0.00000000000E+00  0.43352692559E+02  0.43352692559E+02  0.00000000000E+00 0.  1.
          2   -1    0    0  501    0  0.00000000000E+00 -0.00000000000E+00 -0.45814966612E+03  0.45814966612E+03  0.00000000000E+00 0. -1.
         25    2    1    2    0    0  0.44944163784E+02 -0.70468563981E+02 -0.19963130061E+03  0.24997312102E+03  0.12509240058E+03 0.  0.
          5    1    3    3  502    0  0.68002694692E+02  0.35990576990E+01 -0.63337806347E+02  0.93093876354E+02  0.41800000000E+01 0.  1.
         -5    1    3    3    0  502 -0.23058530908E+02 -0.74067621680E+02 -0.13629349426E+03  0.15687924467E+03  0.41800000000E+01 0.  1.
        -11    1    1    2    0    0 -0.13694626963E+02  0.81761777903E+02 -0.19683612327E+03  0.21358134412E+03  0.00000000000E+00 0. -1.
         11    1    1    2    0    0 -0.31249536822E+02 -0.11293213922E+02 -0.18329549682E+02  0.37947893536E+02  0.00000000000E+00 0.  1.
</event>
<event>
 7    1  0.2690635E-009  0.1165097E+03  0.7561462E-02  0.1248969E+00
          1   -1    0    0  501    0  0.00000000000E+00  0.00000000000E+00  0.55933192362E+03  0.55933192362E+03  0.00000000000E+00 0. -1.
         -1   -1    0    0    0  501 -0.00000000000E+00 -0.00000000000E+00 -0.41999752049E+02  0.41999752049E+02  0.00000000000E+00 0.  1.
         25    2    1    2    0    0 -0.43310515447E+02 -0.72311686890E+02  0.41721693464E+03  0.44364720721E+03  0.12509233833E+03 0.  0.
          5    1    3    3  502    0 -0.85500076186E+02 -0.52426051943E+02  0.23565362871E+03  0.25614226335E+03  0.41800000000E+01 0.  1.
         -5    1    3    3    0  502  0.42189560740E+02 -0.19885634947E+02  0.18156330593E+03  0.18750494386E+03  0.41800000000E+01 0.  1.
        -11    1    1    2    0    0  0.11060482749E+02  0.73366822778E+01 -0.15990846592E+02  0.20781442688E+02  0.00000000000E+00 0.  1.
         11    1    1    2    0    0  0.32250032698E+02  0.64975004612E+02  0.11610608352E+03  0.13690302577E+03  0.00000000000E+00 0. -1.
</event>
<event>
 7    1  0.2690635E-009  0.9480388E+02  0.7561462E-02  0.1291618E+00
          2   -1    0    0  501    0  0.00000000000E+00  0.00000000000E+00  0.15920061986E+03  0.15920061986E+03  0.00000000000E+00 0. -1.
         -2   -1    0    0    0  501 -0.00000000000E+00 -0.00000000000E+00 -0.80700557558E+02  0.80700557558E+02  0.00000000000E+00 0.  1.
         25    2    1    2    0    0  0.18728170556E+02 -0.26866272172E+02  0.30684963552E+02  0.13289411786E+03  0.12508692426E+03 0.  0.
          5    1    3    3  502    0  0.67760813630E+02 -0.43037433629E+01 -0.47505989116E+01  0.68191573238E+02  0.41800000000E+01 0. -1.
         -5    1    3    3    0  502 -0.49032643073E+02 -0.22562528809E+02  0.35435562464E+02  0.64702544619E+02  0.41800000000E+01 0. -1.
        -11    1    1    2    0    0 -0.11504335870E+02 -0.18348796019E+02 -0.17081820558E+02  0.27582905082E+02  0.00000000000E+00 0.  1.
         11    1    1    2    0    0 -0.72238346867E+01  0.45215068191E+02  0.64896919308E+02  0.79424154479E+02  0.00000000000E+00 0. -1.
</event>
<event>
 7    1  0.2690635E-009  0.1315771E+03  0.7561462E-02  0.1225134E+00
         -2   -1    0    0    0  501 -0.00000000000E+00  0.00000000000E+00  0.22185689697E+02  0.22185689697E+02  0.00000000000E+00 0.  1.
          2   -1    0    0  501    0  0.00000000000E+00 -0.00000000000E+00 -0.86739959510E+03  0.86739959510E+03  0.00000000000E+00 0. -1.
         25    2    1    2    0    0 -0.85742175619E+02 -0.10496348038E+02 -0.46859117501E+03  0.49263301086E+03  0.12509076742E+03 0.  0.
          5    1    3    3  502    0 -0.36666288244E+02 -0.59079073561E+02 -0.13465063244E+03  0.15160151333E+03  0.41800000000E+01 0. -1.
         -5    1    3    3    0  502 -0.49075887375E+02  0.48582725523E+02 -0.33394054257E+03  0.34103149753E+03  0.41800000000E+01 0. -1.
        -11    1    1    2    0    0 -0.17276505474E+02  0.12419498478E+02 -0.86417374342E+02  0.88998225668E+02  0.00000000000E+00 0. -1.
         11    1    1    2    0    0  0.10301868109E+03 -0.19231504394E+01 -0.29020535605E+03  0.30795404826E+03  0.00000000000E+00 0.  1.
</event>
<event>
 7    1  0.2690635E-009  0.1056038E+03  0.7561462E-02  0.1268934E+00
          1   -1    0    0  501    0  0.00000000000E+00  0.00000000000E+00  0.20801430847E+03  0.20801430847E+03  0.00000000000E+00 0. -1.
         -1   -1    0    0    0  501 -0.00000000000E+00 -0.00000000000E+00 -0.76251014131E+02  0.76251014131E+02  0.00000000000E+00 0.  1.
         25    2    1    2    0    0 -0.47215536915E+02 -0.31596166273E+02  0.11029195943E+03  0.17618188565E+03  0.12509242929E+03 0.  0.
          5    1    3    3  502    0  0.39352125973E+02 -0.12694432902E+02  0.10906274406E+02  0.42966936902E+02  0.41800000000E+01 0. -1.
         -5    1    3    3    0  502 -0.86567662888E+02 -0.18901733371E+02  0.99385685027E+02  0.13321494875E+03  0.41800000000E+01 0. -1.
        -11    1    1    2    0    0  0.12068184928E+02  0.42469896994E+02 -0.23471283907E+02  0.50002344009E+02  0.00000000000E+00 0.  1.
         11    1    1    2    0    0  0.35147351987E+02 -0.10873730721E+02  0.44942618815E+02  0.58081092943E+02  0.00000000000E+00 0. -1.
</event>
<event>
 7    1  0.2690635E-009  0.1575798E+03  0.7561462E-02  0.1191457E+00
         -2   -1    0    0    0  501 -0.00000000000E+00  0.00000000000E+00  0.33406167213E+02  0.33406167213E+02  0.00000000000E+00 0.  1.
          2   -1    0    0  501    0  0.00000000000E+00 -0.00000000000E+00 -0.99610290945E+03  0.99610290945E+03  0.00000000000E+00 0. -1.
         25    2    1    2    0    0 -0.73643956481E+02  0.12545483904E+03 -0.58143634265E+03  0.61227262620E+03  0.12508876559E+03 0.  0.
          5    1    3    3  502    0 -0.18593912889E+02  0.49201152245E+02 -0.43498401153E+03  0.43817239720E+03  0.41800000000E+01 0. -1.
         -5    1    3    3    0  502 -0.55050043593E+02  0.76253686790E+02 -0.14645233112E+03  0.17410022900E+03  0.41800000000E+01 0. -1.
        -11    1    1    2    0    0  0.87652499156E+02 -0.12683845426E+03 -0.36120432630E+03  0.39273339484E+03  0.00000000000E+00 0.  1.
         11    1    1    2    0    0 -0.14008542675E+02  0.13836152232E+01 -0.20056073287E+02  0.24503055619E+02  0.00000000000E+00 0. -1.
</event>
<event>
 7    1  0.2690635E-009  0.1748310E+03  0.7561462E-02  0.1172902E+00
         -2   -1    0    0    0  501 -0.00000000000E+00  0.00000000000E+00  0.17420559815E+02  0.17420559815E+02  0.00000000000E+00 0.  1.
          2   -1    0    0  501    0  0.00000000000E+00 -0.00000000000E+00 -0.23730516481E+04  0.23730516481E+04  0.00000000000E+00 0. -1.
         25    2    1    2    0    0 -0.32607005215E+02 -0.15027843048E+03 -0.16742136347E+04  0.16859072084E+04  0.12507996319E+03 0.  0.
          5    1    3    3  502    0 -0.53761226150E+02 -0.61905955452E+02 -0.12150069847E+04  0.12177775092E+04  0.41800000000E+01 0.  1.
         -5    1    3    3    0  502  0.21154220935E+02 -0.88372475030E+02 -0.45920665004E+03  0.46812969917E+03  0.41800000000E+01 0.  1.
        -11    1    1    2    0    0 -0.11723701682E+02  0.12503728028E+03 -0.53406427720E+03  0.54863140525E+03  0.00000000000E+00 0. -1.
         11    1    1    2    0    0  0.44330706897E+02  0.25241150197E+02 -0.14735317640E+03  0.15593359430E+03  0.00000000000E+00 0.  1.
</event>
<event>
 7    1  0.2690635E-009  0.1422307E+03  0.7561462E-02  0.1210358E+00
         -1   -1    0    0    0  501 -0.00000000000E+00  0.00000000000E+00  0.10636480003E+03  0.10636480003E+03  0.00000000000E+00 0.  1.
          1   -1    0    0  501    0  0.00000000000E+00 -0.00000000000E+00 -0.21818423655E+03  0.21818423655E+03  0.00000000000E+00 0. -1.
         25    2    1    2    0    0 -0.32155189702E+02  0.10432408948E+03 -0.62598255870E+02  0.17744645562E+03  0.12510488041E+03 0.  0.
          5    1    3    3  502    0 -0.68959881654E+02  0.34940422604E+02 -0.61356495862E+02  0.98784565566E+02  0.41800000000E+01 0.  1.
         -5    1    3    3    0  502  0.36804691952E+02  0.69383666874E+02 -0.12417600073E+01  0.78661890051E+02  0.41800000000E+01 0.  1.
        -11    1    1    2    0    0 -0.19182908260E+02 -0.11642344878E+02 -0.33016350041E+02  0.39920014199E+02  0.00000000000E+00 0. -1.
         11    1    1    2    0    0  0.51338097962E+02 -0.92681744600E+02 -0.16204830609E+02  0.10718256677E+03  0.00000000000E+00 0.  1.
</event>
<event>
 7    1  0.2690635E-009  0.9832698E+02  0.7561462E-02  0.1283854E+00
         -4   -1    0    0    0  501 -0.00000000000E+00  0.00000000000E+00  0.77997696787E+02  0.77997696787E+02  0.00000000000E+00 0.  1.
          4   -1    0    0  501    0  0.00000000000E+00 -0.00000000000E+00 -0.16790714079E+03  0.16790714079E+03  0.00000000000E+00 0. -1.
         25    2    1    2    0    0  0.18762005819E+02 -0.25622943873E+02 -0.64243648886E+02  0.14416693065E+03  0.12509320267E+03 0.  0.
          5    1    3    3  502    0  0.13443414811E+02 -0.67292721697E+02 -0.73823594967E+02  0.10087829979E+03  0.41800000000E+01 0.  1.
         -5    1    3    3    0  502  0.53185910074E+01  0.41669777824E+02  0.95799460816E+01  0.43288630853E+02  0.41800000000E+01 0.  1.
        -11    1    1    2    0    0  0.31455187748E+02  0.11896276839E+02  0.13859971634E+02  0.36373741251E+02  0.00000000000E+00 0.  1.
         11    1    1    2    0    0 -0.50217193566E+02  0.13726667033E+02 -0.39525766749E+02  0.65364165677E+02  0.00000000000E+00 0. -1.
</event>
<event>
 7    1  0.2690635E-009  0.1088108E+03  0.7561462E-02  0.1262788E+00
          1   -1    0    0  501    0  0.00000000000E+00  0.00000000000E+00  0.11897195535E+04  0.11897195535E+04  0.00000000000E+00 0. -1.
         -1   -1    0    0    0  501 -0.00000000000E+00 -0.00000000000E+00 -0.12372704220E+02  0.12372704220E+02  0.00000000000E+00 0.  1.
         25    2    1    2    0    0 -0.21071272956E+02 -0.33520572667E+02  0.86572366479E+03  0.87560760231E+03  0.12507430634E+03 0.  0.
          5    1    3    3  502    0 -0.11511801985E+02  0.44641714354E+02  0.20311690072E+03  0.20832511131E+03  0.41800000000E+01 0.  1.
         -5    1    3    3    0  502 -0.95594709706E+01 -0.78162287021E+02  0.66260676407E+03  0.66728249099E+03  0.41800000000E+01 0.  1.
        -11    1    1    2    0    0 -0.29931639748E+02  0.28322727977E+02  0.89636124391E+02  0.98654522319E+02  0.00000000000E+00 0.  1.
         11    1    1    2    0    0  0.51002912703E+02  0.51978446909E+01  0.22198706010E+03  0.22783013309E+03  0.00000000000E+00 0. -1.
</event>
<event>
 7    1  0.2690635E-009  0.1362174E+03  0.7561462E-02  0.1218511E+00
          2   -1    0    0  501    0  0.00000000000E+00  0.00000000000E+00  0.24820759805E+02  0.24820759805E+02  0.00000000000E+00 0.  1.
         -2   -1    0    0    0  501 -0.00000000000E+00 -0.00000000000E+00 -0.86357749267E+03  0.86357749267E+03  0.00000000000E+00 0. -1.
         25    2    1    2    0    0 -0.38895477606E+02  0.85883677370E+02 -0.57511311259E+03  0.59606386911E+03  0.12509268390E+03 0.  0.
          5    1    3    3  502    0  0.56249136473E+01  0.99765942028E+02 -0.47672813275E+03  0.48710580760E+03  0.41800000000E+01 0.  1.
         -5    1    3    3    0  502 -0.44520391253E+02 -0.13882264658E+02 -0.98384979840E+02  0.10895806151E+03  0.41800000000E+01 0.  1.
        -11    1    1    2    0    0 -0.14817825569E+02  0.84424154442E+01 -0.47430296366E+02  0.50403128340E+02  0.00000000000E+00 0.  1.
         11    1    1    2    0    0  0.53713303176E+02 -0.94326092814E+02 -0.21621332391E+03  0.24193125503E+03  0.00000000000E+00 0. -1.
</event>
<event>
 7    1  0.2774276E-009  0.1439060E+03  0.7561462E-02  0.1208168E+00
          1   -1    0    0  501    0  0.00000000000E+00  0.00000000000E+00  0.73907894673E+03  0.73907894673E+03  0.00000000000E+00 0.  1.
         -1   -1    0    0    0  501 -0.00000000000E+00 -0.00000000000E+00 -0.39376557337E+02  0.39376557337E+02  0.00000000000E+00 0. -1.
         25    2    1    2    0    0 -0.58846685607E+02  0.11557894290E+03  0.41998059669E+03  0.45700564167E+03  0.12509608496E+03 0.  0.
          5    1    3    3  502    0 -0.70207374546E+02  0.66282336827E+02  0.38082808529E+03  0.39289938478E+03  0.41800000000E+01 0. -1.
         -5    1    3    3    0  502  0.11360688939E+02  0.49296606069E+02  0.39152511396E+02  0.64106256884E+02  0.41800000000E+01 0. -1.
        -11    1    1    2    0    0  0.16973508840E+02 -0.89460583519E+02  0.24425682402E+03  0.26067737164E+03  0.00000000000E+00 0.  1.
         11    1    1    2    0    0  0.41873176768E+02 -0.26118359376E+02  0.35464968689E+02  0.60772490761E+02  0.00000000000E+00 0. -1.
</event>
<event>
 7    1  0.2690635E-009  0.2115525E+03  0.7561462E-02  0.1140342E+00
          2   -1    0    0  501    0  0.00000000000E+00  0.00000000000E+00  0.51271748258E+03  0.51271748258E+03  0.00000000000E+00 0. -1.
         -2   -1    0    0    0  501 -0.00000000000E+00 -0.00000000000E+00 -0.11361707595E+03  0.11361707595E+03  0.00000000000E+00 0.  1.
         25    2    1    2    0    0 -0.16654826986E+03 -0.10557375458E+03  0.31897428393E+03  0.39531280950E+03  0.12507389695E+03 0.  0.
          5    1    3    3  502    0 -0.47508383238E+02  0.90905776589E+01  0.15511061712E+03  0.16253141550E+03  0.41800000000E+01 0. -1.
         -5    1    3    3    0  502 -0.11903988662E+03 -0.11466433223E+03  0.16386366681E+03  0.23278139400E+03  0.41800000000E+01 0. -1.
        -11    1    1    2    0    0  0.13417104835E+02  0.40803847907E+02 -0.66638158302E+01  0.43466989171E+02  0.00000000000E+00 0.  1.
         11    1    1    2    0    0  0.15313116503E+03  0.64769906669E+02  0.86789938535E+02  0.18755475985E+03  0.00000000000E+00 0. -1.
</event>
<event>
 7    1  0.2690635E-009  0.1710182E+03  0.7561462E-02  0.1176790E+00
         -2   -1    0    0    0  501 -0.00000000000E+00  0.00000000000E+00  0.36468428577E+02  0.36468428577E+02  0.00000000000E+00 0.  1.
          2   -1    0    0  501    0  0.00000000000E+00 -0.00000000000E+00 -0.10790504296E+04  0.10790504296E+04  0.00000000000E+00 0. -1.
         25    2    1    2    0    0  0.18074312085E+02  0.16453670584E+03 -0.55387795848E+03  0.59146281949E+03  0.12509382732E+03 0.  0.
          5    1    3    3  502    0 -0.19838362033E+02  0.60471227334E+02 -0.68516592475E+02  0.93607295591E+02  0.41800000000E+01 0. -1.
         -5    1    3    3    0  502  0.37912674118E+02  0.10406547850E+03 -0.48536136600E+03  0.49785552390E+03  0.41800000000E+01 0. -1.
        -11    1    1    2    0    0  0.64233982069E+01 -0.31484517721E+02 -0.24131065045E+02  0.40185111681E+02  0.00000000000E+00 0.  1.
         11    1    1    2    0    0 -0.24497710292E+02 -0.13305218811E+03 -0.46457297748E+03  0.48387092698E+03  0.00000000000E+00 0. -1.
</event>
<event>
 7    1  0.2690635E-009  0.1510230E+03  0.7561462E-02  0.1199222E+00
          3   -1    0    0  501    0  0.00000000000E+00  0.00000000000E+00  0.14315515181E+03  0.14315515181E+03  0.00000000000E+00 0. -1.
         -3   -1    0    0    0  501 -0.00000000000E+00 -0.00000000000E+00 -0.25896142252E+03  0.25896142252E+03  0.00000000000E+00 0.  1.
         25    2    1    2    0    0  0.49877053457E+02 -0.11594863959E+03 -0.15977161732E+03  0.23897210604E+03  0.12509552461E+03 0.  0.
          5    1    3    3  502    0 -0.10986269919E+02 -0.64413331657E+02 -0.14313036692E+03  0.15739615547E+03  0.41800000000E+01 0. -1.
         -5    1    3    3    0  502  0.60863323375E+02 -0.51535307932E+02 -0.16641250400E+02  0.81575950567E+02  0.41800000000E+01 0. -1.
        -11    1    1    2    0    0 -0.69625480498E+02  0.44619276208E+02  0.29005151653E+02  0.87634959727E+02  0.00000000000E+00 0.  1.
         11    1    1    2    0    0  0.19748427041E+02  0.71329363382E+02  0.14960194962E+02  0.75509508569E+02  0.00000000000E+00 0. -1.
</event>
<event>
 7    1  0.2690635E-009  0.2251072E+03  0.7561462E-02  0.1130132E+00
          2   -1    0    0  501    0  0.00000000000E+00  0.00000000000E+00  0.14719343612E+03  0.14719343612E+03  0.00000000000E+00 0. -1.
         -2   -1    0    0    0  501 -0.00000000000E+00 -0.00000000000E+00 -0.36764931200E+03  0.36764931200E+03  0.00000000000E+00 0.  1.
         25    2    1    2    0    0 -0.19475606711E+03 -0.57650239111E+02 -0.85955673163E+02  0.25355454026E+03  0.12509217159E+03 0.  0.
          5    1    3    3  502    0 -0.20645139565E+03 -0.37230799557E+02 -0.59917589730E+02  0.21821068067E+03  0.41800000000E+01 0. -1.
         -5    1    3    3    0  502  0.11695328544E+02 -0.20419439554E+02 -0.26038083433E+02  0.35343859584E+02  0.41800000000E+01 0. -1.
        -11    1    1    2    0    0  0.14860190121E+03  0.81694593483E+01 -0.59510988575E+02  0.16028357018E+03  0.00000000000E+00 0. -1.
         11    1    1    2    0    0  0.46154165898E+02  0.49480779763E+02 -0.74989214139E+02  0.10100463768E+03  0.00000000000E+00 0.  1.
</event>
<event>
 7    1  0.2690635E-009  0.1152816E+03  0.7561462E-02  0.1251090E+00
          3   -1    0    0  501    0  0.00000000000E+00  0.00000000000E+00  0.53361557535E+02  0.53361557535E+02  0.00000000000E+00 0. -1.
         -3   -1    0    0    0  501 -0.00000000000E+00 -0.00000000000E+00 -0.31515945850E+03  0.31515945850E+03  0.00000000000E+00 0.  1.
         25    2    1    2    0    0  0.53685820000E+02  0.54781505751E+01 -0.20369213925E+03  0.24505240534E+03  0.12509203159E+03 0.  0.
          5    1    3    3  502    0  0.63256698859E+02  0.47053046584E+02 -0.73060457807E+02  0.10756719778E+03  0.41800000000E+01 0. -1.
         -5    1    3    3    0  502 -0.95708788597E+01 -0.41574896009E+02 -0.13063168145E+03  0.13748520756E+03  0.41800000000E+01 0. -1.
        -11    1    1    2    0    0  0.27148547382E+02  0.36787814765E+01 -0.17883249219E+02  0.32716779498E+02  0.00000000000E+00 0. -1.
         11    1    1    2    0    0 -0.80834367382E+02 -0.91569320516E+01 -0.40222512495E+02  0.90751831199E+02  0.00000000000E+00 0.  1.
</event>
<event>
 7    1  0.2690635E-009  0.8881138E+02  0.7561462E-02  0.1305756E+00
         -2   -1    0    0    0  501 -0.00000000000E+00  0.00000000000E+00  0.34553933934E+02  0.34553933934E+02  0.00000000000E+00 0.  1.
          2   -1    0    0  501    0  0.00000000000E+00 -0.00000000000E+00 -0.36056868779E+03  0.36056868779E+03  0.00000000000E+00 0. -1.
         25    2    1    2    0    0  0.23299786936E+02 -0.14512945378E+01 -0.25524802435E+03  0.28520967890E+03  0.12509204881E+03 0.  0.
          5    1    3    3  502    0  0.27674456855E+02  0.59619148187E+02 -0.12957761495E+03  0.14535525133E+03  0.41800000000E+01 0.  1.
         -5    1    3    3    0  502 -0.43746699184E+01 -0.61070442725E+02 -0.12567040940E+03  0.13985442757E+03  0.41800000000E+01 0.  1.
        -11    1    1    2    0    0 -0.36815460796E+02  0.17811087880E+00  0.10435952754E+01  0.36830679714E+02  0.00000000000E+00 0.  1.
         11    1    1    2    0    0  0.13515673860E+02  0.12731836590E+01 -0.71810324783E+02  0.73082263114E+02  0.00000000000E+00 0. -1.
</event>
<event>
 7    1  0.2690635E-009  0.1294742E+03  0.7561462E-02  0.1228238E+00
          1   -1    0    0  501    0  0.00000000000E+00  0.00000000000E+00  0.46915196272E+03  0.46915196272E+03  0.00000000000E+00 0. -1.
         -1   -1    0    0    0  501 -0.00000000000E+00 -0.00000000000E+00 -0.45219112796E+02  0.45219112796E+02  0.00000000000E+00 0.  1.
         25    2    1    2    0    0  0.87077848996E+02 -0.43274131571E+02  0.21531700112E+03  0.26732696733E+03  0.12508834574E+03 0.  0.
          5    1    3    3  502    0  0.10238425201E+03 -0.31535603001E+02  0.88606505905E+02  0.13908851356E+03  0.41800000000E+01 0.  1.
         -5    1    3    3    0  502 -0.15306403013E+02 -0.11738528570E+02  0.12671049522E+03  0.12823845376E+03  0.41800000000E+01 0.  1.
        -11    1    1    2    0    0 -0.59360108795E+02  0.71168826020E+02  0.15420291423E+03  0.17990876318E+03  0.00000000000E+00 0. -1.
         11    1    1    2    0    0 -0.27717740200E+02 -0.27894694449E+02  0.54412934574E+02  0.67135345006E+02  0.00000000000E+00 0.  1.
</event>
<event>
 7    1  0.2690635E-009  0.7912928E+02  0.7561462E-02  0.1331541E+00
         -2   -1    0    0    0  501 -0.00000000000E+00  0.00000000000E+00  0.48361514434E+02  0.48361514434E+02  0.00000000000E+00 0.  1.
          2   -1    0    0  501    0  0.00000000000E+00 -0.00000000000E+00 -0.26172299885E+03  0.26172299885E+03  0.00000000000E+00 0. -1.
         25    2    1    2    0    0  0.25554025109E+02 -0.28820938990E+02 -0.13495964513E+03  0.18801122661E+03  0.12510180173E+03 0.  0.
          5    1    3    3  502    0 -0.33167167193E+02 -0.38092191288E+02 -0.11413650553E+03  0.12488270622E+03  0.41800000000E+01 0.  1.
         -5    1    3    3    0  502  0.58721192302E+02  0.92712522980E+01 -0.20823139595E+02  0.63128520394E+02  0.41800000000E+01 0.  1.
        -11    1    1    2    0    0 -0.23939116283E+02  0.54448176377E+01  0.12955261781E+02  0.27759073027E+02  0.00000000000E+00 0.  1.
         11    1    1    2    0    0 -0.16149088265E+01  0.23376121353E+02 -0.91357101068E+02  0.94314213645E+02  0.00000000000E+00 0. -1.
</event>
<event>
 7    1  0.2690635E-009  0.1347105E+03  0.7561462E-02  0.1220629E+00
          2   -1    0    0  501    0  0.00000000000E+00  0.00000000000E+00  0.53710950475E+03  0.53710950475E+03  0.00000000000E+00 0. -1.
         -2   -1    0    0    0  501 -0.00000000000E+00 -0.00000000000E+00 -0.41280770188E+02  0.41280770188E+02  0.00000000000E+00 0.  1.
         25    2    1    2    0    0  0.73868380218E+02 -0.68140093009E+02  0.23790190955E+03  0.28695668235E+03  0.12508880488E+03 0.  0.
          5    1    3    3  502    0 -0.48604618466E+01  0.25833164509E+02  0.10563489345E+02  0.28636273938E+02  0.41800000000E+01 0. -1.
         -5    1    3    3    0  502  0.78728842065E+02 -0.93973257518E+02  0.22733842020E+03  0.25832040841E+03  0.41800000000E+01 0. -1.
        -11    1    1    2    0    0  0.24955620785E+01 -0.10340637161E+02 -0.61848088438E+00  0.10655473973E+02  0.00000000000E+00 0.  1.
         11    1    1    2    0    0 -0.76363942297E+02  0.78480730170E+02  0.25854530590E+03  0.28077811862E+03  0.00000000000E+00 0. -1.
</event>
<event>
 7    1  0.2690635E-009  0.8798183E+02  0.7561462E-02  0.1307814E+00
         -3   -1    0    0    0  501 -0.00000000000E+00  0.00000000000E+00  0.20510265097E+03  0.20510265097E+03  0.00000000000E+00 0.  1.
          3   -1    0    0  501    0  0.00000000000E+00 -0.00000000000E+00 -0.69323094423E+02  0.69323094423E+02  0.00000000000E+00 0. -1.
         25    2    1    2    0    0 -0.19700384696E+02 -0.44045935703E+02  0.46758399531E+02  0.14200096633E+03  0.12509906835E+03 0.  0.
          5    1    3    3  502    0 -0.50012480094E+02 -0.49860420295E+01  0.70750819881E+02  0.86886475899E+02  0.41800000000E+01 0. -1.
         -5    1    3    3    0  502  0.30312095398E+02 -0.39059893674E+02 -0.23992420350E+02  0.55114490431E+02  0.41800000000E+01 0. -1.
        -11    1    1    2    0    0  0.11217448760E+02  0.58275464354E+02  0.97250087578E+02  0.11392734718E+03  0.00000000000E+00 0.  1.
         11    1    1    2    0    0  0.84829359363E+01 -0.14229528650E+02 -0.82289305663E+01  0.18497431875E+02  0.00000000000E+00 0. -1.
</event>
<event>
 7    1  0.3989705E-009  0.2515293E+03  0.7561462E-02  0.1112342E+00
         -2   -1    0    0    0  501 -0.00000000000E+00  0.00000000000E+00  0.15007607829E+03  0.15007607829E+03  0.00000000000E+00 0.  1.
          2   -1    0    0  501    0  0.00000000000E+00 -0.00000000000E+00 -0.47381036541E+03  0.47381036541E+03  0.00000000000E+00 0. -1.
         25    2    1    2    0    0  0.23955979349E+03 -0.18418646280E+01 -0.11742426850E+03  0.29466507917E+03  0.12508702142E+03 0.  0.
          5    1    3    3  502    0  0.83779608723E+02  0.51584216134E+02 -0.12298198112E+02  0.99240476967E+02  0.41800000000E+01 0. -1.
         -5    1    3    3    0  502  0.15578018477E+03 -0.53426080762E+02 -0.10512607038E+03  0.19542460220E+03  0.41800000000E+01 0. -1.
        -11    1    1    2    0    0 -0.15442810787E+03  0.66955855680E+01 -0.18547820810E+03  0.24144365191E+03  0.00000000000E+00 0. -1.
         11    1    1    2    0    0 -0.85131685619E+02 -0.48537209400E+01 -0.20831810529E+02  0.87777712622E+02  0.00000000000E+00 0.  1.
</event>
<event>
 7    1  0.2690635E-009  0.1250250E+03  0.7561462E-02  0.1235030E+00
         -2   -1    0    0    0  501 -0.00000000000E+00  0.00000000000E+00  0.38169398250E+02  0.38169398250E+02  0.00000000000E+00 0.  1.
          2   -1    0    0  501    0  0.00000000000E+00 -0.00000000000E+00 -0.73963702940E+03  0.73963702940E+03  0.00000000000E+00 0. -1.
         25    2    1    2    0    0  0.97722079334E+02  0.47736987808E+02 -0.52771631395E+03  0.55313675575E+03  0.12508931916E+03 0.  0.
          5    1    3    3  502    0  0.41549812825E+01  0.23044906347E+02 -0.89648492248E+01  0.25419923281E+02  0.41800000000E+01 0.  1.
         -5    1    3    3    0  502  0.93567098052E+02  0.24692081461E+02 -0.51875146472E+03  0.52771683247E+03  0.41800000000E+01 0.  1.
        -11    1    1    2    0    0 -0.85396062326E+02 -0.56888593238E+01 -0.15489522755E+03  0.17696717803E+03  0.00000000000E+00 0.  1.
         11    1    1    2    0    0 -0.12326017009E+02 -0.42048128484E+02 -0.18856089656E+02  0.47702493870E+02  0.00000000000E+00 0. -1.
</event>
<event>
 7    1  0.2690635E-009  0.8086284E+02  0.7561462E-02  0.1326620E+00
          2   -1    0    0  501    0  0.00000000000E+00  0.00000000000E+00  0.18957677625E+03  0.18957677625E+03  0.00000000000E+00 0. -1.
         -2   -1    0    0    0  501 -0.00000000000E+00 -0.00000000000E+00 -0.63320456247E+02  0.63320456247E+02  0.00000000000E+00 0.  1.
         25    2    1    2    0    0  0.12363080212E+02 -0.69840780228E+01  0.81822786751E+02  0.15014698708E+03  0.12509007235E+03 0.  0.
          5    1    3    3  502    0  0.94651428924E+01 -0.55863475185E+02  0.83476541081E+02  0.10097584910E+03  0.41800000000E+01 0. -1.
         -5    1    3    3    0  502  0.28979373193E+01  0.48879397163E+02 -0.16537543298E+01  0.49171137988E+02  0.41800000000E+01 0. -1.
        -11    1    1    2    0    0 -0.29160395771E+02  0.19274859293E+02 -0.16285799287E+02  0.38562626216E+02  0.00000000000E+00 0.  1.
         11    1    1    2    0    0  0.16797315559E+02 -0.12290781270E+02  0.60719332541E+02  0.64187619199E+02  0.00000000000E+00 0. -1.
</event>
<event>
 7    1  0.2690635E-009  0.1319916E+03  0.7561462E-02  0.1224530E+00
         -4   -1    0    0    0  501 -0.00000000000E+00  0.00000000000E+00  0.61787681031E+03  0.61787681031E+03  0.00000000000E+00 0. -1.
          4   -1    0    0  501    0  0.00000000000E+00 -0.00000000000E+00 -0.45047829658E+02  0.45047829658E+02  0.00000000000E+00 0.  1.
         25    2    1    2    0    0  0.60584885948E+02  0.72647280700E+02  0.20531474324E+03  0.25835943334E+03  0.12508915703E+03 0.  0.
          5    1    3    3  502    0  0.81583148900E+02  0.75083185332E+02  0.95326518584E+02  0.14628025311E+03  0.41800000000E+01 0.  1.
         -5    1    3    3    0  502 -0.20998262952E+02 -0.24359046319E+01  0.10998822466E+03  0.11207918023E+03  0.41800000000E+01 0.  1.
        -11    1    1    2    0    0 -0.22739140060E+02  0.20702222038E+02  0.88134880043E+01  0.31989499195E+02  0.00000000000E+00 0.  1.
         11    1    1    2    0    0 -0.37845745888E+02 -0.93349502738E+02  0.35870074941E+03  0.37257570743E+03  0.00000000000E+00 0. -1.
</event>
<event>
 7    1  0.2690635E-009  0.1093971E+03  0.7561462E-02  0.1261690E+00
          1   -1    0    0  501    0  0.00000000000E+00  0.00000000000E+00  0.19090421708E+02  0.19090421708E+02  0.00000000000E+00 0. -1.
         -1   -1    0    0    0  501 -0.00000000000E+00 -0.00000000000E+00 -0.85934021688E+03  0.85934021688E+03  0.00000000000E+00 0.  1.
         25    2    1    2    0    0  0.27310415773E+02 -0.56788484365E+02 -0.49137788599E+03  0.51095033693E+03  0.12508888520E+03 0.  0.
          5    1    3    3  502    0 -0.38146189168E+02 -0.27911676389E+02 -0.77194818894E+02  0.90612945493E+02  0.41800000000E+01 0.  1.
         -5    1    3    3    0  502  0.65456604941E+02 -0.28876807976E+02 -0.41418306709E+03  0.42033739143E+03  0.41800000000E+01 0.  1.
        -11    1    1    2    0    0 -0.45507236547E+02  0.62151022443E+01 -0.25674786453E+03  0.26082369910E+03  0.00000000000E+00 0.  1.
         11    1    1    2    0    0  0.18196820774E+02  0.50573382121E+02 -0.92124044652E+02  0.10665660255E+03  0.00000000000E+00 0. -1.
</event>
<event>
 7    1  0.2690635E-009  0.5355548E+02  0.7561462E-02  0.1427056E+00
          1   -1    0    0  501    0  0.00000000000E+00  0.00000000000E+00  0.53044167832E+02  0.53044167832E+02  0.00000000000E+00 0. -1.
         -1   -1    0    0    0  501 -0.00000000000E+00 -0.00000000000E+00 -0.23352445720E+03  0.23352445720E+03  0.00000000000E+00 0.  1.
         25    2    1    2    0    0  0.12506837715E+02  0.33130464126E+01 -0.71797841301E+02  0.14479778307E+03  0.12507625954E+03 0.  0.
          5    1    3    3  502    0  0.31999352596E+02  0.23518336246E+02 -0.98214896438E+02  0.10602220988E+03  0.41800000000E+01 0.  1.
         -5    1    3    3    0  502 -0.19492514881E+02 -0.20205289833E+02  0.26417055137E+02  0.38775573184E+02  0.41800000000E+01 0.  1.
        -11    1    1    2    0    0 -0.24463870207E+02 -0.83082279359E+01 -0.12109870827E+03  0.12382408789E+03  0.00000000000E+00 0.  1.
         11    1    1    2    0    0  0.11957032492E+02  0.49951815233E+01  0.12416260202E+02  0.17946754076E+02  0.00000000000E+00 0. -1.
</event>
<event>
 7    1  0.2690635E-009  0.9587851E+02  0.7561462E-02  0.1289210E+00
         -2   -1    0    0    0  501 -0.00000000000E+00  0.00000000000E+00  0.82543886809E+02  0.82543886809E+02  0.00000000000E+00 0.  1.
          2   -1    0    0  501    0  0.00000000000E+00 -0.00000000000E+00 -0.19453440693E+03  0.19453440693E+03  0.00000000000E+00 0. -1.
         25    2    1    2    0    0 -0.32461386874E+02 -0.28402422239E-01 -0.39402731559E+00  0.12923631146E+03  0.12509247178E+03 0.  0.
          5    1    3    3  502    0  0.21568433044E+01 -0.55177132797E+02  0.22941327126E+02  0.59941178225E+02  0.41800000000E+01 0. -1.
         -5    1    3    3    0  502 -0.34618230179E+02  0.55148730375E+02 -0.23335354442E+02  0.69295133232E+02  0.41800000000E+01 0. -1.
        -11    1    1    2    0    0 -0.23123292494E+01  0.27015789213E+02 -0.98135316059E+02  0.10181227820E+03  0.00000000000E+00 0. -1.
         11    1    1    2    0    0  0.34773716124E+02 -0.26987386791E+02 -0.13461176747E+02  0.46029704086E+02  0.00000000000E+00 0.  1.
</event>
<event>
 7    1  0.2690635E-009  0.7589062E+02  0.7561462E-02  0.1341135E+00
          1   -1    0    0  501    0  0.00000000000E+00  0.00000000000E+00  0.11827753598E+03  0.11827753598E+03  0.00000000000E+00 0. -1.
         -1   -1    0    0    0  501 -0.00000000000E+00 -0.00000000000E+00 -0.12297655160E+03  0.12297655160E+03  0.00000000000E+00 0.  1.
         25    2    1    2    0    0 -0.38947285788E+02 -0.33076405134E+01 -0.39324955882E+02  0.13682977098E+03  0.12509237593E+03 0.  0.
          5    1    3    3  502    0  0.11371874769E+02  0.42254552564E+02  0.18372534688E+02  0.47642304509E+02  0.41800000000E+01 0. -1.
         -5    1    3    3    0  502 -0.50319160558E+02 -0.45562193077E+02 -0.57697490570E+02  0.89187466470E+02  0.41800000000E+01 0. -1.
        -11    1    1    2    0    0  0.13557698155E+02  0.47947625254E+01 -0.30928968742E+02  0.34108679752E+02  0.00000000000E+00 0.  1.
         11    1    1    2    0    0  0.25389587633E+02 -0.14871220120E+01  0.65554909002E+02  0.70315636855E+02  0.00000000000E+00 0. -1.
</event>
<event>
 7    1  0.2690635E-009  0.1822370E+03  0.7561462E-02  0.1165655E+00
         -1   -1    0    0    0  501 -0.00000000000E+00  0.00000000000E+00  0.70435575432E+02  0.70435575432E+02  0.00000000000E+00 0.  1.
          1   -1    0    0  501    0  0.00000000000E+00 -0.00000000000E+00 -0.66804500369E+03  0.66804500369E+03  0.00000000000E+00 0. -1.
         25    2    1    2    0    0  0.89266882902E+02 -0.12447743140E+03 -0.49481733293E+03  0.53287285615E+03  0.12508429377E+03 0.  0.
          5    1    3    3  502    0  0.37230233584E+02 -0.13076910476E+03 -0.41959721594E+03  0.44109629910E+03  0.41800000000E+01 0. -1.
         -5    1    3    3    0  502  0.52036649318E+02  0.62916733524E+01 -0.75220116988E+02  0.91776557058E+02  0.41800000000E+01 0. -1.
        -11    1    1    2    0    0 -0.10110396086E+02  0.88218946776E+02 -0.68021402372E+02  0.11185577258E+03  0.00000000000E+00 0.  1.
         11    1    1    2    0    0 -0.79156486816E+02  0.36258484628E+02 -0.34770692962E+02  0.93751950389E+02  0.00000000000E+00 0. -1.
</event>
<event>
 7    1  0.2690635E-009  0.1075796E+03  0.7561462E-02  0.1265119E+00
          2   -1    0    0  501    0  0.00000000000E+00  0.00000000000E+00  0.18066798022E+03  0.18066798022E+03  0.00000000000E+00 0.  1.
         -2   -1    0    0    0  501 -0.00000000000E+00 -0.00000000000E+00 -0.10356211561E+03  0.10356211561E+03  0.00000000000E+00 0. -1.
         25    2    1    2    0    0 -0.28848315934E+02 -0.64085604124E+01 -0.38041295333E+02  0.13404563141E+03  0.12509115145E+03 0.  0.
          5    1    3    3  502    0 -0.78011276303E+01 -0.60496362256E+02  0.54745581930E+01  0.61384938103E+02  0.41800000000E+01 0.  1.
         -5    1    3    3    0  502 -0.21047188304E+02  0.54087801844E+02 -0.43515853526E+02  0.72660693308E+02  0.41800000000E+01 0.  1.
        -11    1    1    2    0    0 -0.19126440499E+02  0.35069329507E+02  0.56284606038E+02  0.69019095004E+02  0.00000000000E+00 0.  1.
         11    1    1    2    0    0  0.47974756433E+02 -0.28660769095E+02  0.58862553900E+02  0.81165369411E+02  0.00000000000E+00 0. -1.
</event>
<event>
 7    1  0.2690635E-009  0.1233525E+03  0.7561462E-02  0.1237667E+00
         -1   -1    0    0    0  501 -0.00000000000E+00  0.00000000000E+00  0.24745218453E+02  0.24745218453E+02  0.00000000000E+00 0.  1.
          1   -1    0    0  501    0  0.00000000000E+00 -0.00000000000E+00 -0.93074442097E+03  0.93074442097E+03  0.00000000000E+00 0. -1.
         25    2    1    2    0    0  0.72811858782E+02  0.37422820296E+02 -0.70304239149E+03  0.71876121868E+03  0.12508817284E+03 0.  0.
          5    1    3    3  502    0 -0.76842596756E+01  0.43858827378E+02 -0.46932464859E+03  0.47145067903E+03  0.41800000000E+01 0.  1.
         -5    1    3    3    0  502  0.80496118458E+02 -0.64360070820E+01 -0.23371774291E+03  0.24731053965E+03  0.41800000000E+01 0.  1.
        -11    1    1    2    0    0 -0.29069424358E+02  0.29341632471E+02 -0.57284278708E+02  0.70621890485E+02  0.00000000000E+00 0.  1.
         11    1    1    2    0    0 -0.43742434424E+02 -0.66764452767E+02 -0.14567253231E+03  0.16610653025E+03  0.00000000000E+00 0. -1.
</event>
<event>
 7    1  0.2690635E-009  0.9233098E+02  0.7561462E-02  0.1297303E+00
         -1   -1    0    0    0  501 -0.00000000000E+00  0.00000000000E+00  0.50434303453E+02  0.50434303453E+02  0.00000000000E+00 0.  1.
          1   -1    0    0  501    0  0.00000000000E+00 -0.00000000000E+00 -0.25013398937E+03  0.25013398937E+03  0.00000000000E+00 0. -1.
         25    2    1    2    0    0  0.28326598958E+02  0.14232322082E+01 -0.12206934925E+03  0.17706814182E+03  0.12509108290E+03 0.  0.
          5    1    3    3  502    0  0.14225137843E+02  0.62907649169E+02 -0.68826592900E+02  0.94415566306E+02  0.41800000000E+01 0.  1.
         -5    1    3    3    0  502  0.14101461115E+02 -0.61484416961E+02 -0.53242756352E+02  0.82652575510E+02  0.41800000000E+01 0.  1.
        -11    1    1    2    0    0 -0.15123074134E+02 -0.25329942995E+02  0.10438940304E+02  0.31293527415E+02  0.00000000000E+00 0.  1.
         11    1    1    2    0    0 -0.13203524824E+02  0.23906710787E+02 -0.88069276966E+02  0.92206623590E+02  0.00000000000E+00 0. -1.
</event>
<event>
 7    1  0.2690635E-009  0.1821080E+03  0.7561462E-02  0.1165778E+00
         -1   -1    0    0    0  501 -0.00000000000E+00  0.00000000000E+00  0.66270974697E+02  0.66270974697E+02  0.00000000000E+00 0.  1.
          1   -1    0    0  501    0  0.00000000000E+00 -0.00000000000E+00 -0.60298639519E+03  0.60298639519E+03  0.00000000000E+00 0. -1.
         25    2    1    2    0    0 -0.10839705317E+03  0.12563330076E+03 -0.25088642699E+03  0.32576718342E+03  0.12508641473E+03 0.  0.
          5    1    3    3  502    0 -0.15863093598E+02  0.70186518532E+02 -0.18679778245E+03  0.20022154992E+03  0.41800000000E+01 0.  1.
         -5    1    3    3    0  502 -0.92533959569E+02  0.55446782229E+02 -0.64088644534E+02  0.12554563350E+03  0.41800000000E+01 0.  1.
        -11    1    1    2    0    0 -0.12958259345E+02 -0.16443463160E+02 -0.68823992509E+02  0.71937791951E+02  0.00000000000E+00 0.  1.
         11    1    1    2    0    0  0.12135531251E+03 -0.10918983760E+03 -0.21700500100E+03  0.27155239452E+03  0.00000000000E+00 0. -1.
</event>
<event>
 7    1  0.2690635E-009  0.1441652E+03  0.7561462E-02  0.1207832E+00
         -3   -1    0    0    0  501 -0.00000000000E+00  0.00000000000E+00  0.22245827512E+03  0.22245827512E+03  0.00000000000E+00 0.  1.
          3   -1    0    0  501    0  0.00000000000E+00 -0.00000000000E+00 -0.11019183099E+03  0.11019183099E+03  0.00000000000E+00 0. -1.
         25    2    1    2    0    0  0.10643253232E+03  0.31899875341E+02  0.81144080831E+02  0.18594843733E+03  0.12508786315E+03 0.  0.
          5    1    3    3  502    0  0.95556636385E+02  0.71619942835E+02  0.36215094289E+02  0.12485788891E+03  0.41800000000E+01 0.  1.
         -5    1    3    3    0  502  0.10875895940E+02 -0.39720067494E+02  0.44928986542E+02  0.61090548417E+02  0.41800000000E+01 0.  1.
        -11    1    1    2    0    0 -0.71486309367E+02  0.10769251108E+02  0.50564853390E+02  0.88221729719E+02  0.00000000000E+00 0. -1.
         11    1    1    2    0    0 -0.34946222958E+02 -0.42669126449E+02 -0.19442490092E+02  0.58479939055E+02  0.00000000000E+00 0.  1.
</event>
<event>
 7    1  0.2690635E-009  0.8377515E+02  0.7561462E-02  0.1318667E+00
         -1   -1    0    0    0  501 -0.00000000000E+00  0.00000000000E+00  0.13454953953E+03  0.13454953953E+03  0.00000000000E+00 0. -1.
          1   -1    0    0  501    0  0.00000000000E+00 -0.00000000000E+00 -0.10575383461E+03  0.10575383461E+03  0.00000000000E+00 0.  1.
         25    2    1    2    0    0 -0.22119785127E+02 -0.37688698894E+02  0.32312220624E+02  0.13638472207E+03  0.12508792865E+03 0.  0.
          5    1    3    3  502    0 -0.25769353030E+00  0.40891582824E+02  0.35983662576E+02  0.54630434048E+02  0.41800000000E+01 0.  1.
         -5    1    3    3    0  502 -0.21862091596E+02 -0.78580281718E+02 -0.36714419520E+01  0.81754288021E+02  0.41800000000E+01 0.  1.
        -11    1    1    2    0    0  0.16580084189E+02  0.18695444376E+02  0.45028153707E+02  0.51497120875E+02  0.00000000000E+00 0. -1.
         11    1    1    2    0    0  0.55397009373E+01  0.18993254518E+02 -0.48544669413E+02  0.52421531187E+02  0.00000000000E+00 0.  1.
</event>
<event>
 7    1  0.2690635E-009  0.1850318E+03  0.7561462E-02  0.1163020E+00
          2   -1    0    0  501    0  0.00000000000E+00  0.00000000000E+00  0.45998894108E+03  0.45998894108E+03  0.00000000000E+00 0. -1.
         -2   -1    0    0    0  501 -0.00000000000E+00 -0.00000000000E+00 -0.94888860835E+02  0.94888860835E+02  0.00000000000E+00 0.  1.
         25    2    1    2    0    0 -0.14582620466E+03 -0.83242259180E+02  0.26688681680E+03  0.33921872022E+03  0.12508481719E+03 0.  0.
          5    1    3    3  502    0 -0.61823831233E+02 -0.80108874402E+02  0.22159340962E+03  0.24364057432E+03  0.41800000000E+01 0.  1.
         -5    1    3    3    0  502 -0.84002373423E+02 -0.31333847780E+01  0.45293407177E+02  0.95578145905E+02  0.41800000000E+01 0.  1.
        -11    1    1    2    0    0  0.96191199996E+02  0.10784699177E+02  0.80879584635E+02  0.12613708378E+03  0.00000000000E+00 0. -1.
         11    1    1    2    0    0  0.49635004660E+02  0.72457560004E+02  0.17333678808E+02  0.89521997913E+02  0.00000000000E+00 0.  1.
</event>
<event>
 7    1  0.2690635E-009  0.2000573E+03  0.7561462E-02  0.1149691E+00
          2   -1    0    0  501    0  0.00000000000E+00  0.00000000000E+00  0.15610649833E+04  0.15610649833E+04  0.00000000000E+00 0. -1.
         -2   -1    0    0    0  501 -0.00000000000E+00 -0.00000000000E+00 -0.28565844014E+02  0.28565844014E+02  0.00000000000E+00 0.  1.
         25    2    1    2    0    0 -0.14125219057E+03  0.10196469545E+03  0.60818407701E+03  0.64489098077E+03  0.12509006788E+03 0.  0.
          5    1    3    3  502    0  0.19278747786E+02  0.59712005183E+01  0.24827412165E+02  0.32267602121E+02  0.41800000000E+01 0. -1.
         -5    1    3    3    0  502 -0.16053093836E+03  0.95993494931E+02  0.58335666485E+03  0.61262337865E+03  0.41800000000E+01 0. -1.
        -11    1    1    2    0    0  0.68574580159E+02 -0.17200480621E+01  0.25482156027E+03  0.26389289340E+03  0.00000000000E+00 0.  1.
         11    1    1    2    0    0  0.72677610415E+02 -0.10024464739E+03  0.66949350200E+03  0.68084695315E+03  0.00000000000E+00 0. -1.
</event>
<event>
 7    1  0.2690635E-009  0.8593018E+02  0.7561462E-02  0.1313018E+00
         -1   -1    0    0    0  501 -0.00000000000E+00  0.00000000000E+00  0.40468151600E+02  0.40468151600E+02  0.00000000000E+00 0.  1.
          1   -1    0    0  501    0  0.00000000000E+00 -0.00000000000E+00 -0.11069373210E+04  0.11069373210E+04  0.00000000000E+00 0. -1.
         25    2    1    2    0    0  0.34419917000E+02 -0.53712434079E+02 -0.10138424713E+04  0.10235204484E+04  0.12509114798E+03 0.  0.
          5    1    3    3  502    0 -0.20331761262E+01  0.22212139456E+02 -0.63504731430E+03  0.63545265500E+03  0.41800000000E+01 0.  1.
         -5    1    3    3    0  502  0.36453093126E+02 -0.75924573534E+02 -0.37879515704E+03  0.38806779338E+03  0.41800000000E+01 0.  1.
        -11    1    1    2    0    0 -0.49212240309E+01  0.17262144520E+02  0.26441140536E+02  0.31958316480E+02  0.00000000000E+00 0.  1.
         11    1    1    2    0    0 -0.29498692969E+02  0.36450289558E+02 -0.79067838617E+02  0.91926707758E+02  0.00000000000E+00 0. -1.
</event>
<event>
 7    1  0.2690635E-009  0.6499936E+02  0.7561462E-02  0.1377974E+00
          3   -1    0    0  501    0  0.00000000000E+00  0.00000000000E+00  0.81807873991E+02  0.81807873991E+02  0.00000000000E+00 0. -1.
         -3   -1    0    0    0  501 -0.00000000000E+00 -0.00000000000E+00 -0.16174637014E+03  0.16174637014E+03  0.00000000000E+00 0.  1.
         25    2    1    2    0    0 -0.95590765051E+01 -0.17465090721E+02 -0.14395973580E+02  0.12748097764E+03  0.12509096797E+03 0.  0.
          5    1    3    3  502    0  0.93934642267E+01 -0.63280277132E+01 -0.68173297745E+02  0.69234038091E+02  0.41800000000E+01 0.  1.
         -5    1    3    3    0  502 -0.18952540732E+02 -0.11137063007E+02  0.53777324164E+02  0.58246939550E+02  0.41800000000E+01 0.  1.
        -11    1    1    2    0    0  0.47625315393E+02  0.29017241102E+02 -0.34110349500E+02  0.65373441783E+02  0.00000000000E+00 0. -1.
         11    1    1    2    0    0 -0.38066238888E+02 -0.11552150381E+02 -0.31432173066E+02  0.50699824706E+02  0.00000000000E+00 0.  1.
</event>
<event>
 7    1  0.2690635E-009  0.1453353E+03  0.7561462E-02  0.1206325E+00
          1   -1    0    0  501    0  0.00000000000E+00  0.00000000000E+00  0.43102893557E+03  0.43102893557E+03  0.00000000000E+00 0. -1.
         -1   -1    0    0    0  501 -0.00000000000E+00 -0.00000000000E+00 -0.63676753426E+02  0.63676753426E+02  0.00000000000E+00 0.  1.
         25    2    1    2    0    0  0.82904976579E+02  0.91761605947E+02  0.16855235862E+03  0.24362005789E+03  0.12508959807E+03 0.  0.
          5    1    3    3  502    0  0.28751082712E+02 -0.20378122526E+02  0.88935494981E+02  0.95754306965E+02  0.41800000000E+01 0. -1.
         -5    1    3    3    0  502  0.54153893867E+02  0.11213972847E+03  0.79616863634E+02  0.14786575093E+03  0.41800000000E+01 0. -1.
        -11    1    1    2    0    0 -0.49542775875E+02 -0.23994014070E+02  0.22838282056E+02  0.59596866360E+02  0.00000000000E+00 0.  1.
         11    1    1    2    0    0 -0.33362200704E+02 -0.67767591877E+02  0.17596154147E+03  0.19148876474E+03  0.00000000000E+00 0. -1.
</event>
<event>
 7    1  0.2690635E-009  0.9921631E+02  0.7561462E-02  0.1281953E+00
          1   -1    0    0  501    0  0.00000000000E+00  0.00000000000E+00  0.65275433605E+03  0.65275433605E+03  0.00000000000E+00 0. -1.
         -1   -1    0    0    0  501 -0.00000000000E+00 -0.00000000000E+00 -0.18202635840E+02  0.18202635840E+02  0.00000000000E+00 0.  1.
         25    2    1    2    0    0 -0.25532680186E+02  0.10800263466E+01  0.44527854585E+03  0.46322247468E+03  0.12509593697E+03 0.  0.
          5    1    3    3  502    0  0.37159491655E+02 -0.26891305851E+02  0.28663816140E+03  0.29031513588E+03  0.41800000000E+01 0. -1.
         -5    1    3    3    0  502 -0.62692171841E+02  0.27971332198E+02  0.15864038445E+03  0.17290733881E+03  0.41800000000E+01 0. -1.
        -11    1    1    2    0    0 -0.28442414266E+02 -0.70209536586E+01  0.46225148759E+02  0.54726859012E+02  0.00000000000E+00 0.  1.
         11    1    1    2    0    0  0.53975094452E+02  0.59409273119E+01  0.14304800561E+03  0.15300763820E+03  0.00000000000E+00 0. -1.
</event>
<event>
 7    1  0.2690635E-009  0.1277733E+03  0.7561462E-02  0.1230798E+00
         -2   -1    0    0    0  501 -0.00000000000E+00  0.00000000000E+00  0.12427754126E+02  0.12427754126E+02  0.00000000000E+00 0.  1.
          2   -1    0    0  501    0  0.00000000000E+00 -0.00000000000E+00 -0.13361273757E+04  0.13361273757E+04  0.00000000000E+00 0. -1.
         25    2    1    2    0    0  0.14135519227E+02 -0.65015572775E+02 -0.75564328362E+03  0.76881157909E+03  0.12509050502E+03 0.  0.
          5    1    3    3  502    0 -0.37188768591E+02  0.18893855809E+02 -0.18061592496E+03  0.18541727818E+03  0.41800000000E+01 0. -1.
         -5    1    3    3    0  502  0.51324287818E+02 -0.83909428584E+02 -0.57502735866E+03  0.58339430091E+03  0.41800000000E+01 0. -1.
        -11    1    1    2    0    0 -0.39541298121E+02 -0.57769783296E+01 -0.16891812494E+03  0.17358058840E+03  0.00000000000E+00 0.  1.
         11    1    1    2    0    0  0.25405778893E+02  0.70792551104E+02 -0.39913821306E+03  0.40616296239E+03  0.00000000000E+00 0. -1.
</event>
<event>
 7    1  0.2690635E-009  0.3546372E+03  0.7561462E-02  0.1060728E+00
          2   -1    0    0  501    0  0.00000000000E+00  0.00000000000E+00  0.13254054841E+04  0.13254054841E+04  0.00000000000E+00 0. -1.
         -2   -1    0    0    0  501 -0.00000000000E+00 -0.00000000000E+00 -0.13740552465E+03  0.13740552465E+03  0.00000000000E+00 0.  1.
         25    2    1    2    0    0 -0.34116508707E+03  0.59099135101E+02  0.21561857303E+03  0.42664573425E+03  0.12509551996E+03 0.  0.
          5    1    3    3  502    0 -0.21877889222E+03  0.66457688676E+02  0.76457530269E+02  0.24113078277E+03  0.41800000000E+01 0.  1.
         -5    1    3    3    0  502 -0.12238619486E+03 -0.73585535751E+01  0.13916104276E+03  0.18551495148E+03  0.41800000000E+01 0.  1.
        -11    1    1    2    0    0  0.34139781982E+03 -0.45626572517E+02  0.93784942071E+03  0.99909748844E+03  0.00000000000E+00 0. -1.
         11    1    1    2    0    0 -0.23273274778E+00 -0.13472562584E+02  0.34531965713E+02  0.37067786056E+02  0.00000000000E+00 0.  1.
</event>
<event>
 7    1  0.2690635E-009  0.6759146E+02  0.7561462E-02  0.1368480E+00
          1   -1    0    0  501    0  0.00000000000E+00  0.00000000000E+00  0.27244911896E+02  0.27244911896E+02  0.00000000000E+00 0. -1.
         -1   -1    0    0    0  501 -0.00000000000E+00 -0.00000000000E+00 -0.61381056728E+03  0.61381056728E+03  0.00000000000E+00 0.  1.
         25    2    1    2    0    0  0.22799264889E+02 -0.13293550477E+02 -0.20072843876E+03  0.23798636845E+03  0.12509628482E+03 0.  0.
          5    1    3    3  502    0  0.25900573782E+02 -0.99887870645E+01 -0.21792099878E+03  0.21972175518E+03  0.41800000000E+01 0. -1.
         -5    1    3    3    0  502 -0.31013088926E+01 -0.33047634126E+01  0.17192560016E+02  0.18264613272E+02  0.41800000000E+01 0. -1.
        -11    1    1    2    0    0 -0.39491046334E+02 -0.33170413900E+02 -0.95235982083E+02  0.10830379209E+03  0.00000000000E+00 0. -1.
         11    1    1    2    0    0  0.16691781445E+02  0.46463964377E+02 -0.29060123453E+03  0.29476531863E+03  0.00000000000E+00 0.  1.
</event>
<event>
 7    1  0.2690635E-009  0.1323328E+03  0.7561462E-02  0.1224035E+00
         -1   -1    0    0    0  501 -0.00000000000E+00  0.00000000000E+00  0.31118636065E+02  0.31118636065E+02  0.00000000000E+00 0.  1.
          1   -1    0    0  501    0  0.00000000000E+00 -0.00000000000E+00 -0.86429919090E+03  0.86429919090E+03  0.00000000000E+00 0. -1.
         25    2    1    2    0    0  0.44096448338E+02 -0.74052747165E+02 -0.67451919114E+03  0.69141278782E+03  0.12508875981E+03 0.  0.
          5    1    3    3  502    0  0.11324253339E+02 -0.10269798182E+03 -0.54466896844E+03  0.55439775591E+03  0.41800000000E+01 0.  1.
         -5    1    3    3    0  502  0.32772194999E+02  0.28645234653E+02 -0.12985022270E+03  0.13701503191E+03  0.41800000000E+01 0.  1.
        -11    1    1    2    0    0  0.18148720326E+02  0.45629162526E+02 -0.10870517449E+03  0.11928206690E+03  0.00000000000E+00 0. -1.
         11    1    1    2    0    0 -0.62245168664E+02  0.28423584640E+02 -0.49956189200E+02  0.84722972240E+02  0.00000000000E+00 0.  1.
</event>
<event>
 7    1  0.2690635E-009  0.1481841E+03  0.7561462E-02  0.1202722E+00
          2   -1    0    0  501    0  0.00000000000E+00  0.00000000000E+00  0.31872279521E+03  0.31872279521E+03  0.00000000000E+00 0. -1.
         -2   -1    0    0    0  501 -0.00000000000E+00 -0.00000000000E+00 -0.10247957590E+03  0.10247957590E+03  0.00000000000E+00 0.  1.
         25    2    1    2    0    0  0.11170057722E+03 -0.42206588314E+02  0.20480218596E+03  0.26804931720E+03  0.12509231004E+03 0.  0.
          5    1    3    3  502    0  0.47672335658E+02  0.31537803894E+02  0.13862035291E+03  0.15000119767E+03  0.41800000000E+01 0.  1.
         -5    1    3    3    0  502  0.64028241559E+02 -0.73744392209E+02  0.66181833052E+02  0.11804811953E+03  0.41800000000E+01 0.  1.
        -11    1    1    2    0    0 -0.72692890727E+02 -0.12859567889E+02 -0.23090648334E+02  0.77348580395E+02  0.00000000000E+00 0.  1.
         11    1    1    2    0    0 -0.39007686489E+02  0.55066156203E+02  0.34531681687E+02  0.75804473511E+02  0.00000000000E+00 0. -1.
</event>
<event>
 7    1  0.2690635E-009  0.1297900E+03  0.7561462E-02  0.1227768E+00
         -2   -1    0    0    0  501 -0.00000000000E+00  0.00000000000E+00  0.45297811033E+02  0.45297811033E+02  0.00000000000E+00 0.  1.
          2   -1    0    0  501    0  0.00000000000E+00 -0.00000000000E+00 -0.52723703396E+03  0.52723703396E+03  0.00000000000E+00 0. -1.
         25    2    1    2    0    0  0.10681070283E+03 -0.29109993724E+02 -0.25949841695E+03  0.30861408836E+03  0.12508920482E+03 0.  0.
          5    1    3    3  502    0  0.27493862057E+01 -0.20228491580E+02 -0.16922746251E+03  0.17050559364E+03  0.41800000000E+01 0.  1.
         -5    1    3    3    0  502  0.10406131663E+03 -0.88815021437E+01 -0.90270954439E+02  0.13810849472E+03  0.41800000000E+01 0.  1.
        -11    1    1    2    0    0 -0.10145483290E+03  0.49678220028E+02 -0.14611285336E+03  0.18468885884E+03  0.00000000000E+00 0. -1.
         11    1    1    2    0    0 -0.53558699329E+01 -0.20568226305E+02 -0.76327952622E+02  0.79231897791E+02  0.00000000000E+00 0.  1.
</event>
<event>
 7    1  0.2690635E-009  0.9767264E+02  0.7561462E-02  0.1285268E+00
          1   -1    0    0  501    0  0.00000000000E+00  0.00000000000E+00  0.11487944143E+03  0.11487944143E+03  0.00000000000E+00 0. -1.
         -1   -1    0    0    0  501 -0.00000000000E+00 -0.00000000000E+00 -0.15709464717E+03  0.15709464717E+03  0.00000000000E+00 0.  1.
         25    2    1    2    0    0 -0.71494805363E+02  0.18392355535E+02 -0.50256793382E+02  0.15369778431E+03  0.12508987842E+03 0.  0.
          5    1    3    3  502    0 -0.28966231788E+01  0.83532449003E+01 -0.78217214505E+02  0.78826215000E+02  0.41800000000E+01 0.  1.
         -5    1    3    3    0  502 -0.68598182184E+02  0.10039110635E+02  0.27960421123E+02  0.74871569308E+02  0.41800000000E+01 0.  1.
        -11    1    1    2    0    0  0.61799864561E+02 -0.52228192113E+02 -0.41693621402E+01  0.81020928727E+02  0.00000000000E+00 0.  1.
         11    1    1    2    0    0  0.96949408021E+01  0.33835836578E+02  0.12210949783E+02  0.37255375568E+02  0.00000000000E+00 0. -1.
</event>
<event>
 7    1  0.2690635E-009  0.1776323E+03  0.7561462E-02  0.1170114E+00
          2   -1    0    0  501    0  0.00000000000E+00  0.00000000000E+00  0.29600729281E+03  0.29600729281E+03  0.00000000000E+00 0.  1.
         -2   -1    0    0    0  501 -0.00000000000E+00 -0.00000000000E+00 -0.16583364200E+03  0.16583364200E+03  0.00000000000E+00 0. -1.
         25    2    1    2    0    0  0.15062003752E+03  0.64038067597E+01 -0.57490848806E+02  0.20416333332E+03  0.12510021796E+03 0.  0.
          5    1    3    3  502    0  0.14116506577E+03  0.50970527698E+02 -0.44857257493E+02  0.15670104160E+03  0.41800000000E+01 0.  1.
         -5    1    3    3    0  502  0.94549717448E+01 -0.44566720938E+02 -0.12633591312E+02  0.47462291720E+02  0.41800000000E+01 0.  1.
        -11    1    1    2    0    0 -0.72483334794E+02  0.22754775524E+02  0.14569510047E+03  0.16431273819E+03  0.00000000000E+00 0.  1.
         11    1    1    2    0    0 -0.78136702725E+02 -0.29158582283E+02  0.41969399142E+02  0.93364863294E+02  0.00000000000E+00 0. -1.
</event>
<event>
 7    1  0.2690635E-009  0.1759904E+03  0.7561462E-02  0.1171741E+00
          2   -1    0    0  501    0  0.00000000000E+00  0.00000000000E+00  0.14903782150E+04  0.14903782150E+04  0.00000000000E+00 0. -1.
         -2   -1    0    0    0  501 -0.00000000000E+00 -0.00000000000E+00 -0.33986958356E+02  0.33986958356E+02  0.00000000000E+00 0.  1.
         25    2    1    2    0    0  0.58450789112E+02 -0.15974455792E+03  0.10991407802E+04  0.11192370253E+04  0.12508495318E+03 0.  0.
          5    1    3    3  502    0  0.36695535679E+02 -0.89979896709E+02  0.27206793493E+03  0.28893144129E+03  0.41800000000E+01 0.  1.
         -5    1    3    3    0  502  0.21755253433E+02 -0.69764661216E+02  0.82707284528E+03  0.83030558399E+03  0.41800000000E+01 0.  1.
        -11    1    1    2    0    0 -0.32133263066E+02  0.16970643294E+02  0.30009968955E+02  0.47129052247E+02  0.00000000000E+00 0.  1.
         11    1    1    2    0    0 -0.26317526046E+02  0.14277391463E+03  0.32724050748E+03  0.35799909582E+03  0.00000000000E+00 0. -1.
</event>
<event>
 7    1  0.2690635E-009  0.9352279E+02  0.7561462E-02  0.1294538E+00
         -3   -1    0    0    0  501 -0.00000000000E+00  0.00000000000E+00  0.26418583991E+03  0.26418583991E+03  0.00000000000E+00 0.  1.
          3   -1    0    0  501    0  0.00000000000E+00 -0.00000000000E+00 -0.10469473749E+03  0.10469473749E+03  0.00000000000E+00 0. -1.
         25    2    1    2    0    0 -0.64297006325E+02  0.61139332200E+02 -0.13823752760E+02  0.15398050815E+03  0.12508708081E+03 0.  0.
          5    1    3    3  502    0 -0.25327778382E+02  0.51578388602E+02  0.51452477415E+02  0.77244134798E+02  0.41800000000E+01 0. -1.
         -5    1    3    3    0  502 -0.38969227943E+02  0.95609435981E+01 -0.65276230175E+02  0.76736373349E+02  0.41800000000E+01 0. -1.
        -11    1    1    2    0    0  0.24391716598E+02 -0.28685832226E+02  0.15622583807E+03  0.16069954975E+03  0.00000000000E+00 0.  1.
         11    1    1    2    0    0  0.39905289727E+02 -0.32453499975E+02  0.17089017098E+02  0.54200519501E+02  0.00000000000E+00 0. -1.
</event>
<event>
 7    1  0.2690635E-009  0.1203298E+03  0.7561462E-02  0.1242554E+00
         -3   -1    0    0    0  501 -0.00000000000E+00  0.00000000000E+00  0.26860710335E+02  0.26860710335E+02  0.00000000000E+00 0.  1.
          3   -1    0    0  501    0  0.00000000000E+00 -0.00000000000E+00 -0.12707581611E+04  0.12707581611E+04  0.00000000000E+00 0. -1.
         25    2    1    2    0    0  0.88096357901E+02  0.24263599616E+00 -0.10814715047E+04  0.10922404927E+04  0.12509057230E+03 0.  0.
          5    1    3    3  502    0  0.23656303299E+02 -0.38445578851E+02 -0.78682053750E+03  0.78812544296E+03  0.41800000000E+01 0. -1.
         -5    1    3    3    0  502  0.64440054602E+02  0.38688214847E+02 -0.29465096716E+03  0.30411504969E+03  0.41800000000E+01 0. -1.
        -11    1    1    2    0    0 -0.10378793492E+03 -0.41722226694E+01 -0.15712656908E+03  0.18835631550E+03  0.00000000000E+00 0. -1.
         11    1    1    2    0    0  0.15691577017E+02  0.39295866733E+01 -0.52993770013E+01  0.17022063250E+02  0.00000000000E+00 0.  1.
</event>
<event>
 7    1  0.2690635E-009  0.9644259E+02  0.7561462E-02  0.1287960E+00
          2   -1    0    0  501    0  0.00000000000E+00  0.00000000000E+00  0.53702173277E+03  0.53702173277E+03  0.00000000000E+00 0. -1.
         -2   -1    0    0    0  501 -0.00000000000E+00 -0.00000000000E+00 -0.22450154389E+02  0.22450154389E+02  0.00000000000E+00 0.  1.
         25    2    1    2    0    0  0.89342453388E+01 -0.11577988594E+02  0.28553807324E+03  0.31207987497E+03  0.12509191235E+03 0.  0.
          5    1    3    3  502    0 -0.35932024542E+02 -0.41302826716E+02  0.65261245333E+02  0.85285030485E+02  0.41800000000E+01 0.  1.
         -5    1    3    3    0  502  0.44866269881E+02  0.29724838122E+02  0.22027682791E+03  0.22679484449E+03  0.41800000000E+01 0.  1.
        -11    1    1    2    0    0 -0.45981577865E+02  0.90643089445E+01  0.71134388531E+02  0.85185494254E+02  0.00000000000E+00 0.  1.
         11    1    1    2    0    0  0.37047332526E+02  0.25136796491E+01  0.15789911661E+03  0.16220651793E+03  0.00000000000E+00 0. -1.
</event>
<event>
 7    1  0.2690635E-009  0.7025201E+02  0.7561462E-02  0.1359238E+00
         -2   -1    0    0    0  501 -0.00000000000E+00  0.00000000000E+00  0.10998257682E+03  0.10998257682E+03  0.00000000000E+00 0.  1.
          2   -1    0    0  501    0  0.00000000000E+00 -0.00000000000E+00 -0.11767847815E+03  0.11767847815E+03  0.00000000000E+00 0. -1.
         25    2    1    2    0    0 -0.58909185301E+01  0.25405222387E+02  0.19169143927E+02  0.12922587011E+03  0.12510691899E+03 0.  0.
          5    1    3    3  502    0 -0.21580507086E+02  0.23295909337E+02  0.69378062020E+02  0.76414694710E+02  0.41800000000E+01 0.  1.
         -5    1    3    3    0  502  0.15689588556E+02  0.21093130500E+01 -0.50208918093E+02  0.52811175396E+02  0.41800000000E+01 0.  1.
        -11    1    1    2    0    0 -0.29561950428E+02 -0.43267977970E+02 -0.26528944092E+02  0.58735097730E+02  0.00000000000E+00 0. -1.
         11    1    1    2    0    0  0.35452868958E+02  0.17862755583E+02 -0.33610116874E+00  0.39700087133E+02  0.00000000000E+00 0.  1.
</event>
<event>
 7    1  0.2690635E-009  0.1054976E+03  0.7561462E-02  0.1269142E+00
         -2   -1    0    0    0  501 -0.00000000000E+00  0.00000000000E+00  0.13449730512E+03  0.13449730512E+03  0.00000000000E+00 0. -1.
          2   -1    0    0  501    0  0.00000000000E+00 -0.00000000000E+00 -0.14738452132E+03  0.14738452132E+03  0.00000000000E+00 0.  1.
         25    2    1    2    0    0 -0.71612513067E+02  0.36718704018E+02 -0.47489613110E+02  0.15614138537E+03  0.12509297990E+03 0.  0.
          5    1    3    3  502    0 -0.17830791265E+02  0.42334219034E+02 -0.80407311221E+02  0.92698065331E+02  0.41800000000E+01 0. -1.
         -5    1    3    3    0  502 -0.53781721802E+02 -0.56155150164E+01  0.32917698111E+02  0.63443320041E+02  0.41800000000E+01 0. -1.
        -11    1    1    2    0    0  0.44398453460E+02  0.19255872270E+02  0.40658463026E+02  0.63206976689E+02  0.00000000000E+00 0. -1.
         11    1    1    2    0    0  0.27214059606E+02 -0.55974576287E+02 -0.60560661187E+01  0.62533464382E+02  0.00000000000E+00 0.  1.
</event>
<event>
 7    1  0.2690635E-009  0.5946554E+02  0.7561462E-02  0.1400088E+00
         -1   -1    0    0    0  501 -0.00000000000E+00  0.00000000000E+00  0.11571194377E+03  0.11571194377E+03  0.00000000000E+00 0.  1.
          1   -1    0    0  501    0  0.00000000000E+00 -0.00000000000E+00 -0.12367877692E+03  0.12367877692E+03  0.00000000000E+00 0. -1.
         25    2    1    2    0    0 -0.42787601932E+02  0.22285008112E+02 -0.19041215964E+01  0.13408496200E+03  0.12509097045E+03 0.  0.
          5    1    3    3  502    0  0.87138279535E+01 -0.11484455087E+01  0.53741266188E+02  0.54615435695E+02  0.41800000000E+01 0. -1.
         -5    1    3    3    0  502 -0.51501429885E+02  0.23433453621E+02 -0.55645387784E+02  0.79469526301E+02  0.41800000000E+01 0. -1.
        -11    1    1    2    0    0  0.22201803163E+02 -0.10595055448E+00  0.42578887665E+02  0.48019714327E+02  0.00000000000E+00 0.  1.
         11    1    1    2    0    0  0.20585798769E+02 -0.22179057558E+02 -0.48641599214E+02  0.57286044367E+02  0.00000000000E+00 0. -1.
</event>
<event>
 7    1  0.2690635E-009  0.1621658E+03  0.7561462E-02  0.1186273E+00
          1   -1    0    0  501    0  0.00000000000E+00  0.00000000000E+00  0.13972816025E+03  0.13972816025E+03  0.00000000000E+00 0. -1.
         -1   -1    0    0    0  501 -0.00000000000E+00 -0.00000000000E+00 -0.26135907089E+03  0.26135907089E+03  0.00000000000E+00 0.  1.
         25    2    1    2    0    0 -0.12033222563E+03  0.60514207017E+02 -0.14877776280E+03  0.23648040830E+03  0.12508535897E+03 0.  0.
          5    1    3    3  502    0 -0.59384872835E+01 -0.26971161057E+02  0.19144193717E+01  0.27997259893E+02  0.41800000000E+01 0. -1.
         -5    1    3    3    0  502 -0.11439373835E+03  0.87485368074E+02 -0.15069218218E+03  0.20848314841E+03  0.41800000000E+01 0. -1.
        -11    1    1    2    0    0  0.60685072135E+02  0.83108206785E+01  0.39224375942E+02  0.72734444305E+02  0.00000000000E+00 0. -1.
         11    1    1    2    0    0  0.59647153496E+02 -0.68825027696E+02 -0.12077523784E+02  0.91872378538E+02  0.00000000000E+00 0.  1.
</event>
<event>
 7    1  0.2690635E-009  0.7477913E+02  0.7561462E-02  0.1344556E+00
         -1   -1    0    0    0  501 -0.00000000000E+00  0.00000000000E+00  0.47149802273E+03  0.47149802273E+03  0.00000000000E+00 0.  1.
          1   -1    0    0  501    0  0.00000000000E+00 -0.00000000000E+00 -0.30291156920E+02  0.30291156920E+02  0.00000000000E+00 0. -1.
         25    2    1    2    0    0  0.19018959719E+02 -0.42876416662E+02  0.32735067741E+03  0.35356206879E+03  0.12509021765E+03 0.  0.
          5    1    3    3  502    0 -0.12237584237E+02 -0.32802217838E+02  0.31688744372E+03  0.31884301521E+03  0.41800000000E+01 0.  1.
         -5    1    3    3    0  502  0.31256543956E+02 -0.10074198824E+02  0.10463233692E+02  0.34719053578E+02  0.41800000000E+01 0.  1.
        -11    1    1    2    0    0  0.82364555579E+01  0.51849500775E+02  0.10629504178E+03  0.11855313508E+03  0.00000000000E+00 0.  1.
         11    1    1    2    0    0 -0.27255415277E+02 -0.89730841121E+01  0.75611466224E+01  0.29673975781E+02  0.00000000000E+00 0. -1.
</event>
<event>
 7    1  0.2690635E-009  0.1019350E+03  0.7561462E-02  0.1276279E+00
         -1   -1    0    0    0  501 -0.00000000000E+00  0.00000000000E+00  0.43860258895E+02  0.43860258895E+02  0.00000000000E+00 0.  1.
          1   -1    0    0  501    0  0.00000000000E+00 -0.00000000000E+00 -0.29846724611E+03  0.29846724611E+03  0.00000000000E+00 0. -1.
         25    2    1    2    0    0 -0.15648834836E+02  0.33913619016E+02 -0.12991392150E+03  0.18417363032E+03  0.12508908634E+03 0.  0.
          5    1    3    3  502    0  0.41538932498E+02  0.24310481488E+01 -0.10696662710E+03  0.11485087994E+03  0.41800000000E+01 0. -1.
         -5    1    3    3    0  502 -0.57187767334E+02  0.31482570867E+02 -0.22947294393E+02  0.69322750386E+02  0.41800000000E+01 0. -1.
        -11    1    1    2    0    0 -0.25592540860E+02 -0.46874550703E+02 -0.77889956020E+02  0.94440705737E+02  0.00000000000E+00 0. -1.
         11    1    1    2    0    0  0.41241375697E+02  0.12960931687E+02 -0.46803109695E+02  0.63713168942E+02  0.00000000000E+00 0.  1.
</event>
<event>
 7    1  0.2690635E-009  0.3092453E+03  0.7561462E-02  0.1080708E+00
         -2   -1    0    0    0  501 -0.00000000000E+00  0.00000000000E+00  0.77877360350E+02  0.77877360350E+02  0.00000000000E+00 0.  1.
          2   -1    0    0  501    0  0.00000000000E+00 -0.00000000000E+00 -0.15302917440E+04  0.15302917440E+04  0.00000000000E+00 0. -1.
         25    2    1    2    0    0  0.16885940852E+03 -0.23865722590E+03 -0.39411318953E+03  0.50640284073E+03  0.12509140508E+03 0.  0.
          5    1    3    3  502    0 -0.61028465277E+01 -0.71911749535E+02 -0.12712145591E+03  0.14623912407E+03  0.41800000000E+01 0.  1.
         -5    1    3    3    0  502  0.17496225505E+03 -0.16674547636E+03 -0.26699173362E+03  0.36016371666E+03  0.41800000000E+01 0.  1.
        -11    1    1    2    0    0 -0.15343411304E+03  0.15032756205E+03 -0.68737394808E+03  0.72015508570E+03  0.00000000000E+00 0.  1.
         11    1    1    2    0    0 -0.15425295478E+02  0.88329663844E+02 -0.37092724601E+03  0.38161117788E+03  0.00000000000E+00 0. -1.
</event>
<event>
 7    1  0.2690635E-009  0.2284918E+03  0.7561462E-02  0.1127706E+00
          2   -1    0    0  501    0  0.00000000000E+00  0.00000000000E+00  0.96011541311E+03  0.96011541311E+03  0.00000000000E+00 0. -1.
         -2   -1    0    0    0  501 -0.00000000000E+00 -0.00000000000E+00 -0.74057729474E+02  0.74057729474E+02  0.00000000000E+00 0.  1.
         25    2    1    2    0    0 -0.64358926841E+02 -0.21041818465E+03  0.24962796070E+03  0.35549911626E+03  0.12509044331E+03 0.  0.
          5    1    3    3  502    0 -0.65161175726E+02 -0.85038872027E+02  0.18635151067E+03  0.21499289873E+03  0.41800000000E+01 0.  1.
         -5    1    3    3    0  502  0.80224888467E+00 -0.12537931262E+03  0.63276450029E+02  0.14050621753E+03  0.41800000000E+01 0.  1.
        -11    1    1    2    0    0  0.34688216701E+02  0.48064668885E+02  0.89206990228E+02  0.10710449047E+03  0.00000000000E+00 0.  1.
         11    1    1    2    0    0  0.29670710140E+02  0.16235351576E+03  0.54722273271E+03  0.57156953586E+03  0.00000000000E+00 0. -1.
</event>
<event>
 7    1  0.2690635E-009  0.1798946E+03  0.7561462E-02  0.1167905E+00
          3   -1    0    0  501    0  0.00000000000E+00  0.00000000000E+00  0.23314348724E+03  0.23314348724E+03  0.00000000000E+00 0. -1.
         -3   -1    0    0    0  501 -0.00000000000E+00 -0.00000000000E+00 -0.14906982674E+03  0.14906982674E+03  0.00000000000E+00 0.  1.
         25    2    1    2    0    0 -0.13657791926E+03 -0.50357674006E+02  0.85327001943E+02  0.21004196825E+03  0.12508999882E+03 0.  0.
          5    1    3    3  502    0 -0.10814772976E+03 -0.88682497027E+02  0.81644136204E+02  0.16199924107E+03  0.41800000000E+01 0.  1.
         -5    1    3    3    0  502 -0.28430189497E+02  0.38324823020E+02  0.36828657391E+01  0.48042727175E+02  0.41800000000E+01 0.  1.
        -11    1    1    2    0    0  0.21985865793E+02 -0.26162897722E+02  0.30646911285E+01  0.34311336954E+02  0.00000000000E+00 0. -1.
         11    1    1    2    0    0  0.11459205346E+03  0.76520571728E+02 -0.43180325793E+01  0.13786000878E+03  0.00000000000E+00 0.  1.
</event>
<event>
 7    1  0.2690635E-009  0.1331552E+03  0.7561462E-02  0.1222848E+00
          4   -1    0    0  501    0  0.00000000000E+00  0.00000000000E+00  0.20660079000E+03  0.20660079000E+03  0.00000000000E+00 0.  1.
         -4   -1    0    0    0  501 -0.00000000000E+00 -0.00000000000E+00 -0.97221174640E+02  0.97221174640E+02  0.00000000000E+00 0. -1.
         25    2    1    2    0    0  0.68404515295E+02 -0.55426418815E+02  0.88396684524E+02  0.17667473064E+03  0.12509484801E+03 0.  0.
          5    1    3    3  502    0 -0.33400074945E+02 -0.34067290131E+02  0.37315107388E+02  0.60712724388E+02  0.41800000000E+01 0.  1.
         -5    1    3    3    0  502  0.10180459024E+03 -0.21359128683E+02  0.51081577136E+02  0.11596200625E+03  0.41800000000E+01 0.  1.
        -11    1    1    2    0    0  0.60486835092E+01  0.37164375226E+02  0.32359002507E+02  0.49647582030E+02  0.00000000000E+00 0.  1.
         11    1    1    2    0    0 -0.74453198804E+02  0.18262043589E+02 -0.11376071673E+02  0.77499651966E+02  0.00000000000E+00 0. -1.
</event>
<event>
 7    1  0.2690635E-009  0.1160885E+03  0.7561462E-02  0.1249693E+00
         -2   -1    0    0    0  501 -0.00000000000E+00  0.00000000000E+00  0.20640233390E+02  0.20640233390E+02  0.00000000000E+00 0.  1.
          2   -1    0    0  501    0  0.00000000000E+00 -0.00000000000E+00 -0.84869804051E+03  0.84869804051E+03  0.00000000000E+00 0. -1.
         25    2    1    2    0    0  0.42396799683E+02  0.49270823929E+02 -0.58988475331E+03  0.60649544302E+03  0.12509035737E+03 0.  0.
          5    1    3    3  502    0  0.49945006391E+02  0.77931663589E+02 -0.27497548957E+03  0.29016691768E+03  0.41800000000E+01 0. -1.
         -5    1    3    3    0  502 -0.75482067082E+01 -0.28660839660E+02 -0.31490926374E+03  0.31632852534E+03  0.41800000000E+01 0. -1.
        -11    1    1    2    0    0 -0.18536033870E+02  0.25260063757E+02 -0.49481796088E+02  0.58567085609E+02  0.00000000000E+00 0. -1.
         11    1    1    2    0    0 -0.23860765813E+02 -0.74530887686E+02 -0.18869125772E+03  0.20427574527E+03  0.00000000000E+00 0.  1.
</event>
<event>
 7    1  0.2690635E-009  0.2013589E+03  0.7561462E-02  0.1148598E+00
          1   -1    0    0  501    0  0.00000000000E+00  0.00000000000E+00  0.10721561583E+03  0.10721561583E+03  0.00000000000E+00 0. -1.
         -1   -1    0    0    0  501 -0.00000000000E+00 -0.00000000000E+00 -0.46409866175E+03  0.46409866175E+03  0.00000000000E+00 0.  1.
         25    2    1    2    0    0  0.10985554269E+03  0.13809979900E+03 -0.29083658576E+03  0.36245460806E+03  0.12509048143E+03 0.  0.
          5    1    3    3  502    0 -0.79183573345E+01 -0.11222315830E+02 -0.67855586094E+02  0.69357722855E+02  0.41800000000E+01 0. -1.
         -5    1    3    3    0  502  0.11777390003E+03  0.14932211483E+03 -0.22298099967E+03  0.29309688521E+03  0.41800000000E+01 0. -1.
        -11    1    1    2    0    0 -0.82665548444E+02 -0.32056967486E+02 -0.30300697833E+02  0.93698315637E+02  0.00000000000E+00 0. -1.
         11    1    1    2    0    0 -0.27189994249E+02 -0.10604283152E+03 -0.35745762322E+02  0.11516135388E+03  0.00000000000E+00 0.  1.
</event>
<event>
 7    1  0.3143217E-009  0.2531645E+03  0.7561462E-02  0.1111321E+00
          2   -1    0    0  501    0  0.00000000000E+00  0.00000000000E+00  0.10992837037E+04  0.10992837037E+04  0.00000000000E+00 0. -1.
         -2   -1    0    0    0  501 -0.00000000000E+00 -0.00000000000E+00 -0.69710076851E+02  0.69710076851E+02  0.00000000000E+00 0.  1.
         25    2    1    2    0    0 -0.91760340765E+02  0.22007314583E+03  0.71448772957E+03  0.76354005005E+03  0.12509413524E+03 0.  0.
          5    1    3    3  502    0  0.27647409266E+02  0.69033430919E+02  0.24553431588E+03  0.25658247505E+03  0.41800000000E+01 0. -1.
         -5    1    3    3    0  502 -0.11940775003E+03  0.15103971491E+03  0.46895341368E+03  0.50695757501E+03  0.41800000000E+01 0. -1.
        -11    1    1    2    0    0  0.69462565835E+02 -0.14216993656E+03  0.13507206879E+03  0.20804279050E+03  0.00000000000E+00 0.  1.
         11    1    1    2    0    0  0.22297774930E+02 -0.77903209274E+02  0.18001382846E+03  0.19741093997E+03  0.00000000000E+00 0. -1.
</event>
<event>
 7    1  0.2690635E-009  0.1269537E+03  0.7561462E-02  0.1232047E+00
         -2   -1    0    0    0  501 -0.00000000000E+00  0.00000000000E+00  0.25316455467E+02  0.25316455467E+02  0.00000000000E+00 0.  1.
          2   -1    0    0  501    0  0.00000000000E+00 -0.00000000000E+00 -0.10843682300E+04  0.10843682300E+04  0.00000000000E+00 0. -1.
         25    2    1    2    0    0  0.70574936356E+02  0.98592517916E+02 -0.66591361372E+03  0.68832402686E+03  0.12509084211E+03 0.  0.
          5    1    3    3  502    0  0.15212534348E+02 -0.23934871973E+01 -0.37610235621E+03  0.37644070547E+03  0.41800000000E+01 0.  1.
         -5    1    3    3    0  502  0.55362402008E+02  0.10098600511E+03 -0.28981125751E+03  0.31188332139E+03  0.41800000000E+01 0.  1.
        -11    1    1    2    0    0 -0.31039201326E+02 -0.28015671724E+02 -0.36000376719E+02  0.55175510918E+02  0.00000000000E+00 0.  1.
         11    1    1    2    0    0 -0.39535735030E+02 -0.70576846192E+02 -0.35713778411E+03  0.36618514770E+03  0.00000000000E+00 0. -1.
</event>
<event>
 7    1  0.2690635E-009  0.1053172E+03  0.7561462E-02  0.1269496E+00
          2   -1    0    0  501    0  0.00000000000E+00  0.00000000000E+00  0.16392604731E+03  0.16392604731E+03  0.00000000000E+00 0. -1.
         -2   -1    0    0    0  501 -0.00000000000E+00 -0.00000000000E+00 -0.11797840962E+03  0.11797840962E+03  0.00000000000E+00 0.  1.
         25    2    1    2    0    0 -0.62752252918E+02 -0.57920804779E+02  0.38614188153E+02  0.15630463976E+03  0.12508964789E+03 0.  0.
          5    1    3    3  502    0 -0.73822396019E+02 -0.23628217005E+02  0.72827387776E+02  0.10643937055E+03  0.41800000000E+01 0. -1.
         -5    1    3    3    0  502  0.11070143101E+02 -0.34292587774E+02 -0.34213199623E+02  0.49865269206E+02  0.41800000000E+01 0. -1.
        -11    1    1    2    0    0  0.28696342208E+02 -0.96092964816E+00  0.40721630486E+02  0.49826244403E+02  0.00000000000E+00 0. -1.
         11    1    1    2    0    0  0.34055910710E+02  0.58881734427E+02 -0.33388180950E+02  0.75773572772E+02  0.00000000000E+00 0.  1.
</event>
<event>
 7    1  0.2690635E-009  0.9996435E+02  0.7561462E-02  0.1280371E+00
         -2   -1    0    0    0  501 -0.00000000000E+00  0.00000000000E+00  0.36057298142E+02  0.36057298142E+02  0.00000000000E+00 0.  1.
          2   -1    0    0  501    0  0.00000000000E+00 -0.00000000000E+00 -0.46772703042E+03  0.46772703042E+03  0.00000000000E+00 0. -1.
         25    2    1    2    0    0 -0.61643221411E+02  0.32981651316E+02 -0.21433304021E+03  0.25782661745E+03  0.12509291136E+03 0.  0.
          5    1    3    3  502    0 -0.59536468020E+02  0.56594427699E+02 -0.21843529926E+03  0.23340731058E+03  0.41800000000E+01 0. -1.
         -5    1    3    3    0  502 -0.21067533907E+01 -0.23612776383E+02  0.41022590552E+01  0.24419306864E+02  0.41800000000E+01 0. -1.
        -11    1    1    2    0    0  0.27623830734E+02 -0.48810594443E+02 -0.52222346390E+02  0.76633697658E+02  0.00000000000E+00 0.  1.
         11    1    1    2    0    0  0.34019390677E+02  0.15828943126E+02 -0.16511434569E+03  0.16932401346E+03  0.00000000000E+00 0. -1.
</event>
<event>
 7    1  0.2690635E-009  0.1675857E+03  0.7561462E-02  0.1180389E+00
         -2   -1    0    0    0  501 -0.00000000000E+00  0.00000000000E+00  0.83684613598E+02  0.83684613598E+02  0.00000000000E+00 0.  1.
          2   -1    0    0  501    0  0.00000000000E+00 -0.00000000000E+00 -0.47730423380E+03  0.47730423380E+03  0.00000000000E+00 0. -1.
         25    2    1    2    0    0  0.11051151194E+03 -0.73153676763E+02 -0.35072947904E+03  0.39525056708E+03  0.12509032180E+03 0.  0.
          5    1    3    3  502    0  0.10217989719E+03 -0.83028690674E+00 -0.25624073652E+03  0.27589528488E+03  0.41800000000E+01 0.  1.
         -5    1    3    3    0  502  0.83316147564E+01 -0.72323389856E+02 -0.94488742525E+02  0.11935528220E+03  0.41800000000E+01 0.  1.
        -11    1    1    2    0    0 -0.44372408513E+02  0.82017063560E+02 -0.28042937619E+02  0.97376155718E+02  0.00000000000E+00 0.  1.
         11    1    1    2    0    0 -0.66139103428E+02 -0.88633867965E+01 -0.14847203543E+02  0.68362124608E+02  0.00000000000E+00 0. -1.
</event>
<event>
 7    1  0.2690635E-009  0.9857053E+02  0.7561462E-02  0.1283331E+00
         -1   -1    0    0    0  501 -0.00000000000E+00  0.00000000000E+00  0.22904707865E+02  0.22904707865E+02  0.00000000000E+00 0.  1.
          1   -1    0    0  501    0  0.00000000000E+00 -0.00000000000E+00 -0.61440267604E+03  0.61440267604E+03  0.00000000000E+00 0. -1.
         25    2    1    2    0    0 -0.10581516252E+02 -0.13077034330E+02 -0.47359928279E+03  0.49012933786E+03  0.12509000706E+03 0.  0.
          5    1    3    3  502    0 -0.24454916056E+02 -0.61307696940E+02 -0.35768178036E+03  0.36374497251E+03  0.41800000000E+01 0. -1.
         -5    1    3    3    0  502  0.13873399805E+02  0.48230662610E+02 -0.11591750243E+03  0.12638436536E+03  0.41800000000E+01 0. -1.
        -11    1    1    2    0    0  0.17413563415E+02  0.44867022139E+02 -0.39355156956E+02  0.62170010821E+02  0.00000000000E+00 0.  1.
         11    1    1    2    0    0 -0.68320471636E+01 -0.31789987809E+02 -0.78543528436E+02  0.85008035223E+02  0.00000000000E+00 0. -1.
</event>
<event>
 7    1  0.2690635E-009  0.9857271E+02  0.7561462E-02  0.1283326E+00
         -1   -1    0    0    0  501 -0.00000000000E+00  0.00000000000E+00  0.99245880695E+02  0.99245880695E+02  0.00000000000E+00 0.  1.
          1   -1    0    0  501    0  0.00000000000E+00 -0.00000000000E+00 -0.16966323232E+03  0.16966323232E+03  0.00000000000E+00 0. -1.
         25    2    1    2    0    0 -0.34902580681E+02  0.60975630798E+02 -0.37707529142E+02  0.14834154023E+03  0.12508851711E+03 0.  0.
          5    1    3    3  502    0 -0.35263055281E+02  0.88494336225E+02 -0.60016458084E+02  0.11266844391E+03  0.41800000000E+01 0. -1.
         -5    1    3    3    0  502  0.36047459984E+00 -0.27518705427E+02  0.22308928942E+02  0.35673096317E+02  0.41800000000E+01 0. -1.
        -11    1    1    2    0    0 -0.17325092352E+01 -0.15325390797E+02 -0.55614157543E+02  0.57713115585E+02  0.00000000000E+00 0. -1.
         11    1    1    2    0    0  0.36635089916E+02 -0.45650240002E+02  0.22904335063E+02  0.62854457201E+02  0.00000000000E+00 0.  1.
</event>
<event>
 7    1  0.2690635E-009  0.6896757E+02  0.7561462E-02  0.1363639E+00
         -2   -1    0    0    0  501 -0.00000000000E+00  0.00000000000E+00  0.17063604567E+03  0.17063604567E+03  0.00000000000E+00 0.  1.
          2   -1    0    0  501    0  0.00000000000E+00 -0.00000000000E+00 -0.69575148726E+02  0.69575148726E+02  0.00000000000E+00 0. -1.
         25    2    1    2    0    0 -0.14501101035E+02  0.12290161679E+01  0.65711917513E+02  0.14204631254E+03  0.12508919374E+03 0.  0.
          5    1    3    3  502    0 -0.41515413613E+02  0.13959519821E+02  0.92039676012E+02  0.10201554843E+03  0.41800000000E+01 0.  1.
         -5    1    3    3    0  502  0.27014312578E+02 -0.12730503653E+02 -0.26327758499E+02  0.40030764106E+02  0.41800000000E+01 0.  1.
        -11    1    1    2    0    0 -0.13849250577E+01  0.29318128192E+02  0.52158536702E+02  0.59849675095E+02  0.00000000000E+00 0.  1.
         11    1    1    2    0    0  0.15886026093E+02 -0.30547144360E+02 -0.16809557274E+02  0.38315206763E+02  0.00000000000E+00 0. -1.
</event>
<event>
 7    1  0.2690635E-009  0.1390375E+03  0.7561462E-02  0.1214630E+00
         -1   -1    0    0    0  501 -0.00000000000E+00  0.00000000000E+00  0.25387930990E+03  0.25387930990E+03  0.00000000000E+00 0.  1.
          1   -1    0    0  501    0  0.00000000000E+00 -0.00000000000E+00 -0.12779795107E+03  0.12779795107E+03  0.00000000000E+00 0. -1.
         25    2    1    2    0    0  0.50580941794E+01 -0.95328510059E+02  0.18021348277E+03  0.23924307836E+03  0.12508893645E+03 0.  0.
          5    1    3    3  502    0  0.10607096092E+02  0.24154179731E+02  0.51872246196E+01  0.27208722595E+02  0.41800000000E+01 0. -1.
         -5    1    3    3    0  502 -0.55490019123E+01 -0.11948268979E+03  0.17502625815E+03  0.21203435577E+03  0.41800000000E+01 0. -1.
        -11    1    1    2    0    0  0.26413299284E+02 -0.46912980986E+01 -0.12858153062E+02  0.29748995900E+02  0.00000000000E+00 0.  1.
         11    1    1    2    0    0 -0.31471393463E+02  0.10001980816E+03 -0.41273970881E+02  0.11268518670E+03  0.00000000000E+00 0. -1.
</event>
<event>
 7    1  0.2690635E-009  0.9047394E+02  0.7561462E-02  0.1301708E+00
          2   -1    0    0  501    0  0.00000000000E+00  0.00000000000E+00  0.36567491197E+03  0.36567491197E+03  0.00000000000E+00 0. -1.
         -2   -1    0    0    0  501 -0.00000000000E+00 -0.00000000000E+00 -0.48565801553E+02  0.48565801553E+02  0.00000000000E+00 0.  1.
         25    2    1    2    0    0 -0.65835073989E+02  0.40930826530E+02  0.15919229685E+03  0.21679702579E+03  0.12509665658E+03 0.  0.
          5    1    3    3  502    0 -0.39678877128E+02  0.44020982163E+02  0.17567319292E+03  0.18544757554E+03  0.41800000000E+01 0.  1.
         -5    1    3    3    0  502 -0.26156196860E+02 -0.30901556329E+01 -0.16480896070E+02  0.31349450255E+02  0.41800000000E+01 0.  1.
        -11    1    1    2    0    0  0.44291534568E+02  0.45686137076E+01  0.13495781126E+03  0.14211341627E+03  0.00000000000E+00 0. -1.
         11    1    1    2    0    0  0.21543539421E+02 -0.45499440237E+02  0.22959002309E+02  0.55330271459E+02  0.00000000000E+00 0.  1.
</event>
<event>
 7    1  0.4483917E-009  0.9934813E+02  0.7561462E-02  0.1281673E+00
          1   -1    0    0  501    0  0.00000000000E+00  0.00000000000E+00  0.26350539959E+03  0.26350539959E+03  0.00000000000E+00 0. -1.
         -1   -1    0    0    0  501 -0.00000000000E+00 -0.00000000000E+00 -0.67345386785E+02  0.67345386785E+02  0.00000000000E+00 0.  1.
         25    2    1    2    0    0  0.67465670412E+02  0.27177315137E+02  0.13854984163E+03  0.20033386231E+03  0.12508946651E+03 0.  0.
          5    1    3    3  502    0  0.40062448299E+02 -0.37719974089E+02  0.11214324191E+03  0.12498550042E+03  0.41800000000E+01 0.  1.
         -5    1    3    3    0  502  0.27403222113E+02  0.64897289226E+02  0.26406599720E+02  0.75348361892E+02  0.41800000000E+01 0.  1.
        -11    1    1    2    0    0 -0.20454045997E+02 -0.11008374720E+02 -0.24984764740E+02  0.34114377918E+02  0.00000000000E+00 0.  1.
         11    1    1    2    0    0 -0.47011624415E+02 -0.16168940417E+02  0.82594935918E+02  0.96402546147E+02  0.00000000000E+00 0. -1.
</event>
<event>
 7    1  0.2690635E-009  0.8458797E+02  0.7561462E-02  0.1316514E+00
         -2   -1    0    0    0  501 -0.00000000000E+00  0.00000000000E+00  0.71963352661E+02  0.71963352661E+02  0.00000000000E+00 0. -1.
          2   -1    0    0  501    0  0.00000000000E+00 -0.00000000000E+00 -0.18666638686E+03  0.18666638686E+03  0.00000000000E+00 0.  1.
         25    2    1    2    0    0 -0.35970989952E+02  0.11176710479E+02 -0.44456911249E+02  0.13799552694E+03  0.12509003767E+03 0.  0.
          5    1    3    3  502    0 -0.68599890903E+02  0.38328215557E+01 -0.68097104125E+02  0.96826254411E+02  0.41800000000E+01 0. -1.
         -5    1    3    3    0  502  0.32628900951E+02  0.73438889230E+01  0.23640192875E+02  0.41169272534E+02  0.41800000000E+01 0. -1.
        -11    1    1    2    0    0  0.16943308143E+02  0.22374262339E+02 -0.76567048329E+02  0.81548735096E+02  0.00000000000E+00 0.  1.
         11    1    1    2    0    0  0.19027681809E+02 -0.33550972818E+02  0.63209253802E+01  0.39085477479E+02  0.00000000000E+00 0. -1.
</event>
<event>
 7    1  0.2690635E-009  0.1040928E+03  0.7561462E-02  0.1271917E+00
         -2   -1    0    0    0  501 -0.00000000000E+00  0.00000000000E+00  0.61581178383E+02  0.61581178383E+02  0.00000000000E+00 0. -1.
          2   -1    0    0  501    0  0.00000000000E+00 -0.00000000000E+00 -0.49357680948E+03  0.49357680948E+03  0.00000000000E+00 0.  1.
         25    2    1    2    0    0  0.50683848128E+02  0.39881560583E+02 -0.41962151567E+03  0.44259444196E+03  0.12509289469E+03 0.  0.
          5    1    3    3  502    0  0.85858118959E+02  0.23159718955E+01 -0.21498702387E+03  0.23154669756E+03  0.41800000000E+01 0. -1.
         -5    1    3    3    0  502 -0.35174270831E+02  0.37565588688E+02 -0.20463449180E+03  0.21104774440E+03  0.41800000000E+01 0. -1.
        -11    1    1    2    0    0 -0.20612479498E+02  0.22322404209E-02 -0.47312111433E+02  0.51607268909E+02  0.00000000000E+00 0.  1.
         11    1    1    2    0    0 -0.30071368629E+02 -0.39883792824E+02  0.34937996002E+02  0.60956277001E+02  0.00000000000E+00 0. -1.
</event>
<event>
 7    1  0.2690635E-009  0.1352291E+03  0.7561462E-02  0.1219897E+00
          3   -1    0    0  501    0  0.00000000000E+00  0.00000000000E+00  0.84496431894E+02  0.84496431894E+02  0.00000000000E+00 0. -1.
         -3   -1    0    0    0  501 -0.00000000000E+00 -0.00000000000E+00 -0.36956908971E+03  0.36956908971E+03  0.00000000000E+00 0.  1.
         25    2    1    2    0    0 -0.64116655080E+02  0.95290790857E+02 -0.25245354809E+03  0.30425828563E+03  0.12509608367E+03 0.  0.
          5    1    3    3  502    0 -0.52912138498E+02  0.11518442310E+03 -0.25073276683E+03  0.28098316406E+03  0.41800000000E+01 0. -1.
         -5    1    3    3    0  502 -0.11204516582E+02 -0.19893632241E+02 -0.17207812575E+01  0.23275121562E+02  0.41800000000E+01 0. -1.
        -11    1    1    2    0    0  0.47792071571E+02 -0.38618281298E+02 -0.59012929641E+02  0.85193776887E+02  0.00000000000E+00 0.  1.
         11    1    1    2    0    0  0.16324583509E+02 -0.56672509559E+02  0.26393819911E+02  0.64613459093E+02  0.00000000000E+00 0. -1.
</event>
<event>
 7    1  0.2690635E-009  0.1884734E+03  0.7561462E-02  0.1159845E+00
          2   -1    0    0  501    0  0.00000000000E+00  0.00000000000E+00  0.91338000578E+03  0.91338000578E+03  0.00000000000E+00 0.  1.
         -2   -1    0    0    0  501 -0.00000000000E+00 -0.00000000000E+00 -0.73562221999E+02  0.73562221999E+02  0.00000000000E+00 0. -1.
         25    2    1    2    0    0  0.73978882273E+02 -0.13967698013E+03  0.76465587109E+03  0.79077723291E+03  0.12508995604E+03 0.  0.
          5    1    3    3  502    0  0.50902442319E+02 -0.16105849312E+03  0.66837613499E+03  0.68940193434E+03  0.41800000000E+01 0. -1.
         -5    1    3    3    0  502  0.23076439954E+02  0.21381512989E+02  0.96279736094E+02  0.10137529857E+03  0.41800000000E+01 0. -1.
        -11    1    1    2    0    0 -0.41666834175E+01 -0.10140754413E+02  0.18374783928E+02  0.21396935182E+02  0.00000000000E+00 0.  1.
         11    1    1    2    0    0 -0.69812198855E+02  0.14981773454E+03  0.56787128765E+02  0.17476805969E+03  0.00000000000E+00 0. -1.
</event>
<event>
 7    1  0.2690635E-009  0.1028109E+03  0.7561462E-02  0.1274494E+00
         -1   -1    0    0    0  501 -0.00000000000E+00  0.00000000000E+00  0.44579470059E+02  0.44579470059E+02  0.00000000000E+00 0.  1.
          1   -1    0    0  501    0  0.00000000000E+00 -0.00000000000E+00 -0.30498821567E+03  0.30498821567E+03  0.00000000000E+00 0. -1.
         25    2    1    2    0    0 -0.12891111137E+02 -0.39868805320E+02 -0.16767198804E+03  0.21334705304E+03  0.12508943634E+03 0.  0.
          5    1    3    3  502    0 -0.58832285053E+02 -0.17738004348E+02 -0.34298480699E+02  0.70496331402E+02  0.41800000000E+01 0. -1.
         -5    1    3    3    0  502  0.45941173917E+02 -0.22130800972E+02 -0.13337350734E+03  0.14285072164E+03  0.41800000000E+01 0. -1.
        -11    1    1    2    0    0  0.46617167155E+02  0.36040437429E+02 -0.33056754035E+02  0.67563469352E+02  0.00000000000E+00 0.  1.
         11    1    1    2    0    0 -0.33726056018E+02  0.38283678911E+01 -0.59680003533E+02  0.68657163333E+02  0.00000000000E+00 0. -1.
</event>
<event>
 7    1  0.2690635E-009  0.9041480E+02  0.7561462E-02  0.1301850E+00
         -2   -1    0    0    0  501 -0.00000000000E+00  0.00000000000E+00  0.29176987723E+03  0.29176987723E+03  0.00000000000E+00 0.  1.
          2   -1    0    0  501    0  0.00000000000E+00 -0.00000000000E+00 -0.74394013138E+02  0.74394013138E+02  0.00000000000E+00 0. -1.
         25    2    1    2    0    0 -0.16200858091E+02 -0.36147851794E+02  0.23108805002E+03  0.26574190568E+03  0.12509172068E+03 0.  0.
          5    1    3    3  502    0 -0.56795824233E+02 -0.59859389778E+02  0.12780807675E+03  0.15218833424E+03  0.41800000000E+01 0. -1.
         -5    1    3    3    0  502  0.40594966142E+02  0.23711537985E+02  0.10327997327E+03  0.11355357145E+03  0.41800000000E+01 0. -1.
        -11    1    1    2    0    0  0.10961295957E+01  0.35885822803E+02 -0.49746497133E+02  0.61349064829E+02  0.00000000000E+00 0. -1.
         11    1    1    2    0    0  0.15104728495E+02  0.26202899014E+00  0.36034311202E+02  0.39072919854E+02  0.00000000000E+00 0.  1.
</event>
<event>
 7    1  0.2690635E-009  0.2378925E+03  0.7561462E-02  0.1121205E+00
          2   -1    0    0  501    0  0.00000000000E+00  0.00000000000E+00  0.29018827725E+03  0.29018827725E+03  0.00000000000E+00 0.  1.
         -2   -1    0    0    0  501 -0.00000000000E+00 -0.00000000000E+00 -0.23139030879E+03  0.23139030879E+03  0.00000000000E+00 0. -1.
         25    2    1    2    0    0  0.21706045160E+03 -0.40142000616E+01  0.12098031432E+03  0.27823678749E+03  0.12509244585E+03 0.  0.
          5    1    3    3  502    0  0.40875155641E+01 -0.32037692289E+02  0.19661540200E+01  0.32626058180E+02  0.41800000000E+01 0.  1.
         -5    1    3    3    0  502  0.21297293604E+03  0.28023492228E+02  0.11901416030E+03  0.24561072931E+03  0.41800000000E+01 0.  1.
        -11    1    1    2    0    0 -0.10554517566E+03 -0.33465594472E+02 -0.59429022488E+02  0.12566438967E+03  0.00000000000E+00 0.  1.
         11    1    1    2    0    0 -0.11151527594E+03  0.37479794534E+02 -0.27533233723E+01  0.11767740886E+03  0.00000000000E+00 0. -1.
</event>
<event>
 7    1  0.3146761E-009  0.9116955E+02  0.7561462E-02  0.1300044E+00
          1   -1    0    0  501    0  0.00000000000E+00  0.00000000000E+00  0.11547307899E+03  0.11547307899E+03  0.00000000000E+00 0. -1.
         -1   -1    0    0    0  501 -0.00000000000E+00 -0.00000000000E+00 -0.14205523181E+03  0.14205523181E+03  0.00000000000E+00 0.  1.
         25    2    1    2    0    0 -0.66914985895E+02  0.40945541278E+01 -0.26969992755E+01  0.14194724052E+03  0.12508942631E+03 0.  0.
          5    1    3    3  502    0  0.18512917794E+02  0.22139942819E+01 -0.43241629601E+02  0.47275160777E+02  0.41800000000E+01 0. -1.
         -5    1    3    3    0  502 -0.85427903689E+02  0.18805598458E+01  0.40544630325E+02  0.94672079739E+02  0.41800000000E+01 0. -1.
        -11    1    1    2    0    0  0.20061130305E+02 -0.19876302504E+02  0.30849245677E+02  0.41823346460E+02  0.00000000000E+00 0. -1.
         11    1    1    2    0    0  0.46853855590E+02  0.15781748376E+02 -0.54734399226E+02  0.73757723827E+02  0.00000000000E+00 0.  1.
</event>
<event>
 7    1  0.2690635E-009  0.1121796E+03  0.7561462E-02  0.1256586E+00
         -2   -1    0    0    0  501 -0.00000000000E+00  0.00000000000E+00  0.47948558002E+02  0.47948558002E+02  0.00000000000E+00 0.  1.
          2   -1    0    0  501    0  0.00000000000E+00 -0.00000000000E+00 -0.35982373444E+03  0.35982373444E+03  0.00000000000E+00 0. -1.
         25    2    1    2    0    0 -0.66368173015E+02 -0.45024679443E+01 -0.22199372041E+03  0.26335254494E+03  0.12509334282E+03 0.  0.
          5    1    3    3  502    0 -0.98023633449E+02 -0.25864782565E+02 -0.17849206534E+03  0.20531563379E+03  0.41800000000E+01 0. -1.
         -5    1    3    3    0  502  0.31655460435E+02  0.21362314621E+02 -0.43501655077E+02  0.58036911149E+02  0.41800000000E+01 0. -1.
        -11    1    1    2    0    0  0.65155012278E+02 -0.13412501841E+02 -0.10269727048E+03  0.12235930776E+03  0.00000000000E+00 0. -1.
         11    1    1    2    0    0  0.12131607367E+01  0.17914969785E+02  0.12815814457E+02  0.22060439741E+02  0.00000000000E+00 0.  1.
</event>
<event>
 7    1  0.2690635E-009  0.1487549E+03  0.7561462E-02  0.1202011E+00
          1   -1    0    0  501    0  0.00000000000E+00  0.00000000000E+00  0.41050208164E+02  0.41050208164E+02  0.00000000000E+00 0. -1.
         -1   -1    0    0    0  501 -0.00000000000E+00 -0.00000000000E+00 -0.82025677267E+03  0.82025677267E+03  0.00000000000E+00 0.  1.
         25    2    1    2    0    0 -0.53737613550E+02 -0.13235472129E+03 -0.49495310237E+03  0.53012402467E+03  0.12508958637E+03 0.  0.
          5    1    3    3  502    0 -0.28540322875E+02 -0.44978153489E+02 -0.37879184859E+03  0.38254192094E+03  0.41800000000E+01 0. -1.
         -5    1    3    3    0  502 -0.25197290675E+02 -0.87376567804E+02 -0.11616125379E+03  0.14758210373E+03  0.41800000000E+01 0. -1.
        -11    1    1    2    0    0  0.37793764825E+02  0.26896751548E+02 -0.16405358114E+03  0.17048572195E+03  0.00000000000E+00 0.  1.
         11    1    1    2    0    0  0.15943848725E+02  0.10545796975E+03 -0.12019988099E+03  0.16069723421E+03  0.00000000000E+00 0. -1.
</event>
<event>
 7    1  0.2690635E-009  0.9356807E+02  0.7561462E-02  0.1294434E+00
          1   -1    0    0  501    0  0.00000000000E+00  0.00000000000E+00  0.14178482936E+03  0.14178482936E+03  0.00000000000E+00 0. -1.
         -1   -1    0    0    0  501 -0.00000000000E+00 -0.00000000000E+00 -0.14136163985E+03  0.14136163985E+03  0.00000000000E+00 0.  1.
         25    2    1    2    0    0 -0.83996743638E+02  0.14694615152E+02 -0.31901415926E+02  0.15471211176E+03  0.12508697986E+03 0.  0.
          5    1    3    3  502    0 -0.74616570952E+02  0.31811828422E+02  0.32352665754E+02  0.87428785131E+02  0.41800000000E+01 0.  1.
         -5    1    3    3    0  502 -0.93801726858E+01 -0.17117213269E+02 -0.64254081679E+02  0.67283326628E+02  0.41800000000E+01 0.  1.
        -11    1    1    2    0    0  0.20994704615E+02  0.10213813206E+01  0.55612241074E+02  0.59452015937E+02  0.00000000000E+00 0. -1.
         11    1    1    2    0    0  0.63002039022E+02 -0.15715996473E+02 -0.23287635640E+02  0.68982341507E+02  0.00000000000E+00 0.  1.
</event>
<event>
 7    1  0.2690635E-009  0.1216105E+03  0.7561462E-02  0.1240464E+00
         -2   -1    0    0    0  501 -0.00000000000E+00  0.00000000000E+00  0.50205480731E+02  0.50205480731E+02  0.00000000000E+00 0.  1.
          2   -1    0    0  501    0  0.00000000000E+00 -0.00000000000E+00 -0.40493576870E+03  0.40493576870E+03  0.00000000000E+00 0. -1.
         25    2    1    2    0    0 -0.63606431660E+02  0.83572124616E+01 -0.29744333749E+03  0.32899204934E+03  0.12509040075E+03 0.  0.
          5    1    3    3  502    0  0.27334481158E+02  0.27040388727E+02 -0.14832703672E+03  0.15328645962E+03  0.41800000000E+01 0.  1.
         -5    1    3    3    0  502 -0.90940912818E+02 -0.18683176266E+02 -0.14911630078E+03  0.17570558972E+03  0.41800000000E+01 0.  1.
        -11    1    1    2    0    0  0.10112889813E+02  0.38924460039E+02 -0.13623232095E+02  0.42461471741E+02  0.00000000000E+00 0.  1.
         11    1    1    2    0    0  0.53493541847E+02 -0.47281672501E+02 -0.43663718380E+02  0.83687728351E+02  0.00000000000E+00 0. -1.
</event>
<event>
 7    1  0.2690635E-009  0.1474147E+03  0.7561462E-02  0.1203686E+00
          2   -1    0    0  501    0  0.00000000000E+00  0.00000000000E+00  0.18250995120E+03  0.18250995120E+03  0.00000000000E+00 0. -1.
         -2   -1    0    0    0  501 -0.00000000000E+00 -0.00000000000E+00 -0.13910248883E+03  0.13910248883E+03  0.00000000000E+00 0.  1.
         25    2    1    2    0    0  0.11345777052E+03 -0.21297244335E+02  0.43482094881E+02  0.17568176756E+03  0.12508857889E+03 0.  0.
          5    1    3    3  502    0  0.47827953312E+01 -0.39941202100E+02  0.50993649132E+02  0.65084555835E+02  0.41800000000E+01 0. -1.
         -5    1    3    3    0  502  0.10867497519E+03  0.18643957765E+02 -0.75115542508E+01  0.11059721172E+03  0.41800000000E+01 0. -1.
        -11    1    1    2    0    0 -0.98677096885E+02 -0.19558935471E+02 -0.10811265333E+02  0.10117610817E+03  0.00000000000E+00 0. -1.
         11    1    1    2    0    0 -0.14780673634E+02  0.40856179806E+02  0.10736632824E+02  0.44754564302E+02  0.00000000000E+00 0.  1.
</event>
<event>
 7    1  0.2690635E-009  0.1014418E+03  0.7561462E-02  0.1277293E+00
          2   -1    0    0  501    0  0.00000000000E+00  0.00000000000E+00  0.60541735099E+03  0.60541735099E+03  0.00000000000E+00 0. -1.
         -2   -1    0    0    0  501 -0.00000000000E+00 -0.00000000000E+00 -0.26281918710E+02  0.26281918710E+02  0.00000000000E+00 0.  1.
         25    2    1    2    0    0  0.85860962275E+01  0.36191115094E+02  0.44692561365E+03  0.46559028641E+03  0.12509313651E+03 0.  0.
          5    1    3    3  502    0 -0.49370791314E+02 -0.11176125088E+02  0.12243982991E+03  0.13255702605E+03  0.41800000000E+01 0.  1.
         -5    1    3    3    0  502  0.57956887541E+02  0.47367240182E+02  0.32448578374E+03  0.33303326036E+03  0.41800000000E+01 0.  1.
        -11    1    1    2    0    0  0.21499475330E+02  0.86090894414E+01 -0.16203432712E+00  0.23159665706E+02  0.00000000000E+00 0.  1.
         11    1    1    2    0    0 -0.30085571558E+02 -0.44800204536E+02  0.13237185296E+03  0.14294931759E+03  0.00000000000E+00 0. -1.
</event>
<event>
 7    1  0.2690635E-009  0.1176655E+03  0.7561462E-02  0.1246999E+00
         -1   -1    0    0    0  501 -0.00000000000E+00  0.00000000000E+00  0.35036907070E+02  0.35036907070E+02  0.00000000000E+00 0.  1.
          1   -1    0    0  501    0  0.00000000000E+00 -0.00000000000E+00 -0.51602546194E+03  0.51602546194E+03  0.00000000000E+00 0. -1.
         25    2    1    2    0    0 -0.10518176277E+02 -0.32687517949E+02 -0.13687314439E+03  0.18857535221E+03  0.12508916797E+03 0.  0.
          5    1    3    3  502    0  0.89566269687E+01  0.42549640814E+02 -0.83398310134E+02  0.94145863601E+02  0.41800000000E+01 0.  1.
         -5    1    3    3    0  502 -0.19474803245E+02 -0.75237158763E+02 -0.53474834252E+02  0.94429488606E+02  0.41800000000E+01 0.  1.
        -11    1    1    2    0    0  0.56817803939E+02  0.36227358120E+02 -0.21172317624E+03  0.22218773071E+03  0.00000000000E+00 0.  1.
         11    1    1    2    0    0 -0.46299627663E+02 -0.35398401711E+01 -0.13239223424E+03  0.14029928609E+03  0.00000000000E+00 0. -1.
</event>
<event>
 7    1  0.2690635E-009  0.1099142E+03  0.7561462E-02  0.1260729E+00
         -1   -1    0    0    0  501 -0.00000000000E+00  0.00000000000E+00  0.38669478644E+02  0.38669478644E+02  0.00000000000E+00 0.  1.
          1   -1    0    0  501    0  0.00000000000E+00 -0.00000000000E+00 -0.59791740441E+03  0.59791740441E+03  0.00000000000E+00 0. -1.
         25    2    1    2    0    0 -0.23809013079E+02 -0.81486804954E+02 -0.16786654154E+03  0.22590822713E+03  0.12509349637E+03 0.  0.
          5    1    3    3  502    0  0.23378914420E+02 -0.59284372421E+02 -0.16797746190E+02  0.66036710471E+02  0.41800000000E+01 0.  1.
         -5    1    3    3    0  502 -0.47187927499E+02 -0.22202432533E+02 -0.15106879535E+03  0.15987151666E+03  0.41800000000E+01 0.  1.
        -11    1    1    2    0    0 -0.19663749108E+02  0.33912009552E+02 -0.51396404835E+02  0.64639599711E+02  0.00000000000E+00 0.  1.
         11    1    1    2    0    0  0.43472762187E+02  0.47574795402E+02 -0.33998497940E+03  0.34603905622E+03  0.00000000000E+00 0. -1.
</event>
<event>
 7    1  0.2690635E-009  0.1098491E+03  0.7561462E-02  0.1260849E+00
          4   -1    0    0  501    0  0.00000000000E+00  0.00000000000E+00  0.53834013814E+02  0.53834013814E+02  0.00000000000E+00 0. -1.
         -4   -1    0    0    0  501 -0.00000000000E+00 -0.00000000000E+00 -0.26114643715E+03  0.26114643715E+03  0.00000000000E+00 0.  1.
         25    2    1    2    0    0  0.10930260267E+02  0.41132164185E+02 -0.85919707011E+02  0.15761328526E+03  0.12509366938E+03 0.  0.
          5    1    3    3  502    0  0.22861334741E+02  0.79785577950E+02 -0.82015803735E+02  0.11675805556E+03  0.41800000000E+01 0. -1.
         -5    1    3    3    0  502 -0.11931074474E+02 -0.38653413765E+02 -0.39039032764E+01  0.40855229709E+02  0.41800000000E+01 0. -1.
        -11    1    1    2    0    0 -0.37460466403E+02 -0.54569071951E+02 -0.10289229351E+03  0.12234334563E+03  0.00000000000E+00 0.  1.
         11    1    1    2    0    0  0.26530206136E+02  0.13436907765E+02 -0.18500422821E+02  0.35023820072E+02  0.00000000000E+00 0. -1.
</event>
<event>
 7    1  0.2690635E-009  0.1033430E+03  0.7561462E-02  0.1273419E+00
         -1   -1    0    0    0  501 -0.00000000000E+00  0.00000000000E+00  0.38051975373E+02  0.38051975373E+02  0.00000000000E+00 0.  1.
          1   -1    0    0  501    0  0.00000000000E+00 -0.00000000000E+00 -0.41492037383E+03  0.41492037383E+03  0.00000000000E+00 0. -1.
         25    2    1    2    0    0 -0.41457994573E+01  0.73811303690E+01 -0.96589356814E+02  0.15826524099E+03  0.12508682552E+03 0.  0.
          5    1    3    3  502    0  0.20425713416E+02 -0.49990216993E+02 -0.74118085200E+02  0.91799752273E+02  0.41800000000E+01 0. -1.
         -5    1    3    3    0  502 -0.24571512874E+02  0.57371347362E+02 -0.22471271613E+02  0.66465488721E+02  0.41800000000E+01 0. -1.
        -11    1    1    2    0    0 -0.29734852570E+02  0.28099829507E+02 -0.15061264913E+03  0.15607027889E+03  0.00000000000E+00 0.  1.
         11    1    1    2    0    0  0.33880652028E+02 -0.35480959876E+02 -0.12966639251E+03  0.13863682931E+03  0.00000000000E+00 0. -1.
</event>
<event>
 7    1  0.3913402E-009  0.2223072E+03  0.7561462E-02  0.1132175E+00
          1   -1    0    0  501    0  0.00000000000E+00  0.00000000000E+00  0.13593448511E+04  0.13593448511E+04  0.00000000000E+00 0. -1.
         -1   -1    0    0    0  501 -0.00000000000E+00 -0.00000000000E+00 -0.45287055874E+02  0.45287055874E+02  0.00000000000E+00 0.  1.
         25    2    1    2    0    0  0.76528777569E+02  0.20719284111E+03  0.59492869866E+03  0.64681798286E+03  0.12509124375E+03 0.  0.
          5    1    3    3  502    0  0.48699675749E+02  0.11098520050E+03  0.47636647214E+03  0.49156063850E+03  0.41800000000E+01 0.  1.
         -5    1    3    3    0  502  0.27829101821E+02  0.96207640613E+02  0.11856222652E+03  0.15525734436E+03  0.41800000000E+01 0.  1.
        -11    1    1    2    0    0 -0.87474685486E+01 -0.64954505616E+02  0.35587429177E+03  0.36185925102E+03  0.00000000000E+00 0. -1.
         11    1    1    2    0    0 -0.67781309021E+02 -0.14223833549E+03  0.36325480483E+03  0.39595467313E+03  0.00000000000E+00 0.  1.
</event>
<event>
 7    1  0.4163178E-009  0.1280025E+03  0.7561462E-02  0.1230450E+00
          2   -1    0    0  501    0  0.00000000000E+00  0.00000000000E+00  0.93848778861E+03  0.93848778861E+03  0.00000000000E+00 0. -1.
         -2   -1    0    0    0  501 -0.00000000000E+00 -0.00000000000E+00 -0.20125701078E+02  0.20125701078E+02  0.00000000000E+00 0.  1.
         25    2    1    2    0    0 -0.73033076681E+02  0.41670308210E+02  0.51024347814E+03  0.53203938039E+03  0.12508897008E+03 0.  0.
          5    1    3    3  502    0  0.68499083390E+00  0.69260171463E+02  0.28768051606E+03  0.29593072210E+03  0.41800000000E+01 0. -1.
         -5    1    3    3    0  502 -0.73718067515E+02 -0.27589863253E+02  0.22256296208E+03  0.23610865830E+03  0.41800000000E+01 0. -1.
        -11    1    1    2    0    0 -0.73848910749E+01 -0.24464353691E+02  0.29063095923E+02  0.38700190727E+02  0.00000000000E+00 0.  1.
         11    1    1    2    0    0  0.80417967756E+02 -0.17205954519E+02  0.37905551347E+03  0.38787391856E+03  0.00000000000E+00 0. -1.
</event>
<event>
 7    1  0.2690635E-009  0.2726668E+03  0.7561462E-02  0.1099763E+00
          2   -1    0    0  501    0  0.00000000000E+00  0.00000000000E+00  0.14119468080E+04  0.14119468080E+04  0.00000000000E+00 0. -1.
         -2   -1    0    0    0  501 -0.00000000000E+00 -0.00000000000E+00 -0.63626689044E+02  0.63626689044E+02  0.00000000000E+00 0.  1.
         25    2    1    2    0    0  0.16671909604E+03  0.19976134285E+03  0.93859497211E+03  0.98199173257E+03  0.12508952825E+03 0.  0.
          5    1    3    3  502    0  0.63791046041E+02  0.15526015816E+03  0.67371168467E+03  0.69431975396E+03  0.41800000000E+01 0.  1.
         -5    1    3    3    0  502  0.10292805000E+03  0.44501184690E+02  0.26488328744E+03  0.28767197861E+03  0.41800000000E+01 0.  1.
        -11    1    1    2    0    0 -0.29842621625E+02 -0.72147113791E+02  0.18719053665E+03  0.20282032715E+03  0.00000000000E+00 0. -1.
         11    1    1    2    0    0 -0.13687647441E+03 -0.12761422906E+03  0.22253461021E+03  0.29076143735E+03  0.00000000000E+00 0.  1.
</event>
<event>
 7    1  0.2690635E-009  0.9744170E+02  0.7561462E-02  0.1285770E+00
         -2   -1    0    0    0  501 -0.00000000000E+00  0.00000000000E+00  0.12118096503E+03  0.12118096503E+03  0.00000000000E+00 0.  1.
          2   -1    0    0  501    0  0.00000000000E+00 -0.00000000000E+00 -0.12409487086E+03  0.12409487086E+03  0.00000000000E+00 0. -1.
         25    2    1    2    0    0 -0.19486875122E+02 -0.51398455130E+02 -0.48536949321E+01  0.13672008458E+03  0.12508910297E+03 0.  0.
          5    1    3    3  502    0 -0.66756419047E+02 -0.16004751049E+02  0.21303490671E+02  0.71999185099E+02  0.41800000000E+01 0.  1.
         -5    1    3    3    0  502  0.47269543925E+02 -0.35393704081E+02 -0.26157185603E+02  0.64720899485E+02  0.41800000000E+01 0.  1.
        -11    1    1    2    0    0  0.30813775723E+02  0.31853538596E+02 -0.40783332753E+02  0.60228041026E+02  0.00000000000E+00 0. -1.
         11    1    1    2    0    0 -0.11326900601E+02  0.19544916534E+02  0.42723121853E+02  0.48327710275E+02  0.00000000000E+00 0.  1.
</event>
<event>
 7    1  0.2690635E-009  0.1327573E+03  0.7561462E-02  0.1223421E+00
          2   -1    0    0  501    0  0.00000000000E+00  0.00000000000E+00  0.29188692138E+03  0.29188692138E+03  0.00000000000E+00 0. -1.
         -2   -1    0    0    0  501 -0.00000000000E+00 -0.00000000000E+00 -0.80725829191E+02  0.80725829191E+02  0.00000000000E+00 0.  1.
         25    2    1    2    0    0 -0.22054993399E+01  0.10776447390E+03  0.12301251107E+03  0.20590759341E+03  0.12509121905E+03 0.  0.
          5    1    3    3  502    0  0.28864790116E+02  0.71486212569E+02  0.36708032511E+01  0.77294255235E+02  0.41800000000E+01 0. -1.
         -5    1    3    3    0  502 -0.31070289456E+02  0.36278261327E+02  0.11934170782E+03  0.12861333818E+03  0.41800000000E+01 0. -1.
        -11    1    1    2    0    0 -0.35611416098E+02 -0.12295763132E+02  0.33337284067E+02  0.50306393793E+02  0.00000000000E+00 0. -1.
         11    1    1    2    0    0  0.37816915438E+02 -0.95468710763E+02  0.54811297048E+02  0.11639876336E+03  0.00000000000E+00 0.  1.
</event>
<event>
 7    1  0.2690635E-009  0.1489239E+03  0.7561462E-02  0.1201802E+00
          1   -1    0    0  501    0  0.00000000000E+00  0.00000000000E+00  0.67827018694E+02  0.67827018694E+02  0.00000000000E+00 0. -1.
         -1   -1    0    0    0  501 -0.00000000000E+00 -0.00000000000E+00 -0.42251042383E+03  0.42251042383E+03  0.00000000000E+00 0.  1.
         25    2    1    2    0    0  0.12010394874E+02 -0.12972993688E+03 -0.18598206591E+03  0.25925011044E+03  0.12508870779E+03 0.  0.
          5    1    3    3  502    0 -0.19980797285E+02  0.43408740183E+01  0.70441822584E+01  0.22026537429E+02  0.41800000000E+01 0. -1.
         -5    1    3    3    0  502  0.31991192160E+02 -0.13407081090E+03 -0.19302624817E+03  0.23722357302E+03  0.41800000000E+01 0. -1.
        -11    1    1    2    0    0  0.18994151402E+02  0.44417525533E+02 -0.11653455367E+02  0.49694037710E+02  0.00000000000E+00 0. -1.
         11    1    1    2    0    0 -0.31004546276E+02  0.85312411346E+02 -0.15704788386E+03  0.18139329437E+03  0.00000000000E+00 0.  1.
</event>
<event>
 7    1  0.2690635E-009  0.1072656E+03  0.7561462E-02  0.1265719E+00
          3   -1    0    0  501    0  0.00000000000E+00  0.00000000000E+00  0.38220576173E+03  0.38220576173E+03  0.00000000000E+00 0. -1.
         -3   -1    0    0    0  501 -0.00000000000E+00 -0.00000000000E+00 -0.44360672055E+02  0.44360672055E+02  0.00000000000E+00 0.  1.
         25    2    1    2    0    0  0.58541493203E+02  0.35273943845E+02  0.15754807183E+03  0.21245319481E+03  0.12507440788E+03 0.  0.
          5    1    3    3  502    0  0.22068369232E+02  0.77043657779E+02  0.12338660105E+03  0.14718853163E+03  0.41800000000E+01 0.  1.
         -5    1    3    3    0  502  0.36473123971E+02 -0.41769713935E+02  0.34161470784E+02  0.65264663184E+02  0.41800000000E+01 0.  1.
        -11    1    1    2    0    0 -0.23895090072E+02  0.61435755789E+01 -0.12521031560E+01  0.24703979694E+02  0.00000000000E+00 0.  1.
         11    1    1    2    0    0 -0.34646403131E+02 -0.41417519424E+02  0.18154912100E+03  0.18940925928E+03  0.00000000000E+00 0. -1.
</event>
<event>
 7    1  0.2690635E-009  0.1584380E+03  0.7561462E-02  0.1190472E+00
         -2   -1    0    0    0  501 -0.00000000000E+00  0.00000000000E+00  0.23862132253E+03  0.23862132253E+03  0.00000000000E+00 0.  1.
          2   -1    0    0  501    0  0.00000000000E+00 -0.00000000000E+00 -0.13005542598E+03  0.13005542598E+03  0.00000000000E+00 0. -1.
         25    2    1    2    0    0 -0.10927283116E+03 -0.84615991813E+02  0.64734055310E+02  0.19732813401E+03  0.12508987511E+03 0.  0.
          5    1    3    3  502    0 -0.36258097637E+02  0.25247687674E+02  0.46184258739E+02  0.64051179008E+02  0.41800000000E+01 0. -1.
         -5    1    3    3    0  502 -0.73014733524E+02 -0.10986367949E+03  0.18549796571E+02  0.13327695500E+03  0.41800000000E+01 0. -1.
        -11    1    1    2    0    0  0.14336838551E+02  0.16411671788E+01  0.42897059135E+02  0.45259209580E+02  0.00000000000E+00 0.  1.
         11    1    1    2    0    0  0.94935992610E+02  0.82974824634E+02  0.93478210551E+00  0.12608940492E+03  0.00000000000E+00 0. -1.
</event>
<event>
 7    1  0.2690635E-009  0.1657238E+03  0.7561462E-02  0.1182382E+00
         -4   -1    0    0    0  501 -0.00000000000E+00  0.00000000000E+00  0.79662115288E+02  0.79662115288E+02  0.00000000000E+00 0.  1.
          4   -1    0    0  501    0  0.00000000000E+00 -0.00000000000E+00 -0.45633068943E+03  0.45633068943E+03  0.00000000000E+00 0. -1.
         25    2    1    2    0    0  0.12859544609E+03 -0.54581788130E+02 -0.29749426028E+03  0.35166282224E+03  0.12509174750E+03 0.  0.
          5    1    3    3  502    0  0.13070672995E+03 -0.22587289925E+02 -0.28932809964E+03  0.31831219984E+03  0.41800000000E+01 0.  1.
         -5    1    3    3    0  502 -0.21112838613E+01 -0.31994498205E+02 -0.81661606384E+01  0.33350622401E+02  0.41800000000E+01 0.  1.
        -11    1    1    2    0    0 -0.10296402238E+03  0.79934904472E+02 -0.64007302325E+02  0.14521747005E+03  0.00000000000E+00 0. -1.
         11    1    1    2    0    0 -0.25631423711E+02 -0.25353116342E+02 -0.15167011537E+02  0.39112512431E+02  0.00000000000E+00 0.  1.
</event>
<event>
 7    1  0.2690635E-009  0.1421434E+03  0.7561462E-02  0.1210474E+00
         -1   -1    0    0    0  501 -0.00000000000E+00  0.00000000000E+00  0.46796620845E+02  0.46796620845E+02  0.00000000000E+00 0.  1.
          1   -1    0    0  501    0  0.00000000000E+00 -0.00000000000E+00 -0.67184372179E+03  0.67184372179E+03  0.00000000000E+00 0. -1.
         25    2    1    2    0    0  0.84774262024E+02  0.99192755936E+02 -0.42984363076E+03  0.46630244552E+03  0.12508615213E+03 0.  0.
          5    1    3    3  502    0  0.90519287719E+02  0.94146492596E+02 -0.43630598260E+03  0.45545327572E+03  0.41800000000E+01 0.  1.
         -5    1    3    3    0  502 -0.57450256949E+01  0.50462633397E+01  0.64623518356E+01  0.10849169792E+02  0.41800000000E+01 0.  1.
        -11    1    1    2    0    0 -0.89693323748E+01  0.90584973403E+01  0.39322842091E+01  0.13340470622E+02  0.00000000000E+00 0.  1.
         11    1    1    2    0    0 -0.75804929650E+02 -0.10825125328E+03 -0.19913575439E+03  0.23899742650E+03  0.00000000000E+00 0. -1.
</event>
<event>
 7    1  0.2690635E-009  0.8542934E+02  0.7561462E-02  0.1314314E+00
         -2   -1    0    0    0  501 -0.00000000000E+00  0.00000000000E+00  0.19634995651E+02  0.19634995651E+02  0.00000000000E+00 0.  1.
          2   -1    0    0  501    0  0.00000000000E+00 -0.00000000000E+00 -0.61989226595E+03  0.61989226595E+03  0.00000000000E+00 0. -1.
         25    2    1    2    0    0 -0.72467788028E+01  0.19127903945E+02 -0.32364745082E+03  0.34758033011E+03  0.12508405552E+03 0.  0.
          5    1    3    3  502    0 -0.20277104420E+02  0.45398187710E+02 -0.31165507076E+03  0.31562400406E+03  0.41800000000E+01 0.  1.
         -5    1    3    3    0  502  0.13030325618E+02 -0.26270283766E+02 -0.11992380059E+02  0.31956326045E+02  0.41800000000E+01 0.  1.
        -11    1    1    2    0    0  0.29795178044E+02  0.26865368856E+02 -0.92092541594E+02  0.10045166447E+03  0.00000000000E+00 0. -1.
         11    1    1    2    0    0 -0.22548399242E+02 -0.45993272801E+02 -0.18451727788E+03  0.19149526701E+03  0.00000000000E+00 0.  1.
</event>
<event>
 7    1  0.2690635E-009  0.1134164E+03  0.7561462E-02  0.1254371E+00
          1   -1    0    0  501    0  0.00000000000E+00  0.00000000000E+00  0.68686320138E+03  0.68686320138E+03  0.00000000000E+00 0. -1.
         -1   -1    0    0    0  501 -0.00000000000E+00 -0.00000000000E+00 -0.23740058860E+02  0.23740058860E+02  0.00000000000E+00 0.  1.
         25    2    1    2    0    0  0.42465543809E+02 -0.19316770947E+02  0.51290466165E+03  0.52999313228E+03  0.12508024733E+03 0.  0.
          5    1    3    3  502    0  0.73660119153E+01 -0.70589999898E+02  0.28478623741E+03  0.29352662509E+03  0.41800000000E+01 0. -1.
         -5    1    3    3    0  502  0.35099531893E+02  0.51273228951E+02  0.22811842424E+03  0.23646650719E+03  0.41800000000E+01 0. -1.
        -11    1    1    2    0    0 -0.60310750851E+02 -0.79913973466E+01  0.12620354189E+03  0.14010204526E+03  0.00000000000E+00 0. -1.
         11    1    1    2    0    0  0.17845207042E+02  0.27308168293E+02  0.24014938975E+02  0.40508082699E+02  0.00000000000E+00 0.  1.
</event>
<event>
 7    1  0.2690635E-009  0.9953702E+02  0.7561462E-02  0.1281273E+00
         -1   -1    0    0    0  501 -0.00000000000E+00  0.00000000000E+00  0.27604975138E+03  0.27604975138E+03  0.00000000000E+00 0.  1.
          1   -1    0    0  501    0  0.00000000000E+00 -0.00000000000E+00 -0.14646308702E+03  0.14646308702E+03  0.00000000000E+00 0. -1.
         25    2    1    2    0    0  0.66507378309E+02  0.16186046506E+02  0.23063967630E+03  0.27115766662E+03  0.12508637180E+03 0.  0.
          5    1    3    3  502    0  0.40034361005E+02  0.36173391338E+02  0.19710867428E+02  0.57595616125E+02  0.41800000000E+01 0. -1.
         -5    1    3    3    0  502  0.26473017304E+02 -0.19987344832E+02  0.21092880888E+03  0.21356205050E+03  0.41800000000E+01 0. -1.
        -11    1    1    2    0    0 -0.62349086063E+02  0.27138468649E+02 -0.50831935283E+02  0.84898708224E+02  0.00000000000E+00 0.  1.
         11    1    1    2    0    0 -0.41582922460E+01 -0.43324515155E+02 -0.50221076659E+02  0.66456463557E+02  0.00000000000E+00 0. -1.
</event>
<event>
 7    1  0.2690635E-009  0.1134515E+03  0.7561462E-02  0.1254308E+00
          1   -1    0    0  501    0  0.00000000000E+00  0.00000000000E+00  0.14305446284E+03  0.14305446284E+03  0.00000000000E+00 0. -1.
         -1   -1    0    0    0  501 -0.00000000000E+00 -0.00000000000E+00 -0.14281280973E+03  0.14281280973E+03  0.00000000000E+00 0.  1.
         25    2    1    2    0    0  0.34895247110E+02  0.37096330661E+02 -0.78178750951E+02  0.15605497912E+03  0.12508966140E+03 0.  0.
          5    1    3    3  502    0 -0.34031073695E+02 -0.21044596488E+02 -0.43769021338E+02  0.59449042441E+02  0.41800000000E+01 0. -1.
         -5    1    3    3    0  502  0.68926320805E+02  0.58140927150E+02 -0.34409729613E+02  0.96605936679E+02  0.41800000000E+01 0. -1.
        -11    1    1    2    0    0  0.83585688965E+01 -0.50447603665E+02  0.64787736666E+02  0.82536520473E+02  0.00000000000E+00 0. -1.
         11    1    1    2    0    0 -0.43253816006E+02  0.13351273003E+02  0.13632667398E+02  0.47275772974E+02  0.00000000000E+00 0.  1.
</event>
<event>
 7    1  0.2690635E-009  0.9514156E+02  0.7561462E-02  0.1290858E+00
          2   -1    0    0  501    0  0.00000000000E+00  0.00000000000E+00  0.47632149482E+03  0.47632149482E+03  0.00000000000E+00 0. -1.
         -2   -1    0    0    0  501 -0.00000000000E+00 -0.00000000000E+00 -0.89433012772E+02  0.89433012772E+02  0.00000000000E+00 0.  1.
         25    2    1    2    0    0 -0.46371043140E+02  0.11232119275E+02  0.43212496603E+03  0.45238902112E+03  0.12508959196E+03 0.  0.
          5    1    3    3  502    0 -0.64880137654E+02  0.14589198052E+01  0.98187911470E+02  0.11777053565E+03  0.41800000000E+01 0. -1.
         -5    1    3    3    0  502  0.18509094514E+02  0.97731994697E+01  0.33393705456E+03  0.33461848546E+03  0.41800000000E+01 0. -1.
        -11    1    1    2    0    0 -0.86922395494E+01 -0.40587864801E+02 -0.19635326613E+02  0.45918142914E+02  0.00000000000E+00 0.  1.
         11    1    1    2    0    0  0.55063282690E+02  0.29355745526E+02 -0.25601157361E+02  0.67447343566E+02  0.00000000000E+00 0. -1.
</event>
<event>
 7    1  0.2690635E-009  0.2931196E+03  0.7561462E-02  0.1088732E+00
          1   -1    0    0  501    0  0.00000000000E+00  0.00000000000E+00  0.48502779250E+03  0.48502779250E+03  0.00000000000E+00 0. -1.
         -1   -1    0    0    0  501 -0.00000000000E+00 -0.00000000000E+00 -0.18609286553E+03  0.18609286553E+03  0.00000000000E+00 0.  1.
         25    2    1    2    0    0 -0.11927920952E+03 -0.25282471014E+03  0.13866352343E+03  0.33618840136E+03  0.12508878687E+03 0.  0.
          5    1    3    3  502    0 -0.10765631697E+03 -0.10001160570E+03  0.10088654653E+03  0.17829125477E+03  0.41800000000E+01 0. -1.
         -5    1    3    3    0  502 -0.11622892557E+02 -0.15281310443E+03  0.37776976902E+02  0.15789714659E+03  0.41800000000E+01 0. -1.
        -11    1    1    2    0    0  0.22074935048E+02  0.97439519499E+01 -0.59144840637E+01  0.24844083374E+02  0.00000000000E+00 0.  1.
         11    1    1    2    0    0  0.97204274474E+02  0.24308075819E+03  0.16618588760E+03  0.31008817329E+03  0.00000000000E+00 0. -1.
</event>
<event>
 7    1  0.2690635E-009  0.1005662E+03  0.7561462E-02  0.1279110E+00
          1   -1    0    0  501    0  0.00000000000E+00  0.00000000000E+00  0.80276488196E+02  0.80276488196E+02  0.00000000000E+00 0. -1.
         -1   -1    0    0    0  501 -0.00000000000E+00 -0.00000000000E+00 -0.17376325316E+03  0.17376325316E+03  0.00000000000E+00 0.  1.
         25    2    1    2    0    0 -0.33535718435E+02  0.19070143911E+02 -0.28419292758E+02  0.13395595215E+03  0.12509286996E+03 0.  0.
          5    1    3    3  502    0 -0.58341668853E+02  0.39839859494E+02  0.21817201697E+02  0.74056920129E+02  0.41800000000E+01 0.  1.
         -5    1    3    3    0  502  0.24805950418E+02 -0.20769715583E+02 -0.50236494456E+02  0.59899032019E+02  0.41800000000E+01 0.  1.
        -11    1    1    2    0    0  0.64698322397E+02 -0.12683314824E+02 -0.57273174981E+02  0.87332445106E+02  0.00000000000E+00 0.  1.
         11    1    1    2    0    0 -0.31162603962E+02 -0.63868290866E+01 -0.77942972275E+01  0.32751344106E+02  0.00000000000E+00 0. -1.
</event>
<event>
 7    1  0.2690635E-009  0.1075208E+03  0.7561462E-02  0.1265231E+00
         -3   -1    0    0    0  501 -0.00000000000E+00  0.00000000000E+00  0.80657295381E+02  0.80657295381E+02  0.00000000000E+00 0.  1.
          3   -1    0    0  501    0  0.00000000000E+00 -0.00000000000E+00 -0.23246994011E+03  0.23246994011E+03  0.00000000000E+00 0. -1.
         25    2    1    2    0    0 -0.18133887667E+02  0.28325741962E+02  0.45017226112E+01  0.12961075922E+03  0.12508995906E+03 0.  0.
          5    1    3    3  502    0 -0.57116661491E+02  0.53909383013E+02  0.18402754276E+02  0.80775419291E+02  0.41800000000E+01 0.  1.
         -5    1    3    3    0  502  0.38982773824E+02 -0.25583641050E+02 -0.13901031664E+02  0.48835339926E+02  0.41800000000E+01 0.  1.
        -11    1    1    2    0    0  0.22094712791E+02  0.26558937670E+02 -0.95221746034E+02  0.10129528331E+03  0.00000000000E+00 0. -1.
         11    1    1    2    0    0 -0.39608251235E+01 -0.54884679632E+02 -0.61092621306E+02  0.82221192962E+02  0.00000000000E+00 0.  1.
</event>
<event>
 7    1  0.3742392E-009  0.1026140E+03  0.7561462E-02  0.1274893E+00
          1   -1    0    0  501    0  0.00000000000E+00  0.00000000000E+00  0.45047468877E+03  0.45047468877E+03  0.00000000000E+00 0. -1.
         -1   -1    0    0    0  501 -0.00000000000E+00 -0.00000000000E+00 -0.38161308588E+02  0.38161308588E+02  0.00000000000E+00 0.  1.
         25    2    1    2    0    0  0.23186315679E+02  0.48960723847E+02  0.32060450350E+03  0.34838075405E+03  0.12508854629E+03 0.  0.
          5    1    3    3  502    0 -0.40060726354E+02  0.50395407078E+02  0.10132865759E+03  0.12012297074E+03  0.41800000000E+01 0.  1.
         -5    1    3    3    0  502  0.63247042033E+02 -0.14346832311E+01  0.21927584591E+03  0.22825778331E+03  0.41800000000E+01 0.  1.
        -11    1    1    2    0    0 -0.39773328463E+02 -0.21449996291E+02  0.22963937405E+01  0.45247026666E+02  0.00000000000E+00 0.  1.
         11    1    1    2    0    0  0.16587012785E+02 -0.27510727556E+02  0.89412482942E+02  0.95008216642E+02  0.00000000000E+00 0. -1.
</event>
<event>
 7    1  0.2690635E-009  0.1119103E+03  0.7561462E-02  0.1257073E+00
         -2   -1    0    0    0  501 -0.00000000000E+00  0.00000000000E+00  0.61714308815E+02  0.61714308815E+02  0.00000000000E+00 0.  1.
          2   -1    0    0  501    0  0.00000000000E+00 -0.00000000000E+00 -0.30208250003E+03  0.30208250003E+03  0.00000000000E+00 0. -1.
         25    2    1    2    0    0  0.18608739773E+02  0.74584866430E+02 -0.96445452445E+02  0.17566499647E+03  0.12508908103E+03 0.  0.
          5    1    3    3  502    0  0.27024420507E+01 -0.35255868836E+02 -0.26874789436E+02  0.44609485400E+02  0.41800000000E+01 0. -1.
         -5    1    3    3    0  502  0.15906297723E+02  0.10984073527E+03 -0.69570663009E+02  0.13105551107E+03  0.41800000000E+01 0. -1.
        -11    1    1    2    0    0 -0.57199115220E+01 -0.12575798844E+02  0.12962716989E+02  0.18944659831E+02  0.00000000000E+00 0.  1.
         11    1    1    2    0    0 -0.12888828251E+02 -0.62009067587E+02 -0.15688545576E+03  0.16918715254E+03  0.00000000000E+00 0. -1.
</event>
<event>
 7    1  0.3206391E-009  0.9079132E+02  0.7561462E-02  0.1300947E+00
          3   -1    0    0  501    0  0.00000000000E+00  0.00000000000E+00  0.13971175941E+04  0.13971175941E+04  0.00000000000E+00 0. -1.
         -3   -1    0    0    0  501 -0.00000000000E+00 -0.00000000000E+00 -0.18642744549E+02  0.18642744549E+02  0.00000000000E+00 0.  1.
         25    2    1    2    0    0 -0.33331727467E+02  0.27650671907E+02  0.12237168400E+04  0.12308557630E+04  0.12508973229E+03 0.  0.
          5    1    3    3  502    0 -0.68489559116E+02  0.50292864329E+02  0.64027553799E+03  0.64590280140E+03  0.41800000000E+01 0.  1.
         -5    1    3    3    0  502  0.35157831649E+02 -0.22642192423E+02  0.58344130203E+03  0.58495296163E+03  0.41800000000E+01 0.  1.
        -11    1    1    2    0    0  0.18651083339E+02  0.44577586849E+01 -0.61737010299E+01  0.20145696975E+02  0.00000000000E+00 0.  1.
         11    1    1    2    0    0  0.14680644128E+02 -0.32108430592E+02  0.16093171052E+03  0.16475887860E+03  0.00000000000E+00 0. -1.
</event>
<event>
 7    1  0.2690635E-009  0.1166254E+03  0.7561462E-02  0.1248770E+00
         -1   -1    0    0    0  501 -0.00000000000E+00  0.00000000000E+00  0.32338417667E+03  0.32338417667E+03  0.00000000000E+00 0.  1.
          1   -1    0    0  501    0  0.00000000000E+00 -0.00000000000E+00 -0.81457840182E+02  0.81457840182E+02  0.00000000000E+00 0. -1.
         25    2    1    2    0    0 -0.13112936673E+02 -0.69929460305E+02  0.24919510918E+03  0.28776256751E+03  0.12508802619E+03 0.  0.
          5    1    3    3  502    0  0.63459354128E+01  0.21587881302E+02  0.14846835910E+03  0.15022194770E+03  0.41800000000E+01 0. -1.
         -5    1    3    3    0  502 -0.19458872086E+02 -0.91517341607E+02  0.10072675008E+03  0.13754061981E+03  0.41800000000E+01 0. -1.
        -11    1    1    2    0    0 -0.25605006718E+02  0.73493679640E+02 -0.75986492941E+01  0.78196398812E+02  0.00000000000E+00 0.  1.
         11    1    1    2    0    0  0.38717943391E+02 -0.35642193353E+01  0.32987660344E+00  0.38883050530E+02  0.00000000000E+00 0. -1.
</event>
<event>
 7    1  0.3198190E-009  0.2531485E+03  0.7561462E-02  0.1111331E+00
          2   -1    0    0  501    0  0.00000000000E+00  0.00000000000E+00  0.13282628092E+04  0.13282628092E+04  0.00000000000E+00 0. -1.
         -2   -1    0    0    0  501 -0.00000000000E+00 -0.00000000000E+00 -0.52064551368E+02  0.52064551368E+02  0.00000000000E+00 0.  1.
         25    2    1    2    0    0  0.22714458585E+03 -0.74925998134E+02  0.65551464649E+03  0.70891141441E+03  0.12508946255E+03 0.  0.
          5    1    3    3  502    0  0.51601650690E+02 -0.55661602989E+02  0.32908854555E+03  0.33775388616E+03  0.41800000000E+01 0. -1.
         -5    1    3    3    0  502  0.17554293516E+03 -0.19264395145E+02  0.32642610094E+03  0.37115752825E+03  0.41800000000E+01 0. -1.
        -11    1    1    2    0    0 -0.11470447989E+03 -0.63742492400E+01  0.23606661391E+03  0.26253608316E+03  0.00000000000E+00 0. -1.
         11    1    1    2    0    0 -0.11244010596E+03  0.81300247374E+02  0.38461699745E+03  0.40887986301E+03  0.00000000000E+00 0.  1.
</event>
<event>
 7    1  0.2690635E-009  0.9583967E+02  0.7561462E-02  0.1289296E+00
         -2   -1    0    0    0  501 -0.00000000000E+00  0.00000000000E+00  0.87201116032E+03  0.87201116032E+03  0.00000000000E+00 0.  1.
          2   -1    0    0  501    0  0.00000000000E+00 -0.00000000000E+00 -0.19935091180E+02  0.19935091180E+02  0.00000000000E+00 0. -1.
         25    2    1    2    0    0 -0.58658807704E+02  0.28534185081E+01  0.60033161443E+03  0.61603044292E+03  0.12508581691E+03 0.  0.
          5    1    3    3  502    0 -0.40853785026E+02  0.27179001733E+02  0.57303903074E+03  0.57515122624E+03  0.41800000000E+01 0. -1.
         -5    1    3    3    0  502 -0.17805022678E+02 -0.24325583224E+02  0.27292583689E+02  0.40879216678E+02  0.41800000000E+01 0. -1.
        -11    1    1    2    0    0  0.68903746167E+02  0.31781918341E+02  0.15323389235E+03  0.17099252128E+03  0.00000000000E+00 0.  1.
         11    1    1    2    0    0 -0.10244938463E+02 -0.34635336849E+02  0.98510562356E+02  0.10492328730E+03  0.00000000000E+00 0. -1.
</event>
<event>
 7    1  0.2690635E-009  0.1059609E+03  0.7561462E-02  0.1268238E+00
         -2   -1    0    0    0  501 -0.00000000000E+00  0.00000000000E+00  0.14052530869E+02  0.14052530869E+02  0.00000000000E+00 0.  1.
          2   -1    0    0  501    0  0.00000000000E+00 -0.00000000000E+00 -0.86033058414E+03  0.86033058414E+03  0.00000000000E+00 0. -1.
         25    2    1    2    0    0  0.23810671750E+01 -0.21698423546E+02 -0.48105470674E+03  0.49753258757E+03  0.12509417953E+03 0.  0.
          5    1    3    3  502    0 -0.50807303331E+02 -0.39301345552E+02 -0.17723645540E+03  0.18856354727E+03  0.41800000000E+01 0.  1.
         -5    1    3    3    0  502  0.53188370506E+02  0.17602922006E+02 -0.30381825133E+03  0.30896904030E+03  0.41800000000E+01 0.  1.
        -11    1    1    2    0    0 -0.23933973982E+02 -0.28217332655E+02 -0.18234328489E+03  0.18605947038E+03  0.00000000000E+00 0.  1.
         11    1    1    2    0    0  0.21552906807E+02  0.49915756201E+02 -0.18288006165E+03  0.19079105707E+03  0.00000000000E+00 0. -1.
</event>
<event>
 7    1  0.2690635E-009  0.1122308E+03  0.7561462E-02  0.1256494E+00
          2   -1    0    0  501    0  0.00000000000E+00  0.00000000000E+00  0.11630316889E+03  0.11630316889E+03  0.00000000000E+00 0. -1.
         -2   -1    0    0    0  501 -0.00000000000E+00 -0.00000000000E+00 -0.21718617948E+03  0.21718617948E+03  0.00000000000E+00 0.  1.
         25    2    1    2    0    0 -0.27294541607E+02 -0.88767530545E+02 -0.12258276382E+03  0.19824019151E+03  0.12509185850E+03 0.  0.
          5    1    3    3  502    0  0.10988500024E+02 -0.21376904649E+02 -0.11799062478E+03  0.12048642712E+03  0.41800000000E+01 0.  1.
         -5    1    3    3    0  502 -0.38283041631E+02 -0.67390625896E+02 -0.45921390390E+01  0.77753764385E+02  0.41800000000E+01 0.  1.
        -11    1    1    2    0    0  0.55593970198E+02  0.52703443999E+02 -0.13071163600E+02  0.77712276055E+02  0.00000000000E+00 0.  1.
         11    1    1    2    0    0 -0.28299428592E+02  0.36064086546E+02  0.34770916819E+02  0.57536880811E+02  0.00000000000E+00 0. -1.
</event>
<event>
 7    1  0.2690635E-009  0.1604476E+03  0.7561462E-02  0.1188192E+00
         -1   -1    0    0    0  501 -0.00000000000E+00  0.00000000000E+00  0.74480938165E+02  0.74480938165E+02  0.00000000000E+00 0.  1.
          1   -1    0    0  501    0  0.00000000000E+00 -0.00000000000E+00 -0.40916299396E+03  0.40916299396E+03  0.00000000000E+00 0. -1.
         25    2    1    2    0    0  0.19252919287E+02 -0.13235061172E+03 -0.22140886650E+03  0.28732769884E+03  0.12509181042E+03 0.  0.
          5    1    3    3  502    0 -0.58946768446E+01  0.23626044806E+02 -0.23972656130E+02  0.34425250184E+02  0.41800000000E+01 0.  1.
         -5    1    3    3    0  502  0.25147596132E+02 -0.15597665653E+03 -0.19743621037E+03  0.25290244866E+03  0.41800000000E+01 0.  1.
        -11    1    1    2    0    0 -0.29347413093E+02  0.93184211997E+02 -0.12060581425E+03  0.15521060032E+03  0.00000000000E+00 0. -1.
         11    1    1    2    0    0  0.10094493806E+02  0.39166399725E+02  0.73326249535E+01  0.41105632963E+02  0.00000000000E+00 0.  1.
</event>
<event>
 7    1  0.2690635E-009  0.8461313E+02  0.7561462E-02  0.1316447E+00
         -1   -1    0    0    0  501 -0.00000000000E+00  0.00000000000E+00  0.12944759422E+02  0.12944759422E+02  0.00000000000E+00 0.  1.
          1   -1    0    0  501    0  0.00000000000E+00 -0.00000000000E+00 -0.10974221492E+04  0.10974221492E+04  0.00000000000E+00 0. -1.
         25    2    1    2    0    0 -0.26249867057E+02 -0.31916788530E+02 -0.74409168243E+03  0.75566365572E+03  0.12508953518E+03 0.  0.
          5    1    3    3  502    0 -0.24154997267E+02  0.13336426244E+02 -0.65531446685E+03  0.65590841359E+03  0.41800000000E+01 0.  1.
         -5    1    3    3    0  502 -0.20948697907E+01 -0.45253214774E+02 -0.88777215579E+02  0.99755242132E+02  0.41800000000E+01 0.  1.
        -11    1    1    2    0    0 -0.22759453205E+02  0.40127843344E+02 -0.11507544892E+03  0.12397820561E+03  0.00000000000E+00 0.  1.
         11    1    1    2    0    0  0.49009320263E+02 -0.82110548135E+01 -0.22531025845E+03  0.23072504732E+03  0.00000000000E+00 0. -1.
</event>
<event>
 7    1  0.2690635E-009  0.1680938E+03  0.7561462E-02  0.1179850E+00
         -1   -1    0    0    0  501 -0.00000000000E+00  0.00000000000E+00  0.21735366009E+03  0.21735366009E+03  0.00000000000E+00 0.  1.
          1   -1    0    0  501    0  0.00000000000E+00 -0.00000000000E+00 -0.21452114798E+03  0.21452114798E+03  0.00000000000E+00 0. -1.
         25    2    1    2    0    0 -0.20342679575E+02 -0.16234744161E+03 -0.86410987740E+02  0.22334682694E+03  0.12508569020E+03 0.  0.
          5    1    3    3  502    0 -0.33914066673E+01 -0.74406304518E+02  0.26500845235E+02  0.79167966940E+02  0.41800000000E+01 0. -1.
         -5    1    3    3    0  502 -0.16951272908E+02 -0.87941137093E+02 -0.11291183297E+03  0.14417886000E+03  0.41800000000E+01 0. -1.
        -11    1    1    2    0    0  0.38255431506E+02  0.10029346895E+03  0.12260887251E+02  0.10803974875E+03  0.00000000000E+00 0.  1.
         11    1    1    2    0    0 -0.17912751931E+02  0.62053972664E+02  0.76982612594E+02  0.10048823238E+03  0.00000000000E+00 0. -1.
</event>
<event>
 7    1  0.2690635E-009  0.1571625E+03  0.7561462E-02  0.1191938E+00
         -3   -1    0    0    0  501 -0.00000000000E+00  0.00000000000E+00  0.14515601966E+03  0.14515601966E+03  0.00000000000E+00 0.  1.
          3   -1    0    0  501    0  0.00000000000E+00 -0.00000000000E+00 -0.22743325977E+03  0.22743325977E+03  0.00000000000E+00 0. -1.
         25    2    1    2    0    0 -0.24783760484E+02  0.12943590884E+03 -0.10589031685E+03  0.21030678739E+03  0.12509315064E+03 0.  0.
          5    1    3    3  502    0  0.14871748887E+02 -0.20902223707E+02 -0.18478079577E+02  0.31890181807E+02  0.41800000000E+01 0. -1.
         -5    1    3    3    0  502 -0.39655509371E+02  0.15033813255E+03 -0.87412237273E+02  0.17841660558E+03  0.41800000000E+01 0. -1.
        -11    1    1    2    0    0  0.10075824507E+02 -0.92402730394E+02  0.58074048728E+02  0.10960101258E+03  0.00000000000E+00 0.  1.
         11    1    1    2    0    0  0.14707935977E+02 -0.37033178449E+02 -0.34460971997E+02  0.52681479456E+02  0.00000000000E+00 0. -1.
</event>
<event>
 7    1  0.2690635E-009  0.1256131E+03  0.7561462E-02  0.1234114E+00
         -2   -1    0    0    0  501 -0.00000000000E+00  0.00000000000E+00  0.43889077310E+02  0.43889077310E+02  0.00000000000E+00 0.  1.
          2   -1    0    0  501    0  0.00000000000E+00 -0.00000000000E+00 -0.56621479300E+03  0.56621479300E+03  0.00000000000E+00 0. -1.
         25    2    1    2    0    0 -0.48437486369E+02 -0.10141148710E+03 -0.23930373117E+03  0.29247976715E+03  0.12509060172E+03 0.  0.
          5    1    3    3  502    0 -0.33138382824E+02 -0.22264889184E+02 -0.22529282826E+00  0.40142257827E+02  0.41800000000E+01 0. -1.
         -5    1    3    3    0  502 -0.15299103544E+02 -0.79146597917E+02 -0.23907843834E+03  0.25233750932E+03  0.41800000000E+01 0. -1.
        -11    1    1    2    0    0  0.43281875225E+02  0.18133434506E+02 -0.43507731482E+02  0.63992693869E+02  0.00000000000E+00 0.  1.
         11    1    1    2    0    0  0.51556111436E+01  0.83278052595E+02 -0.23951425304E+03  0.25363140929E+03  0.00000000000E+00 0. -1.
</event>
<event>
 7    1  0.2690635E-009  0.1217556E+03  0.7561462E-02  0.1240229E+00
         -1   -1    0    0    0  501 -0.00000000000E+00  0.00000000000E+00  0.50555950467E+02  0.50555950467E+02  0.00000000000E+00 0.  1.
          1   -1    0    0  501    0  0.00000000000E+00 -0.00000000000E+00 -0.36400524471E+03  0.36400524471E+03  0.00000000000E+00 0. -1.
         25    2    1    2    0    0 -0.37796719816E+02  0.66086974703E+02 -0.12389010536E+03  0.19181420305E+03  0.12509136674E+03 0.  0.
          5    1    3    3  502    0  0.30540056215E+02  0.49866039371E+02 -0.12309784813E+02  0.59902588578E+02  0.41800000000E+01 0. -1.
         -5    1    3    3    0  502 -0.68336776031E+02  0.16220935332E+02 -0.11158032054E+03  0.13191161448E+03  0.41800000000E+01 0. -1.
        -11    1    1    2    0    0  0.32470363924E+02 -0.87044402388E+02 -0.13334709979E+03  0.16251923437E+03  0.00000000000E+00 0.  1.
         11    1    1    2    0    0  0.53263558917E+01  0.20957427685E+02 -0.56212089097E+02  0.60227757744E+02  0.00000000000E+00 0. -1.
</event>
<event>
 7    1  0.2690635E-009  0.1480738E+03  0.7561462E-02  0.1202860E+00
         -1   -1    0    0    0  501 -0.00000000000E+00  0.00000000000E+00  0.37647063662E+02  0.37647063662E+02  0.00000000000E+00 0.  1.
          1   -1    0    0  501    0  0.00000000000E+00 -0.00000000000E+00 -0.89724500583E+03  0.89724500583E+03  0.00000000000E+00 0. -1.
         25    2    1    2    0    0 -0.42486427717E+02  0.12521801635E+03 -0.28420723429E+03  0.33750143217E+03  0.12509522986E+03 0.  0.
          5    1    3    3  502    0 -0.24347667033E+02  0.27623051140E+02 -0.67389027386E+00  0.37064381451E+02  0.41800000000E+01 0. -1.
         -5    1    3    3    0  502 -0.18138760684E+02  0.97594965205E+02 -0.28353334402E+03  0.30043705071E+03  0.41800000000E+01 0. -1.
        -11    1    1    2    0    0  0.42063551691E+02 -0.13936868255E+03 -0.50369688430E+03  0.52431242910E+03  0.00000000000E+00 0.  1.
         11    1    1    2    0    0  0.42287602598E+00  0.14150666206E+02 -0.71693823585E+02  0.73078208232E+02  0.00000000000E+00 0. -1.
</event>
<event>
 7    1  0.2690635E-009  0.1599413E+03  0.7561462E-02  0.1188763E+00
         -1   -1    0    0    0  501 -0.00000000000E+00  0.00000000000E+00  0.22768993211E+03  0.22768993211E+03  0.00000000000E+00 0.  1.
          1   -1    0    0  501    0  0.00000000000E+00 -0.00000000000E+00 -0.15977835233E+03  0.15977835233E+03  0.00000000000E+00 0. -1.
         25    2    1    2    0    0  0.35222238896E+02  0.12168623251E+03  0.12904054868E+03  0.21987971447E+03  0.12508988902E+03 0.  0.
          5    1    3    3  502    0  0.46328198970E+02 -0.85063578798E+01  0.33125035800E+02  0.57735608951E+02  0.41800000000E+01 0. -1.
         -5    1    3    3    0  502 -0.11105960074E+02  0.13019259039E+03  0.95915512885E+02  0.16214410552E+03  0.41800000000E+01 0. -1.
        -11    1    1    2    0    0  0.14759972562E+02 -0.63329310908E+02  0.63399476861E+01  0.65334932056E+02  0.00000000000E+00 0.  1.
         11    1    1    2    0    0 -0.49982211458E+02 -0.58356921606E+02 -0.67468916584E+02  0.10225363791E+03  0.00000000000E+00 0. -1.
</event>
<event>
 7    1  0.2690635E-009  0.1009182E+03  0.7561462E-02  0.1278377E+00
          1   -1    0    0  501    0  0.00000000000E+00  0.00000000000E+00  0.85377072230E+02  0.85377072230E+02  0.00000000000E+00 0. -1.
         -1   -1    0    0    0  501 -0.00000000000E+00 -0.00000000000E+00 -0.22504799007E+03  0.22504799007E+03  0.00000000000E+00 0.  1.
         25    2    1    2    0    0 -0.81192292306E+02  0.56838017286E+01 -0.11292433184E+03  0.18714942359E+03  0.12509399705E+03 0.  0.
          5    1    3    3  502    0 -0.57967012124E+02 -0.36505842147E+02 -0.49053168869E+01  0.68806871308E+02  0.41800000000E+01 0. -1.
         -5    1    3    3    0  502 -0.23225280182E+02  0.42189643875E+02 -0.10801901495E+03  0.11834255229E+03  0.41800000000E+01 0. -1.
        -11    1    1    2    0    0  0.69804492550E+02 -0.13438431444E+02  0.20563096116E+02  0.74000672576E+02  0.00000000000E+00 0. -1.
         11    1    1    2    0    0  0.11387799756E+02  0.77546297159E+01 -0.47309682113E+02  0.49274966128E+02  0.00000000000E+00 0.  1.
</event>
<event>
 7    1  0.2690635E-009  0.9846962E+02  0.7561462E-02  0.1283547E+00
         -2   -1    0    0    0  501 -0.00000000000E+00  0.00000000000E+00  0.23058070988E+02  0.23058070988E+02  0.00000000000E+00 0.  1.
          2   -1    0    0  501    0  0.00000000000E+00 -0.00000000000E+00 -0.52286484218E+03  0.52286484218E+03  0.00000000000E+00 0. -1.
         25    2    1    2    0    0 -0.18164090119E+02  0.15099574503E+02 -0.36014075308E+03  0.38197769529E+03  0.12509063253E+03 0.  0.
          5    1    3    3  502    0 -0.62760882139E+00 -0.47810408315E+02 -0.24393272720E+03  0.24860988885E+03  0.41800000000E+01 0.  1.
         -5    1    3    3    0  502 -0.17536481297E+02  0.62909982818E+02 -0.11620802589E+03  0.13336780644E+03  0.41800000000E+01 0.  1.
        -11    1    1    2    0    0  0.26229172651E+02  0.28748938108E+02 -0.84382646073E+02  0.92924172843E+02  0.00000000000E+00 0. -1.
         11    1    1    2    0    0 -0.80650825322E+01 -0.43848512610E+02 -0.55283372040E+02  0.71021045039E+02  0.00000000000E+00 0.  1.
</event>
<event>
 7    1  0.2690635E-009  0.1246810E+03  0.7561462E-02  0.1235569E+00
          2   -1    0    0  501    0  0.00000000000E+00  0.00000000000E+00  0.10787681948E+03  0.10787681948E+03  0.00000000000E+00 0. -1.
         -2   -1    0    0    0  501 -0.00000000000E+00 -0.00000000000E+00 -0.14808091524E+03  0.14808091524E+03  0.00000000000E+00 0.  1.
         25    2    1    2    0    0  0.18449845439E+02  0.58703592321E+02 -0.84932029262E+01  0.13966386179E+03  0.12508937303E+03 0.  0.
          5    1    3    3  502    0 -0.37882379244E+02  0.71816340019E+02 -0.21779723155E+01  0.81331896045E+02  0.41800000000E+01 0. -1.
         -5    1    3    3    0  502  0.56332224683E+02 -0.13112747698E+02 -0.63152306107E+01  0.58331965745E+02  0.41800000000E+01 0. -1.
        -11    1    1    2    0    0  0.37028847594E+02 -0.17450253672E+02 -0.22022875553E+02  0.46482835058E+02  0.00000000000E+00 0.  1.
         11    1    1    2    0    0 -0.55478693033E+02 -0.41253338649E+02 -0.96880172830E+01  0.69811037875E+02  0.00000000000E+00 0. -1.
</event>
<event>
 7    1  0.2690635E-009  0.1139376E+03  0.7561462E-02  0.1253447E+00
         -1   -1    0    0    0  501 -0.00000000000E+00  0.00000000000E+00  0.11782738796E+03  0.11782738796E+03  0.00000000000E+00 0.  1.
          1   -1    0    0  501    0  0.00000000000E+00 -0.00000000000E+00 -0.15267201208E+03  0.15267201208E+03  0.00000000000E+00 0. -1.
         25    2    1    2    0    0  0.55476536310E+02 -0.24101031559E+02  0.35756366415E+02  0.14347540956E+03  0.12509264410E+03 0.  0.
          5    1    3    3  502    0  0.42329443973E+02  0.48023559323E+02  0.26700800016E+02  0.69487043386E+02  0.41800000000E+01 0.  1.
         -5    1    3    3    0  502  0.13147092337E+02 -0.72124590882E+02  0.90555663996E+01  0.73988366177E+02  0.41800000000E+01 0.  1.
        -11    1    1    2    0    0 -0.28969260800E+02 -0.22498460872E+02 -0.62967972681E+02  0.72872247094E+02  0.00000000000E+00 0. -1.
         11    1    1    2    0    0 -0.26507275510E+02  0.46599492431E+02 -0.76330178566E+01  0.54151743383E+02  0.00000000000E+00 0.  1.
</event>
<event>
 7    1  0.2690635E-009  0.8708242E+02  0.7561462E-02  0.1310075E+00
          2   -1    0    0  501    0  0.00000000000E+00  0.00000000000E+00  0.78241670984E+02  0.78241670984E+02  0.00000000000E+00 0. -1.
         -2   -1    0    0    0  501 -0.00000000000E+00 -0.00000000000E+00 -0.16813879930E+03  0.16813879930E+03  0.00000000000E+00 0.  1.
         25    2    1    2    0    0 -0.17867371408E+02  0.86475766550E+00 -0.11620972524E+03  0.17167004778E+03  0.12508362922E+03 0.  0.
          5    1    3    3  502    0 -0.99307682922E+01 -0.50942486090E+02 -0.10601625794E+03  0.11811298149E+03  0.41800000000E+01 0.  1.
         -5    1    3    3    0  502 -0.79366031161E+01  0.51807243756E+02 -0.10193467295E+02  0.53557066295E+02  0.41800000000E+01 0.  1.
        -11    1    1    2    0    0 -0.24794034613E+02 -0.84347498899E+01  0.13848290472E+02  0.29625399695E+02  0.00000000000E+00 0.  1.
         11    1    1    2    0    0  0.42661406021E+02  0.75699922244E+01  0.12464306451E+02  0.45085022805E+02  0.00000000000E+00 0. -1.
</event>
<event>
 7    1  0.2690635E-009  0.1051222E+03  0.7561462E-02  0.1269879E+00
          3   -1    0    0  501    0  0.00000000000E+00  0.00000000000E+00  0.20236357644E+02  0.20236357644E+02  0.00000000000E+00 0. -1.
         -3   -1    0    0    0  501 -0.00000000000E+00 -0.00000000000E+00 -0.86306061795E+03  0.86306061795E+03  0.00000000000E+00 0.  1.
         25    2    1    2    0    0  0.25003085921E+02  0.53801406567E+02 -0.61309106597E+03  0.62852835381E+03  0.12508993049E+03 0.  0.
          5    1    3    3  502    0 -0.67502595218E+00  0.75218031441E+02 -0.19446300635E+03  0.20854625663E+03  0.41800000000E+01 0. -1.
         -5    1    3    3    0  502  0.25678111873E+02 -0.21416624874E+02 -0.41862805962E+03  0.41998209718E+03  0.41800000000E+01 0. -1.
        -11    1    1    2    0    0 -0.17061147952E+02  0.20394703975E+02 -0.11403740640E+03  0.11709635681E+03  0.00000000000E+00 0.  1.
         11    1    1    2    0    0 -0.79419379690E+01 -0.74196110542E+02 -0.11569578793E+03  0.13767226497E+03  0.00000000000E+00 0. -1.
</event>
<event>
 7    1  0.2690635E-009  0.2598425E+03  0.7561462E-02  0.1107238E+00
         -3   -1    0    0    0  501 -0.00000000000E+00  0.00000000000E+00  0.48234313500E+03  0.48234313500E+03  0.00000000000E+00 0.  1.
          3   -1    0    0  501    0  0.00000000000E+00 -0.00000000000E+00 -0.14964127569E+03  0.14964127569E+03  0.00000000000E+00 0. -1.
         25    2    1    2    0    0  0.17813749704E+03 -0.16638091767E+03  0.20198899664E+03  0.34038754929E+03  0.12509416988E+03 0.  0.
          5    1    3    3  502    0  0.10992389881E+03 -0.15883837060E+03  0.18926128470E+03  0.27046293238E+03  0.41800000000E+01 0.  1.
         -5    1    3    3    0  502  0.68213598227E+02 -0.75425470608E+01  0.12727711937E+02  0.69924616913E+02  0.41800000000E+01 0.  1.
        -11    1    1    2    0    0 -0.43143147634E+02  0.96507615485E+02  0.75371398944E+02  0.12983026925E+03  0.00000000000E+00 0. -1.
         11    1    1    2    0    0 -0.13499434941E+03  0.69873302181E+02  0.55341463722E+02  0.16176659215E+03  0.00000000000E+00 0.  1.
</event>
<event>
 7    1  0.2690635E-009  0.8911137E+02  0.7561462E-02  0.1305018E+00
          4   -1    0    0  501    0  0.00000000000E+00  0.00000000000E+00  0.93510783430E+02  0.93510783430E+02  0.00000000000E+00 0.  1.
         -4   -1    0    0    0  501 -0.00000000000E+00 -0.00000000000E+00 -0.17409975871E+03  0.17409975871E+03  0.00000000000E+00 0. -1.
         25    2    1    2    0    0  0.17929898278E+02 -0.10193491918E+02  0.26628664677E+02  0.12954533452E+03  0.12509004510E+03 0.  0.
          5    1    3    3  502    0 -0.38176834551E+02 -0.34008058781E+02  0.42281576262E+02  0.66477235575E+02  0.41800000000E+01 0.  1.
         -5    1    3    3    0  502  0.56106732830E+02  0.23814566862E+02 -0.15652911585E+02  0.63068098947E+02  0.41800000000E+01 0.  1.
        -11    1    1    2    0    0  0.79225331288E+01  0.31405226053E+02 -0.98238209844E+02  0.10343984062E+03  0.00000000000E+00 0. -1.
         11    1    1    2    0    0 -0.25852431407E+02 -0.21211734134E+02 -0.89794301170E+01  0.34625367000E+02  0.00000000000E+00 0.  1.
</event>
<event>
 7    1  0.2690635E-009  0.1125340E+03  0.7561462E-02  0.1255948E+00
         -1   -1    0    0    0  501 -0.00000000000E+00  0.00000000000E+00  0.20096966404E+02  0.20096966404E+02  0.00000000000E+00 0.  1.
          1   -1    0    0  501    0  0.00000000000E+00 -0.00000000000E+00 -0.89758877408E+03  0.89758877408E+03  0.00000000000E+00 0. -1.
         25    2    1    2    0    0 -0.83007530803E+02  0.36637213139E+02 -0.56583357869E+03  0.58655828110E+03  0.12510172982E+03 0.  0.
          5    1    3    3  502    0 -0.87794903765E+01 -0.18521461522E+02 -0.10213305873E+02  0.23278917609E+02  0.41800000000E+01 0. -1.
         -5    1    3    3    0  502 -0.74228040426E+02  0.55158674661E+02 -0.55562027282E+03  0.56327936350E+03  0.41800000000E+01 0. -1.
        -11    1    1    2    0    0  0.28498693656E+02 -0.48068587612E+02 -0.16804573103E+03  0.17709356954E+03  0.00000000000E+00 0. -1.
         11    1    1    2    0    0  0.54508837146E+02  0.11431374473E+02 -0.14361249795E+03  0.15403388983E+03  0.00000000000E+00 0.  1.
</event>
<event>
 7    1  0.2690635E-009  0.1329466E+03  0.7561462E-02  0.1223148E+00
          2   -1    0    0  501    0  0.00000000000E+00  0.00000000000E+00  0.30742657730E+03  0.30742657730E+03  0.00000000000E+00 0.  1.
         -2   -1    0    0    0  501 -0.00000000000E+00 -0.00000000000E+00 -0.60769526314E+02  0.60769526314E+02  0.00000000000E+00 0. -1.
         25    2    1    2    0    0  0.52287486705E+02  0.58720924982E+02  0.10159327056E+03  0.17930680964E+03  0.12509041155E+03 0.  0.
          5    1    3    3  502    0  0.43909138508E+02  0.96547465874E+02  0.88494221316E+02  0.13819596672E+03  0.41800000000E+01 0.  1.
         -5    1    3    3    0  502  0.83783481975E+01 -0.37826540892E+02  0.13099049245E+02  0.41110842918E+02  0.41800000000E+01 0.  1.
        -11    1    1    2    0    0  0.68642964860E+00 -0.67137553228E+02  0.85988542957E+02  0.10909606665E+03  0.00000000000E+00 0.  1.
         11    1    1    2    0    0 -0.52973916354E+02  0.84166282452E+01  0.59075237472E+02  0.79793227327E+02  0.00000000000E+00 0. -1.
</event>
<event>
 7    1  0.2690635E-009  0.9663499E+02  0.7561462E-02  0.1287536E+00
         -2   -1    0    0    0  501 -0.00000000000E+00  0.00000000000E+00  0.11124494834E+02  0.11124494834E+02  0.00000000000E+00 0.  1.
          2   -1    0    0  501    0  0.00000000000E+00 -0.00000000000E+00 -0.14345249626E+04  0.14345249626E+04  0.00000000000E+00 0. -1.
         25    2    1    2    0    0  0.18690415329E+02  0.98930290803E+01 -0.10319523115E+04  0.10397213705E+04  0.12509097234E+03 0.  0.
          5    1    3    3  502    0  0.50482885711E+02  0.16990623901E+02 -0.19680719624E+03  0.20393074300E+03  0.41800000000E+01 0. -1.
         -5    1    3    3    0  502 -0.31792470382E+02 -0.70975948202E+01 -0.83514511528E+03  0.83579062749E+03  0.41800000000E+01 0. -1.
        -11    1    1    2    0    0  0.18754367349E+02 -0.49234785929E+02 -0.17414791881E+03  0.18194309019E+03  0.00000000000E+00 0.  1.
         11    1    1    2    0    0 -0.37444782678E+02  0.39341756849E+02 -0.21730023745E+03  0.22398499677E+03  0.00000000000E+00 0. -1.
</event>
<event>
 7    1  0.2690635E-009  0.1120183E+03  0.7561462E-02  0.1256877E+00
         -2   -1    0    0    0  501 -0.00000000000E+00  0.00000000000E+00  0.14927295840E+03  0.14927295840E+03  0.00000000000E+00 0.  1.
          2   -1    0    0  501    0  0.00000000000E+00 -0.00000000000E+00 -0.14053086587E+03  0.14053086587E+03  0.00000000000E+00 0. -1.
         25    2    1    2    0    0 -0.28787212673E+02 -0.10425733674E+02  0.92120830748E+02  0.15832603376E+03  0.12507392203E+03 0.  0.
          5    1    3    3  502    0 -0.47515564130E+02  0.44972559946E+02  0.27551237543E+02  0.71111202162E+02  0.41800000000E+01 0.  1.
         -5    1    3    3    0  502  0.18728351458E+02 -0.55398293620E+02  0.64569593205E+02  0.87214831599E+02  0.41800000000E+01 0.  1.
        -11    1    1    2    0    0  0.39412547126E+02 -0.35298949891E+02 -0.31776694135E+02  0.61718093170E+02  0.00000000000E+00 0. -1.
         11    1    1    2    0    0 -0.10625334453E+02  0.45724683565E+02 -0.51602044077E+02  0.69759697335E+02  0.00000000000E+00 0.  1.
</event>
<event>
 7    1  0.2690635E-009  0.2234935E+03  0.7561462E-02  0.1131305E+00
          2   -1    0    0  501    0  0.00000000000E+00  0.00000000000E+00  0.24672731046E+03  0.24672731046E+03  0.00000000000E+00 0. -1.
         -2   -1    0    0    0  501 -0.00000000000E+00 -0.00000000000E+00 -0.20756833789E+03  0.20756833789E+03  0.00000000000E+00 0.  1.
         25    2    1    2    0    0  0.16797786448E+03 -0.10522781172E+03  0.40180483479E+02  0.23780124304E+03  0.12508199161E+03 0.  0.
          5    1    3    3  502    0 -0.18719461099E+02  0.14445449933E+01  0.15649892286E+01  0.19298355509E+02  0.41800000000E+01 0.  1.
         -5    1    3    3    0  502  0.18669732558E+03 -0.10667235671E+03  0.38615494250E+02  0.21850288753E+03  0.41800000000E+01 0.  1.
        -11    1    1    2    0    0 -0.17620281526E+03  0.97384939791E+02  0.87391969638E+01  0.20151335481E+03  0.00000000000E+00 0.  1.
         11    1    1    2    0    0  0.82249507859E+01  0.78428719308E+01 -0.97607078726E+01  0.14981050488E+02  0.00000000000E+00 0. -1.
</event>
<event>
 7    1  0.2690635E-009  0.1655945E+03  0.7561462E-02  0.1182522E+00
         -2   -1    0    0    0  501 -0.00000000000E+00  0.00000000000E+00  0.26854217543E+02  0.26854217543E+02  0.00000000000E+00 0.  1.
          2   -1    0    0  501    0  0.00000000000E+00 -0.00000000000E+00 -0.14627595631E+04  0.14627595631E+04  0.00000000000E+00 0. -1.
         25    2    1    2    0    0 -0.10962651455E+03 -0.65650303923E+02 -0.11381899542E+04  0.11521518205E+04  0.12509800312E+03 0.  0.
          5    1    3    3  502    0 -0.40304033139E+02 -0.90896674715E+02 -0.50902358514E+03  0.51866087494E+03  0.41800000000E+01 0. -1.
         -5    1    3    3    0  502 -0.69322481411E+02  0.25246370792E+02 -0.62916636908E+03  0.63349094551E+03  0.41800000000E+01 0. -1.
        -11    1    1    2    0    0  0.30306676732E+02  0.72082541448E+02 -0.16752672434E+03  0.18487723171E+03  0.00000000000E+00 0.  1.
         11    1    1    2    0    0  0.79319837818E+02 -0.64322375245E+01 -0.13018866698E+03  0.15258472846E+03  0.00000000000E+00 0. -1.
</event>
<event>
 7    1  0.2690635E-009  0.1935690E+03  0.7561462E-02  0.1155281E+00
          1   -1    0    0  501    0  0.00000000000E+00  0.00000000000E+00  0.52766584812E+03  0.52766584812E+03  0.00000000000E+00 0. -1.
         -1   -1    0    0    0  501 -0.00000000000E+00 -0.00000000000E+00 -0.75571368176E+02  0.75571368176E+02  0.00000000000E+00 0.  1.
         25    2    1    2    0    0 -0.14921075067E+03 -0.67621677446E+02  0.28811365381E+03  0.35425032351E+03  0.12508906754E+03 0.  0.
          5    1    3    3  502    0 -0.11913546238E+03  0.86913930286E+01  0.20566031655E+03  0.23787063063E+03  0.41800000000E+01 0. -1.
         -5    1    3    3    0  502 -0.30075288285E+02 -0.76313070474E+02  0.82453337262E+02  0.11637969289E+03  0.41800000000E+01 0. -1.
        -11    1    1    2    0    0 -0.74441297628E+01  0.20626475200E+02  0.32161134541E+02  0.38925635795E+02  0.00000000000E+00 0.  1.
         11    1    1    2    0    0  0.15665488043E+03  0.46995202246E+02  0.13181969159E+03  0.21006125699E+03  0.00000000000E+00 0. -1.
</event>
<event>
 7    1  0.2690635E-009  0.1398407E+03  0.7561462E-02  0.1213544E+00
         -2   -1    0    0    0  501 -0.00000000000E+00  0.00000000000E+00  0.15189236155E+03  0.15189236155E+03  0.00000000000E+00 0.  1.
          2   -1    0    0  501    0  0.00000000000E+00 -0.00000000000E+00 -0.15986837769E+03  0.15986837769E+03  0.00000000000E+00 0. -1.
         25    2    1    2    0    0 -0.34613690232E+02  0.10326792429E+03 -0.25909386632E+02  0.16787779339E+03  0.12509710413E+03 0.  0.
          5    1    3    3  502    0 -0.45424925195E+02  0.12649721722E+03 -0.37269862420E+02  0.13954026242E+03  0.41800000000E+01 0.  1.
         -5    1    3    3    0  502  0.10811234963E+02 -0.23229292928E+02  0.11360475788E+02  0.28337530970E+02  0.41800000000E+01 0.  1.
        -11    1    1    2    0    0 -0.86505020952E+01 -0.49435141229E+02  0.47180873684E+02  0.68881777100E+02  0.00000000000E+00 0.  1.
         11    1    1    2    0    0  0.43264192328E+02 -0.53832783059E+02 -0.29247503199E+02  0.75001168745E+02  0.00000000000E+00 0. -1.
</event>
<event>
 7    1  0.2690635E-009  0.1085948E+03  0.7561462E-02  0.1263194E+00
         -2   -1    0    0    0  501 -0.00000000000E+00  0.00000000000E+00  0.22354241841E+03  0.22354241841E+03  0.00000000000E+00 0.  1.
          2   -1    0    0  501    0  0.00000000000E+00 -0.00000000000E+00 -0.65498774693E+02  0.65498774693E+02  0.00000000000E+00 0. -1.
         25    2    1    2    0    0  0.46496323424E+02  0.45619386052E+01  0.58959405697E+02  0.14596734526E+03  0.12509010747E+03 0.  0.
          5    1    3    3  502    0  0.68283005899E+02  0.44100391646E+02  0.59173712529E+02  0.10063008542E+03  0.41800000000E+01 0.  1.
         -5    1    3    3    0  502 -0.21786682475E+02 -0.39538453041E+02 -0.21430683243E+00  0.45337259837E+02  0.41800000000E+01 0.  1.
        -11    1    1    2    0    0 -0.39144893446E+02 -0.38993273826E+02  0.24187072057E+02  0.60314281404E+02  0.00000000000E+00 0. -1.
         11    1    1    2    0    0 -0.73514299781E+01  0.34431335221E+02  0.74897165968E+02  0.82759566443E+02  0.00000000000E+00 0.  1.
</event>
<event>
 7    1  0.2690635E-009  0.1175522E+03  0.7561462E-02  0.1247191E+00
          2   -1    0    0  501    0  0.00000000000E+00  0.00000000000E+00  0.50721925777E+03  0.50721925777E+03  0.00000000000E+00 0. -1.
         -2   -1    0    0    0  501 -0.00000000000E+00 -0.00000000000E+00 -0.35426521896E+02  0.35426521896E+02  0.00000000000E+00 0.  1.
         25    2    1    2    0    0  0.20197094491E+02  0.41719254924E+02  0.38443213987E+03  0.40692015326E+03  0.12509005598E+03 0.  0.
          5    1    3    3  502    0 -0.38577612936E+02 -0.21867774086E+02  0.97796232263E+02  0.10746165459E+03  0.41800000000E+01 0. -1.
         -5    1    3    3    0  502  0.58774707428E+02  0.63587029011E+02  0.28663590761E+03  0.29945849867E+03  0.41800000000E+01 0. -1.
        -11    1    1    2    0    0 -0.47630880102E+02 -0.55529619336E+02  0.61472592879E+02  0.95556889015E+02  0.00000000000E+00 0. -1.
         11    1    1    2    0    0  0.27433785610E+02  0.13810364412E+02  0.25888003124E+02  0.40168737394E+02  0.00000000000E+00 0.  1.
</event>
<event>
 7    1  0.2690635E-009  0.1102919E+03  0.7561462E-02  0.1260030E+00
          2   -1    0    0  501    0  0.00000000000E+00  0.00000000000E+00  0.62847076462E+03  0.62847076462E+03  0.00000000000E+00 0. -1.
         -2   -1    0    0    0  501 -0.00000000000E+00 -0.00000000000E+00 -0.23086745155E+02  0.23086745155E+02  0.00000000000E+00 0.  1.
         25    2    1    2    0    0 -0.47507407333E+01  0.35994725294E+02  0.43916398918E+03  0.45807174019E+03  0.12508605034E+03 0.  0.
          5    1    3    3  502    0 -0.30698053241E+02 -0.39513954797E+02  0.16140770696E+03  0.16903740226E+03  0.41800000000E+01 0.  1.
         -5    1    3    3    0  502  0.25947312508E+02  0.75508680092E+02  0.27775628221E+03  0.28903433793E+03  0.41800000000E+01 0.  1.
        -11    1    1    2    0    0 -0.35915339118E+02 -0.34386533128E+02  0.12932166320E+03  0.13855121009E+03  0.00000000000E+00 0. -1.
         11    1    1    2    0    0  0.40666079851E+02 -0.16081921667E+01  0.36898367084E+02  0.54934559486E+02  0.00000000000E+00 0.  1.
</event>
<event>
 7    1  0.2690635E-009  0.9924284E+02  0.7561462E-02  0.1281896E+00
          3   -1    0    0  501    0  0.00000000000E+00  0.00000000000E+00  0.29290724774E+03  0.29290724774E+03  0.00000000000E+00 0. -1.
         -3   -1    0    0    0  501 -0.00000000000E+00 -0.00000000000E+00 -0.71278240692E+02  0.71278240692E+02  0.00000000000E+00 0.  1.
         25    2    1    2    0    0  0.40545244820E+02 -0.82632900377E+02  0.92046497506E+02  0.18053035139E+03  0.12508611821E+03 0.  0.
          5    1    3    3  502    0  0.38823734886E+02 -0.73328938310E+02  0.12269945735E+03  0.14817909711E+03  0.41800000000E+01 0. -1.
         -5    1    3    3    0  502  0.17215099341E+01 -0.93039620668E+01 -0.30652959847E+02  0.32351254288E+02  0.41800000000E+01 0. -1.
        -11    1    1    2    0    0  0.82416754281E-01  0.57055536356E+02  0.12248901373E+03  0.13512549539E+03  0.00000000000E+00 0. -1.
         11    1    1    2    0    0 -0.40627661574E+02  0.25577364020E+02  0.70934958140E+01  0.48529641644E+02  0.00000000000E+00 0.  1.
</event>
<event>
 7    1  0.2690635E-009  0.1275961E+03  0.7561462E-02  0.1231067E+00
          1   -1    0    0  501    0  0.00000000000E+00  0.00000000000E+00  0.49042875787E+03  0.49042875787E+03  0.00000000000E+00 0. -1.
         -1   -1    0    0    0  501 -0.00000000000E+00 -0.00000000000E+00 -0.36333388497E+02  0.36333388497E+02  0.00000000000E+00 0.  1.
         25    2    1    2    0    0 -0.14566393453E+01 -0.77807835329E+02  0.27365158386E+03  0.31078649742E+03  0.12508747577E+03 0.  0.
          5    1    3    3  502    0  0.21888525634E+02  0.24710124724E+02  0.27786437427E+02  0.43350390116E+02  0.41800000000E+01 0.  1.
         -5    1    3    3    0  502 -0.23345164979E+02 -0.10251796005E+03  0.24586514643E+03  0.26743610730E+03  0.41800000000E+01 0.  1.
        -11    1    1    2    0    0 -0.41052885363E+02  0.54439093230E+02  0.85508134025E+02  0.10936450637E+03  0.00000000000E+00 0.  1.
         11    1    1    2    0    0  0.42509524708E+02  0.23368742099E+02  0.94935651490E+02  0.10661114258E+03  0.00000000000E+00 0. -1.
</event>
<event>
 7    1  0.2690635E-009  0.8312015E+02  0.7561462E-02  0.1320423E+00
          1   -1    0    0  501    0  0.00000000000E+00  0.00000000000E+00  0.57587152480E+02  0.57587152480E+02  0.00000000000E+00 0. -1.
         -1   -1    0    0    0  501 -0.00000000000E+00 -0.00000000000E+00 -0.39684991590E+03  0.39684991590E+03  0.00000000000E+00 0.  1.
         25    2    1    2    0    0 -0.16125785322E+02 -0.45072076377E+02 -0.42895675840E+02  0.14063706309E+03  0.12508881440E+03 0.  0.
          5    1    3    3  502    0  0.68870455117E+01 -0.38039441445E+02  0.39063117064E+02  0.55116513098E+02  0.41800000000E+01 0.  1.
         -5    1    3    3    0  502 -0.23012830834E+02 -0.70326349322E+01 -0.81958792904E+02  0.85520549995E+02  0.41800000000E+01 0.  1.
        -11    1    1    2    0    0  0.10056844466E+02  0.73337433811E+02 -0.22171199881E+03  0.23374287098E+03  0.00000000000E+00 0.  1.
         11    1    1    2    0    0  0.60689408554E+01 -0.28265357433E+02 -0.74655088765E+02  0.80057134301E+02  0.00000000000E+00 0. -1.
</event>
<event>
 7    1  0.2690635E-009  0.9374595E+02  0.7561462E-02  0.1294026E+00
         -1   -1    0    0    0  501 -0.00000000000E+00  0.00000000000E+00  0.18771861578E+02  0.18771861578E+02  0.00000000000E+00 0. -1.
          1   -1    0    0  501    0  0.00000000000E+00 -0.00000000000E+00 -0.77194246085E+03  0.77194246085E+03  0.00000000000E+00 0.  1.
         25    2    1    2    0    0 -0.34564934922E+02 -0.22175374746E+02 -0.54317530974E+03  0.55890334740E+03  0.12508817953E+03 0.  0.
          5    1    3    3  502    0 -0.57082564733E+02 -0.62001082050E+02 -0.38804731139E+03  0.39711552683E+03  0.41800000000E+01 0. -1.
         -5    1    3    3    0  502  0.22517629812E+02  0.39825707304E+02 -0.15512799834E+03  0.16178782057E+03  0.41800000000E+01 0. -1.
        -11    1    1    2    0    0  0.10717010374E+02 -0.11620240045E+02  0.18953348398E+01  0.15920947969E+02  0.00000000000E+00 0. -1.
         11    1    1    2    0    0  0.23847924547E+02  0.33795614792E+02 -0.21189062437E+03  0.21589002706E+03  0.00000000000E+00 0.  1.
</event>
<event>
 7    1  0.2690635E-009  0.1885239E+03  0.7561462E-02  0.1159799E+00
         -4   -1    0    0    0  501 -0.00000000000E+00  0.00000000000E+00  0.28905065091E+03  0.28905065091E+03  0.00000000000E+00 0.  1.
          4   -1    0    0  501    0  0.00000000000E+00 -0.00000000000E+00 -0.14282097399E+03  0.14282097399E+03  0.00000000000E+00 0. -1.
         25    2    1    2    0    0 -0.14985764124E+03  0.85351687216E+02  0.37332826444E+02  0.21629363842E+03  0.12508786888E+03 0.  0.
          5    1    3    3  502    0 -0.94532344066E+02  0.98318041822E+02  0.67041478591E+02  0.15203563291E+03  0.41800000000E+01 0. -1.
         -5    1    3    3    0  502 -0.55325297177E+02 -0.12966354606E+02 -0.29708652147E+02  0.64258005508E+02  0.41800000000E+01 0. -1.
        -11    1    1    2    0    0  0.15155603945E+03 -0.67885570731E+02  0.10781879647E+03  0.19799640572E+03  0.00000000000E+00 0. -1.
         11    1    1    2    0    0 -0.16983982104E+01 -0.17466116485E+02  0.10780540062E+01  0.17581580760E+02  0.00000000000E+00 0.  1.
</event>
<event>
 7    1  0.2690635E-009  0.6885974E+02  0.7561462E-02  0.1364014E+00
          1   -1    0    0  501    0  0.00000000000E+00  0.00000000000E+00  0.43776879870E+02  0.43776879870E+02  0.00000000000E+00 0. -1.
         -1   -1    0    0    0  501 -0.00000000000E+00 -0.00000000000E+00 -0.34592752556E+03  0.34592752556E+03  0.00000000000E+00 0.  1.
         25    2    1    2    0    0 -0.19811769100E+02  0.85244219181E+01 -0.25385362798E+03  0.28382014592E+03  0.12508812426E+03 0.  0.
          5    1    3    3  502    0 -0.44663570542E+01 -0.38348894445E+02 -0.22105839804E+03  0.22444347572E+03  0.41800000000E+01 0.  1.
         -5    1    3    3    0  502 -0.15345412046E+02  0.46873316364E+02 -0.32795229942E+02  0.59376670206E+02  0.41800000000E+01 0.  1.
        -11    1    1    2    0    0  0.27137865327E+02 -0.21408929845E+02  0.17285988199E+02  0.38647268980E+02  0.00000000000E+00 0. -1.
         11    1    1    2    0    0 -0.73260962269E+01  0.12884507927E+02 -0.65583005911E+02  0.67236990524E+02  0.00000000000E+00 0.  1.
</event>
<event>
 7    1  0.2690635E-009  0.2838688E+03  0.7561462E-02  0.1093594E+00
          1   -1    0    0  501    0  0.00000000000E+00  0.00000000000E+00  0.15788291776E+04  0.15788291776E+04  0.00000000000E+00 0. -1.
         -1   -1    0    0    0  501 -0.00000000000E+00 -0.00000000000E+00 -0.64871300685E+02  0.64871300685E+02  0.00000000000E+00 0.  1.
         25    2    1    2    0    0  0.17458844269E+03  0.20838274713E+03  0.43971986462E+03  0.53188836668E+03  0.12508869513E+03 0.  0.
          5    1    3    3  502    0  0.12718142363E+02  0.91504515292E+02  0.89282390632E+02  0.12854433142E+03  0.41800000000E+01 0. -1.
         -5    1    3    3    0  502  0.16187030033E+03  0.11687823184E+03  0.35043747398E+03  0.40334403526E+03  0.41800000000E+01 0. -1.
        -11    1    1    2    0    0 -0.10561217859E+03 -0.90993731689E+02  0.69577137221E+03  0.70959960108E+03  0.00000000000E+00 0.  1.
         11    1    1    2    0    0 -0.68976264099E+02 -0.11738901544E+03  0.37846664005E+03  0.40221251048E+03  0.00000000000E+00 0. -1.
</event>
<event>
 7    1  0.2690635E-009  0.1360260E+03  0.7561462E-02  0.1218779E+00
         -2   -1    0    0    0  501 -0.00000000000E+00  0.00000000000E+00  0.10993014406E+02  0.10993014406E+02  0.00000000000E+00 0.  1.
          2   -1    0    0  501    0  0.00000000000E+00 -0.00000000000E+00 -0.20264714456E+04  0.20264714456E+04  0.00000000000E+00 0. -1.
         25    2    1    2    0    0  0.70321705373E+02 -0.58473243313E+02 -0.13907991043E+04  0.13994051672E+04  0.12509360995E+03 0.  0.
          5    1    3    3  502    0  0.10286220620E+03 -0.41271387035E+02 -0.11947417577E+04  0.11998788692E+04  0.41800000000E+01 0.  1.
         -5    1    3    3    0  502 -0.32540500825E+02 -0.17201856278E+02 -0.19605734658E+03  0.19952629802E+03  0.41800000000E+01 0.  1.
        -11    1    1    2    0    0  0.15664408818E+02  0.29427248682E+02 -0.95451878411E+02  0.10110587402E+03  0.00000000000E+00 0.  1.
         11    1    1    2    0    0 -0.85986114191E+02  0.29045994632E+02 -0.52922744849E+03  0.53695341872E+03  0.00000000000E+00 0. -1.
</event>
<event>
 7    1  0.2690635E-009  0.1103049E+03  0.7561462E-02  0.1260006E+00
         -2   -1    0    0    0  501 -0.00000000000E+00  0.00000000000E+00  0.73352265682E+02  0.73352265682E+02  0.00000000000E+00 0.  1.
          2   -1    0    0  501    0  0.00000000000E+00 -0.00000000000E+00 -0.20800368843E+03  0.20800368843E+03  0.00000000000E+00 0. -1.
         25    2    1    2    0    0  0.54920723508E+02 -0.13407271436E+02 -0.58797154931E+02  0.14933666846E+03  0.12509314258E+03 0.  0.
          5    1    3    3  502    0 -0.23181958285E+02  0.36281874138E+02 -0.28680136088E+02  0.51901832212E+02  0.41800000000E+01 0.  1.
         -5    1    3    3    0  502  0.78102681793E+02 -0.49689145574E+02 -0.30117018843E+02  0.97434836250E+02  0.41800000000E+01 0.  1.
        -11    1    1    2    0    0 -0.49032459673E+01 -0.22556793979E+02  0.10971780098E+02  0.25558378942E+02  0.00000000000E+00 0.  1.
         11    1    1    2    0    0 -0.50017477540E+02  0.35964065415E+02 -0.86826047920E+02  0.10646090671E+03  0.00000000000E+00 0. -1.
</event>
<event>
 7    1  0.2690635E-009  0.9721003E+02  0.7561462E-02  0.1286275E+00
          4   -1    0    0  501    0  0.00000000000E+00  0.00000000000E+00  0.54504746381E+02  0.54504746381E+02  0.00000000000E+00 0. -1.
         -4   -1    0    0    0  501 -0.00000000000E+00 -0.00000000000E+00 -0.26677813158E+03  0.26677813158E+03  0.00000000000E+00 0.  1.
         25    2    1    2    0    0 -0.20915793748E+02  0.61545481864E+01 -0.56196851131E+02  0.13885625110E+03  0.12509046127E+03 0.  0.
          5    1    3    3  502    0 -0.56519843595E+02  0.28442885239E+02  0.59926450855E+01  0.63693599646E+02  0.41800000000E+01 0. -1.
         -5    1    3    3    0  502  0.35604049847E+02 -0.22288337053E+02 -0.62189496216E+02  0.75162651455E+02  0.41800000000E+01 0. -1.
        -11    1    1    2    0    0  0.24380666858E+02  0.37650288819E+02 -0.10981379414E+03  0.11862137476E+03  0.00000000000E+00 0.  1.
         11    1    1    2    0    0 -0.34648731099E+01 -0.43804837006E+02 -0.46262739923E+02  0.63805252103E+02  0.00000000000E+00 0. -1.
</event>
<event>
 7    1  0.2690635E-009  0.1133419E+03  0.7561462E-02  0.1254503E+00
         -2   -1    0    0    0  501 -0.00000000000E+00  0.00000000000E+00  0.13229123268E+03  0.13229123268E+03  0.00000000000E+00 0.  1.
          2   -1    0    0  501    0  0.00000000000E+00 -0.00000000000E+00 -0.12648800151E+03  0.12648800151E+03  0.00000000000E+00 0. -1.
         25    2    1    2    0    0  0.50834517527E+02 -0.21665608551E+02  0.46726106208E+02  0.14451723850E+03  0.12509339094E+03 0.  0.
          5    1    3    3  502    0 -0.33646942468E+02 -0.14800101393E+02  0.46797386055E+02  0.59654232711E+02  0.41800000000E+01 0.  1.
         -5    1    3    3    0  502  0.84481459995E+02 -0.68655071583E+01 -0.71279847290E-01  0.84863005793E+02  0.41800000000E+01 0.  1.
        -11    1    1    2    0    0 -0.64583058865E+02  0.44318765215E+02 -0.39504311012E+02  0.87725224600E+02  0.00000000000E+00 0. -1.
         11    1    1    2    0    0  0.13748541338E+02 -0.22653156664E+02 -0.14185640236E+01  0.26536771086E+02  0.00000000000E+00 0.  1.
</event>
<event>
 7    1  0.4603544E-009  0.9671590E+02  0.7561462E-02  0.1287358E+00
          1   -1    0    0  501    0  0.00000000000E+00  0.00000000000E+00  0.97355027644E+03  0.97355027644E+03  0.00000000000E+00 0. -1.
         -1   -1    0    0    0  501 -0.00000000000E+00 -0.00000000000E+00 -0.15475729309E+02  0.15475729309E+02  0.00000000000E+00 0.  1.
         25    2    1    2    0    0  0.19999255268E+02 -0.40080773582E+02  0.67764748021E+03  0.69055024977E+03  0.12508837435E+03 0.  0.
          5    1    3    3  502    0 -0.48660448401E+02 -0.12107691442E+02  0.39968290499E+03  0.40283784873E+03  0.41800000000E+01 0.  1.
         -5    1    3    3    0  502  0.68659703668E+02 -0.27973082140E+02  0.27796457522E+03  0.28771240104E+03  0.41800000000E+01 0.  1.
        -11    1    1    2    0    0  0.17962553850E+02  0.11345864259E+02  0.92862294071E+01  0.23186548540E+02  0.00000000000E+00 0.  1.
         11    1    1    2    0    0 -0.37961809118E+02  0.28734909323E+02  0.27114083752E+03  0.27528920744E+03  0.00000000000E+00 0. -1.
</event>
<event>
 7    1  0.2690635E-009  0.1078567E+03  0.7561462E-02  0.1264591E+00
         -1   -1    0    0    0  501 -0.00000000000E+00  0.00000000000E+00  0.66738745766E+02  0.66738745766E+02  0.00000000000E+00 0.  1.
          1   -1    0    0  501    0  0.00000000000E+00 -0.00000000000E+00 -0.22110477876E+03  0.22110477876E+03  0.00000000000E+00 0. -1.
         25    2    1    2    0    0 -0.21623705719E+02 -0.25468945106E+02 -0.13458072439E+03  0.18675144874E+03  0.12509148818E+03 0.  0.
          5    1    3    3  502    0  0.51996515471E+02 -0.60260751604E+01 -0.45441623560E+02  0.69443248446E+02  0.41800000000E+01 0. -1.
         -5    1    3    3    0  502 -0.73620221190E+02 -0.19442869946E+02 -0.89139100832E+02  0.11730820030E+03  0.41800000000E+01 0. -1.
        -11    1    1    2    0    0  0.28902475575E+02 -0.23614523034E+02  0.15282878486E+02  0.40330697580E+02  0.00000000000E+00 0.  1.
         11    1    1    2    0    0 -0.72787698556E+01  0.49083468139E+02 -0.35068187085E+02  0.60761378199E+02  0.00000000000E+00 0. -1.
</event>
<event>
 7    1  0.2690635E-009  0.1031441E+03  0.7561462E-02  0.1273820E+00
         -2   -1    0    0    0  501 -0.00000000000E+00  0.00000000000E+00  0.58360240408E+02  0.58360240408E+02  0.00000000000E+00 0.  1.
          2   -1    0    0  501    0  0.00000000000E+00 -0.00000000000E+00 -0.36638311319E+03  0.36638311319E+03  0.00000000000E+00 0. -1.
         25    2    1    2    0    0 -0.78275266205E+02  0.10169315720E+02 -0.89841065522E+02  0.17305559599E+03  0.12508553062E+03 0.  0.
          5    1    3    3  502    0 -0.29551068048E+02  0.11568307568E+02  0.29840393788E+02  0.43760859957E+02  0.41800000000E+01 0.  1.
         -5    1    3    3    0  502 -0.48724198157E+02 -0.13989918479E+01 -0.11968145931E+03  0.12929473604E+03  0.41800000000E+01 0.  1.
        -11    1    1    2    0    0  0.19700834731E+02  0.42334958563E+02 -0.86569622799E+02  0.98359906452E+02  0.00000000000E+00 0. -1.
         11    1    1    2    0    0  0.58574431474E+02 -0.52504274283E+02 -0.13161218446E+03  0.15332785115E+03  0.00000000000E+00 0.  1.
</event>
<event>
 7    1  0.2690635E-009  0.2564576E+03  0.7561462E-02  0.1109290E+00
          1   -1    0    0  501    0  0.00000000000E+00  0.00000000000E+00  0.49701730282E+03  0.49701730282E+03  0.00000000000E+00 0. -1.
         -1   -1    0    0    0  501 -0.00000000000E+00 -0.00000000000E+00 -0.19415322759E+03  0.19415322759E+03  0.00000000000E+00 0.  1.
         25    2    1    2    0    0 -0.22790513950E+03  0.50796487385E+02  0.34680719902E+03  0.43639804826E+03  0.12508791906E+03 0.  0.
          5    1    3    3  502    0 -0.19904273848E+03  0.87695216423E+02  0.29303334031E+03  0.36495818070E+03  0.41800000000E+01 0.  1.
         -5    1    3    3    0  502 -0.28862401012E+02 -0.36898729037E+02  0.53773858713E+02  0.71439867565E+02  0.41800000000E+01 0.  1.
        -11    1    1    2    0    0  0.20733524188E+03 -0.71340855443E+02 -0.26480550976E+02  0.22085886842E+03  0.00000000000E+00 0. -1.
         11    1    1    2    0    0  0.20569897619E+02  0.20544368057E+02 -0.17462572810E+02  0.33913613728E+02  0.00000000000E+00 0.  1.
</event>
<event>
 7    1  0.2690635E-009  0.3423805E+03  0.7561462E-02  0.1065787E+00
         -2   -1    0    0    0  501 -0.00000000000E+00  0.00000000000E+00  0.89015378694E+02  0.89015378694E+02  0.00000000000E+00 0.  1.
          2   -1    0    0  501    0  0.00000000000E+00 -0.00000000000E+00 -0.15004211074E+04  0.15004211074E+04  0.00000000000E+00 0. -1.
         25    2    1    2    0    0 -0.17733889655E+03 -0.28379901685E+03 -0.92760328762E+03  0.99402531075E+03  0.12508993969E+03 0.  0.
          5    1    3    3  502    0 -0.11385228265E+03 -0.13071815892E+03 -0.31708092556E+03  0.36139640990E+03  0.41800000000E+01 0.  1.
         -5    1    3    3    0  502 -0.63486613893E+02 -0.15308085793E+03 -0.61052236207E+03  0.63262890085E+03  0.41800000000E+01 0.  1.
        -11    1    1    2    0    0  0.54269833452E+02  0.16820514469E+03 -0.21999792448E+03  0.28220076595E+03  0.00000000000E+00 0.  1.
         11    1    1    2    0    0  0.12306906309E+03  0.11559387216E+03 -0.26380451655E+03  0.31321040935E+03  0.00000000000E+00 0. -1.
</event>
<event>
 7    1  0.2690635E-009  0.1276874E+03  0.7561462E-02  0.1230928E+00
         -2   -1    0    0    0  501 -0.00000000000E+00  0.00000000000E+00  0.32592944979E+03  0.32592944979E+03  0.00000000000E+00 0.  1.
          2   -1    0    0  501    0  0.00000000000E+00 -0.00000000000E+00 -0.56124515074E+02  0.56124515074E+02  0.00000000000E+00 0. -1.
         25    2    1    2    0    0  0.75561696412E+02  0.85991582662E+00  0.10332537575E+03  0.17898513104E+03  0.12509690020E+03 0.  0.
          5    1    3    3  502    0  0.28673201863E+02  0.62322800355E+02  0.48833035304E+02  0.84311456435E+02  0.41800000000E+01 0. -1.
         -5    1    3    3    0  502  0.46888494549E+02 -0.61462884529E+02  0.54492340449E+02  0.94673674605E+02  0.41800000000E+01 0. -1.
        -11    1    1    2    0    0 -0.36726715969E+02 -0.39851857776E+02  0.11750535518E+03  0.12940065970E+03  0.00000000000E+00 0.  1.
         11    1    1    2    0    0 -0.38834980443E+02  0.38991941949E+02  0.48974203786E+02  0.73668174128E+02  0.00000000000E+00 0. -1.
</event>
<event>
 7    1  0.2690635E-009  0.9173372E+02  0.7561462E-02  0.1298707E+00
          2   -1    0    0  501    0  0.00000000000E+00  0.00000000000E+00  0.15944790790E+03  0.15944790790E+03  0.00000000000E+00 0. -1.
         -2   -1    0    0    0  501 -0.00000000000E+00 -0.00000000000E+00 -0.74376581119E+02  0.74376581119E+02  0.00000000000E+00 0.  1.
         25    2    1    2    0    0  0.19535877241E+02  0.11664643778E+02  0.53050571819E+02  0.13776694391E+03  0.12509058018E+03 0.  0.
          5    1    3    3  502    0  0.45112157390E+02 -0.42508057296E+02  0.78804245077E+01  0.62622800719E+02  0.41800000000E+01 0. -1.
         -5    1    3    3    0  502 -0.25576280149E+02  0.54172701074E+02  0.45170147312E+02  0.75144143192E+02  0.41800000000E+01 0. -1.
        -11    1    1    2    0    0 -0.63811541055E+01 -0.34419672025E+02 -0.18140480126E+02  0.39427274433E+02  0.00000000000E+00 0.  1.
         11    1    1    2    0    0 -0.13154723135E+02  0.22755028247E+02  0.50161235085E+02  0.56630270673E+02  0.00000000000E+00 0. -1.
</event>
<event>
 7    1  0.2690635E-009  0.1188649E+03  0.7561462E-02  0.1244982E+00
          2   -1    0    0  501    0  0.00000000000E+00  0.00000000000E+00  0.20963598212E+03  0.20963598212E+03  0.00000000000E+00 0.  1.
         -2   -1    0    0    0  501 -0.00000000000E+00 -0.00000000000E+00 -0.78724237079E+02  0.78724237079E+02  0.00000000000E+00 0. -1.
         25    2    1    2    0    0 -0.52401232628E+02 -0.12691267687E+02  0.23994141969E+02  0.13831387454E+03  0.12509217236E+03 0.  0.
          5    1    3    3  502    0 -0.15978550988E+02 -0.65851886394E+02  0.28388819672E+02  0.73587923709E+02  0.41800000000E+01 0.  1.
         -5    1    3    3    0  502 -0.36422681641E+02  0.53160618707E+02 -0.43946777029E+01  0.64725950834E+02  0.41800000000E+01 0.  1.
        -11    1    1    2    0    0 -0.23863837092E+02 -0.97266382664E+01  0.27155739182E+02  0.37436938754E+02  0.00000000000E+00 0. -1.
         11    1    1    2    0    0  0.76265069720E+02  0.22417905953E+02  0.79761863889E+02  0.11260940590E+03  0.00000000000E+00 0.  1.
</event>
<event>
 7    1  0.2690635E-009  0.8326093E+02  0.7561462E-02  0.1320044E+00
         -1   -1    0    0    0  501 -0.00000000000E+00  0.00000000000E+00  0.12477655018E+03  0.12477655018E+03  0.00000000000E+00 0.  1.
          1   -1    0    0  501    0  0.00000000000E+00 -0.00000000000E+00 -0.11734096884E+03  0.11734096884E+03  0.00000000000E+00 0. -1.
         25    2    1    2    0    0 -0.47873727534E+02 -0.15023994057E+02  0.21983637711E+02  0.13655830674E+03  0.12508907477E+03 0.  0.
          5    1    3    3  502    0  0.52845806253E+01 -0.32399270999E+02 -0.40695424496E+02  0.52452164194E+02  0.41800000000E+01 0. -1.
         -5    1    3    3    0  502 -0.53158308160E+02  0.17375276943E+02  0.62679062208E+02  0.84106142549E+02  0.41800000000E+01 0. -1.
        -11    1    1    2    0    0  0.17270403854E+01 -0.19587342629E+02  0.27763118889E+02  0.34021132112E+02  0.00000000000E+00 0.  1.
         11    1    1    2    0    0  0.46146687149E+02  0.34611336686E+02 -0.42311175262E+02  0.71538080167E+02  0.00000000000E+00 0. -1.
</event>
<event>
 7    1  0.2690635E-009  0.2024748E+03  0.7561462E-02  0.1147668E+00
          3   -1    0    0  501    0  0.00000000000E+00  0.00000000000E+00  0.66086157696E+03  0.66086157696E+03  0.00000000000E+00 0. -1.
         -3   -1    0    0    0  501 -0.00000000000E+00 -0.00000000000E+00 -0.75253205766E+02  0.75253205766E+02  0.00000000000E+00 0.  1.
         25    2    1    2    0    0  0.14350247997E+03  0.99669972116E+02  0.16522692729E+03  0.27105889509E+03  0.12508366004E+03 0.  0.
          5    1    3    3  502    0  0.39194585418E+02 -0.25715693529E+02  0.15322447881E+02  0.49495072773E+02  0.41800000000E+01 0. -1.
         -5    1    3    3    0  502  0.10430789455E+03  0.12538566564E+03  0.14990447940E+03  0.22156382232E+03  0.41800000000E+01 0. -1.
        -11    1    1    2    0    0 -0.13321857624E+03 -0.47307052108E+02  0.34365960255E+03  0.37160068441E+03  0.00000000000E+00 0.  1.
         11    1    1    2    0    0 -0.10283903729E+02 -0.52362920008E+02  0.76721841359E+02  0.93455203222E+02  0.00000000000E+00 0. -1.
</event>
<event>
 7    1  0.3310788E-009  0.1047424E+03  0.7561462E-02  0.1270628E+00
         -1   -1    0    0    0  501 -0.00000000000E+00  0.00000000000E+00  0.52258025555E+02  0.52258025555E+02  0.00000000000E+00 0.  1.
          1   -1    0    0  501    0  0.00000000000E+00 -0.00000000000E+00 -0.36326560844E+03  0.36326560844E+03  0.00000000000E+00 0. -1.
         25    2    1    2    0    0  0.28892911468E+02  0.75167071590E+01 -0.51034385135E+02  0.13835755573E+03  0.12508798320E+03 0.  0.
          5    1    3    3  502    0  0.60376282474E+02 -0.30260914208E+02 -0.57223076993E+02  0.88616992471E+02  0.41800000000E+01 0.  1.
         -5    1    3    3    0  502 -0.31483371006E+02  0.37777621367E+02  0.61886918573E+01  0.49740563255E+02  0.41800000000E+01 0.  1.
        -11    1    1    2    0    0 -0.59510734421E+02  0.42568488491E+01 -0.20118208601E+03  0.20984251239E+03  0.00000000000E+00 0.  1.
         11    1    1    2    0    0  0.30617822953E+02 -0.11773556008E+02 -0.58791111738E+02  0.67323565881E+02  0.00000000000E+00 0. -1.
</event>
<event>
 7    1  0.2690635E-009  0.1741689E+03  0.7561462E-02  0.1173569E+00
          2   -1    0    0  501    0  0.00000000000E+00  0.00000000000E+00  0.62936098221E+03  0.62936098221E+03  0.00000000000E+00 0.  1.
         -2   -1    0    0    0  501 -0.00000000000E+00 -0.00000000000E+00 -0.55984380861E+02  0.55984380861E+02  0.00000000000E+00 0. -1.
         25    2    1    2    0    0 -0.66552538857E+02 -0.14678546586E+03  0.25960391941E+03  0.33017674045E+03  0.12508905445E+03 0.  0.
          5    1    3    3  502    0 -0.14842118012E+02  0.12250009317E+02  0.89342724797E+02  0.91487409350E+02  0.41800000000E+01 0. -1.
         -5    1    3    3    0  502 -0.51710420844E+02 -0.15903547518E+03  0.17026119462E+03  0.23868933110E+03  0.41800000000E+01 0. -1.
        -11    1    1    2    0    0  0.41570310541E+02  0.82231791700E+02  0.22082983794E+03  0.23928220913E+03  0.00000000000E+00 0.  1.
         11    1    1    2    0    0  0.24982228315E+02  0.64553674164E+02  0.92942843995E+02  0.11588641348E+03  0.00000000000E+00 0. -1.
</event>
<event>
 7    1  0.2690635E-009  0.1017590E+03  0.7561462E-02  0.1276640E+00
          3   -1    0    0  501    0  0.00000000000E+00  0.00000000000E+00  0.80207748208E+02  0.80207748208E+02  0.00000000000E+00 0. -1.
         -3   -1    0    0    0  501 -0.00000000000E+00 -0.00000000000E+00 -0.17580216074E+03  0.17580216074E+03  0.00000000000E+00 0.  1.
         25    2    1    2    0    0  0.46735517636E+02 -0.30388367281E+02 -0.56731320788E+02  0.14823466517E+03  0.12508961477E+03 0.  0.
          5    1    3    3  502    0  0.75042307169E+02  0.21082415506E+02 -0.32300295682E+02  0.84478385460E+02  0.41800000000E+01 0. -1.
         -5    1    3    3    0  502 -0.28306789533E+02 -0.51470782787E+02 -0.24431025106E+02  0.63756279708E+02  0.41800000000E+01 0. -1.
        -11    1    1    2    0    0 -0.28830376652E+02 -0.26897384253E+01  0.21905401126E+02  0.36308014393E+02  0.00000000000E+00 0. -1.
         11    1    1    2    0    0 -0.17905140984E+02  0.33078105707E+02 -0.60768492874E+02  0.71467229392E+02  0.00000000000E+00 0.  1.
</event>
<event>
 7    1  0.2690635E-009  0.1148735E+03  0.7561462E-02  0.1251802E+00
         -1   -1    0    0    0  501 -0.00000000000E+00  0.00000000000E+00  0.83533681759E+02  0.83533681759E+02  0.00000000000E+00 0.  1.
          1   -1    0    0  501    0  0.00000000000E+00 -0.00000000000E+00 -0.28935226345E+03  0.28935226345E+03  0.00000000000E+00 0. -1.
         25    2    1    2    0    0 -0.33794895295E+02 -0.65764655723E+02 -0.11901165932E+02  0.14579572883E+03  0.12509065474E+03 0.  0.
          5    1    3    3  502    0  0.20562987795E+02  0.28972213690E+02 -0.64994906341E+01  0.36358512231E+02  0.41800000000E+01 0. -1.
         -5    1    3    3    0  502 -0.54357883090E+02 -0.94736869413E+02 -0.54016752979E+01  0.10943721660E+03  0.41800000000E+01 0. -1.
        -11    1    1    2    0    0 -0.63634945867E+01  0.30716100218E+02 -0.16190108989E+03  0.16491190310E+03  0.00000000000E+00 0. -1.
         11    1    1    2    0    0  0.40158389881E+02  0.35048555505E+02 -0.32016325870E+02  0.62178313286E+02  0.00000000000E+00 0.  1.
</event>
<event>
 7    1  0.2690635E-009  0.2532482E+03  0.7561462E-02  0.1111269E+00
         -2   -1    0    0    0  501 -0.00000000000E+00  0.00000000000E+00  0.64160720422E+02  0.64160720422E+02  0.00000000000E+00 0.  1.
          2   -1    0    0  501    0  0.00000000000E+00 -0.00000000000E+00 -0.11314385716E+04  0.11314385716E+04  0.00000000000E+00 0. -1.
         25    2    1    2    0    0  0.19696710171E+02 -0.24397208700E+03 -0.60736431970E+03  0.66667160177E+03  0.12509703488E+03 0.  0.
          5    1    3    3  502    0 -0.31695939335E+02 -0.91291368599E+02 -0.34910458208E+03  0.36225712993E+03  0.41800000000E+01 0.  1.
         -5    1    3    3    0  502  0.51392649506E+02 -0.15268071840E+03 -0.25825973762E+03  0.30441447184E+03  0.41800000000E+01 0.  1.
        -11    1    1    2    0    0 -0.19543004863E+02  0.38796093059E+02 -0.15823219403E+03  0.16408684623E+03  0.00000000000E+00 0.  1.
         11    1    1    2    0    0 -0.15370530731E+00  0.20517599394E+03 -0.30168133748E+03  0.36484084406E+03  0.00000000000E+00 0. -1.
</event>
<event>
 7    1  0.2690635E-009  0.1472017E+03  0.7561462E-02  0.1203954E+00
         -2   -1    0    0    0  501 -0.00000000000E+00  0.00000000000E+00  0.74302197237E+02  0.74302197237E+02  0.00000000000E+00 0.  1.
          2   -1    0    0  501    0  0.00000000000E+00 -0.00000000000E+00 -0.39508195042E+03  0.39508195042E+03  0.00000000000E+00 0. -1.
         25    2    1    2    0    0  0.12996917536E+03  0.85030174285E+01 -0.21315397817E+03  0.27936862218E+03  0.12509164960E+03 0.  0.
          5    1    3    3  502    0 -0.76968298391E+00  0.26663322589E+02  0.18314060126E+01  0.27061996072E+02  0.41800000000E+01 0. -1.
         -5    1    3    3    0  502  0.13073885834E+03 -0.18160305161E+02 -0.21498538419E+03  0.25230662611E+03  0.41800000000E+01 0. -1.
        -11    1    1    2    0    0 -0.31169680664E+02 -0.18158188351E+02 -0.78769133096E+02  0.86636280654E+02  0.00000000000E+00 0. -1.
         11    1    1    2    0    0 -0.98799494696E+02  0.96551709225E+01 -0.28856641913E+02  0.10337924482E+03  0.00000000000E+00 0.  1.
</event>
<event>
 7    1  0.2690635E-009  0.1770473E+03  0.7561462E-02  0.1170692E+00
          1   -1    0    0  501    0  0.00000000000E+00  0.00000000000E+00  0.23608096697E+03  0.23608096697E+03  0.00000000000E+00 0.  1.
         -1   -1    0    0    0  501 -0.00000000000E+00 -0.00000000000E+00 -0.16759692732E+03  0.16759692732E+03  0.00000000000E+00 0. -1.
         25    2    1    2    0    0  0.98240750361E+02 -0.12134772691E+03 -0.21661281466E+02  0.20123226010E+03  0.12509474623E+03 0.  0.
          5    1    3    3  502    0  0.15732606049E+02 -0.95656298952E+02 -0.51327497413E+02  0.10977079217E+03  0.41800000000E+01 0.  1.
         -5    1    3    3    0  502  0.82508144312E+02 -0.25691427955E+02  0.29666215947E+02  0.91461467935E+02  0.41800000000E+01 0.  1.
        -11    1    1    2    0    0 -0.10796789158E+03  0.11871590956E+03  0.99401929127E+02  0.18876248650E+03  0.00000000000E+00 0.  1.
         11    1    1    2    0    0  0.97271412217E+01  0.26318173488E+01 -0.92566080151E+01  0.13683147695E+02  0.00000000000E+00 0. -1.
</event>
<event>
 7    1  0.2690635E-009  0.1138194E+03  0.7561462E-02  0.1253656E+00
         -3   -1    0    0    0  501 -0.00000000000E+00  0.00000000000E+00  0.56013475662E+02  0.56013475662E+02  0.00000000000E+00 0.  1.
          3   -1    0    0  501    0  0.00000000000E+00 -0.00000000000E+00 -0.38851378668E+03  0.38851378668E+03  0.00000000000E+00 0. -1.
         25    2    1    2    0    0  0.77610440968E+02 -0.14688265863E+02 -0.27469783609E+03  0.31200287859E+03  0.12509104443E+03 0.  0.
          5    1    3    3  502    0  0.30558183485E+02  0.53983378896E+02 -0.14581856146E+03  0.15851981908E+03  0.41800000000E+01 0.  1.
         -5    1    3    3    0  502  0.47052257483E+02 -0.68671644759E+02 -0.12887927463E+03  0.15348305951E+03  0.41800000000E+01 0.  1.
        -11    1    1    2    0    0 -0.71994992473E+01  0.89291422652E+01  0.22691438898E+02  0.25425651816E+02  0.00000000000E+00 0.  1.
         11    1    1    2    0    0 -0.70410941721E+02  0.57591235979E+01 -0.80493913828E+02  0.10709873193E+03  0.00000000000E+00 0. -1.
</event>
<event>
 7    1  0.2690635E-009  0.1247430E+03  0.7561462E-02  0.1235472E+00
          1   -1    0    0  501    0  0.00000000000E+00  0.00000000000E+00  0.45153208439E+02  0.45153208439E+02  0.00000000000E+00 0. -1.
         -1   -1    0    0    0  501 -0.00000000000E+00 -0.00000000000E+00 -0.40700290352E+03  0.40700290352E+03  0.00000000000E+00 0.  1.
         25    2    1    2    0    0  0.10567712409E+02 -0.74978055905E+02 -0.24803077795E+03  0.28792334445E+03  0.12508876870E+03 0.  0.
          5    1    3    3  502    0 -0.10793396956E+02  0.31524076682E+02 -0.90479434445E+02  0.96510441331E+02  0.41800000000E+01 0. -1.
         -5    1    3    3    0  502  0.21361109365E+02 -0.10650213259E+03 -0.15755134350E+03  0.19141290311E+03  0.41800000000E+01 0. -1.
        -11    1    1    2    0    0  0.32936730117E+02  0.35929757311E+02 -0.17941709370E+02  0.51939200864E+02  0.00000000000E+00 0. -1.
         11    1    1    2    0    0 -0.43504442526E+02  0.39048298594E+02 -0.95877207762E+02  0.11229356665E+03  0.00000000000E+00 0.  1.
</event>
<event>
 7    1  0.2690635E-009  0.1032516E+03  0.7561462E-02  0.1273603E+00
         -2   -1    0    0    0  501 -0.00000000000E+00  0.00000000000E+00  0.10303660089E+02  0.10303660089E+02  0.00000000000E+00 0.  1.
          2   -1    0    0  501    0  0.00000000000E+00 -0.00000000000E+00 -0.11733821023E+04  0.11733821023E+04  0.00000000000E+00 0. -1.
         25    2    1    2    0    0  0.10281327681E+02  0.75547655563E+01 -0.68774313597E+03  0.69914294576E+03  0.12508979712E+03 0.  0.
          5    1    3    3  502    0  0.25349555110E+01 -0.52082375951E+02 -0.47964207434E+03  0.48248626070E+03  0.41800000000E+01 0.  1.
         -5    1    3    3    0  502  0.77463721699E+01  0.59637141508E+02 -0.20810106163E+03  0.21665668506E+03  0.41800000000E+01 0.  1.
        -11    1    1    2    0    0  0.41592949831E+02 -0.58872016670E+01 -0.22393069550E+03  0.22783675956E+03  0.00000000000E+00 0. -1.
         11    1    1    2    0    0 -0.51874277512E+02 -0.16675638894E+01 -0.25140461070E+03  0.25670605704E+03  0.00000000000E+00 0.  1.
</event>
<event>
 7    1  0.2990650E-009  0.1694262E+03  0.7561462E-02  0.1178448E+00
         -2   -1    0    0    0  501 -0.00000000000E+00  0.00000000000E+00  0.52115472325E+02  0.52115472325E+02  0.00000000000E+00 0.  1.
          2   -1    0    0  501    0  0.00000000000E+00 -0.00000000000E+00 -0.72423909673E+03  0.72423909673E+03  0.00000000000E+00 0. -1.
         25    2    1    2    0    0 -0.76028579500E+02 -0.12563581477E+03 -0.22209711642E+03  0.29417480016E+03  0.12508789339E+03 0.  0.
          5    1    3    3  502    0  0.31757004296E+02 -0.44769811651E+02 -0.89545027933E+02  0.10511245304E+03  0.41800000000E+01 0. -1.
         -5    1    3    3    0  502 -0.10778558380E+03 -0.80866003117E+02 -0.13255208848E+03  0.18906234711E+03  0.41800000000E+01 0. -1.
        -11    1    1    2    0    0  0.60980315571E+02  0.77837968377E+02 -0.16174416184E+03  0.18957458189E+03  0.00000000000E+00 0.  1.
         11    1    1    2    0    0  0.15048263928E+02  0.47797846391E+02 -0.28828234615E+03  0.29260518702E+03  0.00000000000E+00 0. -1.
</event>
<event>
 7    1  0.2690635E-009  0.7737132E+02  0.7561462E-02  0.1336681E+00
          1   -1    0    0  501    0  0.00000000000E+00  0.00000000000E+00  0.84102440542E+02  0.84102440542E+02  0.00000000000E+00 0. -1.
         -1   -1    0    0    0  501 -0.00000000000E+00 -0.00000000000E+00 -0.17123052100E+03  0.17123052100E+03  0.00000000000E+00 0.  1.
         25    2    1    2    0    0 -0.49713734513E+02  0.99702599195E+00 -0.37911616632E+02  0.13984587105E+03  0.12508847874E+03 0.  0.
          5    1    3    3  502    0 -0.34412972529E+02 -0.44530107978E+02 -0.63756510515E+02  0.85144278891E+02  0.41800000000E+01 0. -1.
         -5    1    3    3    0  502 -0.15300761984E+02  0.45527133970E+02  0.25844893883E+02  0.54701592158E+02  0.41800000000E+01 0. -1.
        -11    1    1    2    0    0  0.31287416719E+02  0.23320560881E+01 -0.76335642773E+02  0.82531638104E+02  0.00000000000E+00 0.  1.
         11    1    1    2    0    0  0.18426317794E+02 -0.33290820800E+01  0.27119178951E+02  0.32955452385E+02  0.00000000000E+00 0. -1.
</event>
<event>
 7    1  0.2690635E-009  0.1044775E+03  0.7561462E-02  0.1271152E+00
         -2   -1    0    0    0  501 -0.00000000000E+00  0.00000000000E+00  0.97976305520E+02  0.97976305520E+02  0.00000000000E+00 0.  1.
          2   -1    0    0  501    0  0.00000000000E+00 -0.00000000000E+00 -0.22860919719E+03  0.22860919719E+03  0.00000000000E+00 0. -1.
         25    2    1    2    0    0 -0.14882138361E+02  0.12629063731E+02 -0.17744472394E+03  0.21798517239E+03  0.12509969638E+03 0.  0.
          5    1    3    3  502    0  0.44274249656E+02  0.37687927546E+02 -0.57643769448E+02  0.81980885708E+02  0.41800000000E+01 0.  1.
         -5    1    3    3    0  502 -0.59156388017E+02 -0.25058863814E+02 -0.11980095450E+03  0.13600428669E+03  0.41800000000E+01 0.  1.
        -11    1    1    2    0    0  0.49957789107E+02 -0.37445367532E+01  0.85042776229E+00  0.50105144200E+02  0.00000000000E+00 0.  1.
         11    1    1    2    0    0 -0.35075650746E+02 -0.88845269782E+01  0.45961404507E+02  0.58495186120E+02  0.00000000000E+00 0. -1.
</event>
<event>
 7    1  0.3073652E-009  0.9875327E+02  0.7561462E-02  0.1282940E+00
         -1   -1    0    0    0  501 -0.00000000000E+00  0.00000000000E+00  0.26754993615E+02  0.26754993615E+02  0.00000000000E+00 0.  1.
          1   -1    0    0  501    0  0.00000000000E+00 -0.00000000000E+00 -0.57040583268E+03  0.57040583268E+03  0.00000000000E+00 0. -1.
         25    2    1    2    0    0 -0.18897117894E+02 -0.50436209092E+02 -0.36215878428E+03  0.38692052733E+03  0.12509035606E+03 0.  0.
          5    1    3    3  502    0 -0.71816966731E+02 -0.18917780240E+02 -0.19162102689E+03  0.20555206024E+03  0.41800000000E+01 0. -1.
         -5    1    3    3    0  502  0.52919848837E+02 -0.31518428853E+02 -0.17053775739E+03  0.18136846709E+03  0.41800000000E+01 0. -1.
        -11    1    1    2    0    0 -0.78918764356E+01  0.82863805049E+01  0.82039034958E+01  0.14080122447E+02  0.00000000000E+00 0.  1.
         11    1    1    2    0    0  0.26788994330E+02  0.42149828587E+02 -0.18969595828E+03  0.19616017652E+03  0.00000000000E+00 0. -1.
</event>
<event>
 7    1  0.2690635E-009  0.9406493E+02  0.7561462E-02  0.1293296E+00
          1   -1    0    0  501    0  0.00000000000E+00  0.00000000000E+00  0.16770240224E+03  0.16770240224E+03  0.00000000000E+00 0. -1.
         -1   -1    0    0    0  501 -0.00000000000E+00 -0.00000000000E+00 -0.10146697474E+03  0.10146697474E+03  0.00000000000E+00 0.  1.
         25    2    1    2    0    0 -0.82155525766E+01  0.37238519470E+02 -0.25328236598E+02  0.13320756326E+03  0.12509409540E+03 0.  0.
          5    1    3    3  502    0  0.12780492578E+02  0.57601693183E+02  0.33065139975E+02  0.67764828117E+02  0.41800000000E+01 0. -1.
         -5    1    3    3    0  502 -0.20996045155E+02 -0.20363173713E+02 -0.58393376573E+02  0.65442735146E+02  0.41800000000E+01 0. -1.
        -11    1    1    2    0    0 -0.41228691125E+02 -0.80205465736E+01  0.29035297554E+02  0.51060578173E+02  0.00000000000E+00 0.  1.
         11    1    1    2    0    0  0.49444243702E+02 -0.29217972896E+02  0.62528366543E+02  0.84901235551E+02  0.00000000000E+00 0. -1.
</event>
<event>
 7    1  0.2690635E-009  0.1694360E+03  0.7561462E-02  0.1178437E+00
         -2   -1    0    0    0  501 -0.00000000000E+00  0.00000000000E+00  0.11071956071E+03  0.11071956071E+03  0.00000000000E+00 0.  1.
          2   -1    0    0  501    0  0.00000000000E+00 -0.00000000000E+00 -0.28969279638E+03  0.28969279638E+03  0.00000000000E+00 0. -1.
         25    2    1    2    0    0  0.11425775749E+03  0.79169148552E+02 -0.12560225063E+03  0.22527060144E+03  0.12509328232E+03 0.  0.
          5    1    3    3  502    0  0.13681286112E+03  0.67942135427E+02 -0.78749846798E+02  0.17190957945E+03  0.41800000000E+01 0.  1.
         -5    1    3    3    0  502 -0.22555103633E+02  0.11227013125E+02 -0.46852403834E+02  0.53361021997E+02  0.41800000000E+01 0.  1.
        -11    1    1    2    0    0 -0.20743467774E+02 -0.62085782883E+02 -0.45571883964E+02  0.79760469529E+02  0.00000000000E+00 0. -1.
         11    1    1    2    0    0 -0.93514289716E+02 -0.17083365669E+02 -0.77991010665E+01  0.95381286116E+02  0.00000000000E+00 0.  1.
</event>
<event>
 7    1  0.2690635E-009  0.1458379E+03  0.7561462E-02  0.1205683E+00
          1   -1    0    0  501    0  0.00000000000E+00  0.00000000000E+00  0.11665967558E+04  0.11665967558E+04  0.00000000000E+00 0. -1.
         -1   -1    0    0    0  501 -0.00000000000E+00 -0.00000000000E+00 -0.23135795557E+02  0.23135795557E+02  0.00000000000E+00 0.  1.
         25    2    1    2    0    0  0.10035246445E+03 -0.71969278155E+02  0.47592871709E+03  0.50734930588E+03  0.12507989569E+03 0.  0.
          5    1    3    3  502    0  0.71672970515E+02  0.76859985703E+00  0.36236162089E+03  0.36940631037E+03  0.41800000000E+01 0. -1.
         -5    1    3    3    0  502  0.28679493938E+02 -0.72737878012E+02  0.11356709620E+03  0.13794299551E+03  0.41800000000E+01 0. -1.
        -11    1    1    2    0    0  0.39766890801E+00  0.33857715125E+02  0.15590488048E+03  0.15953944582E+03  0.00000000000E+00 0. -1.
         11    1    1    2    0    0 -0.10075013336E+03  0.38111563030E+02  0.51162736267E+03  0.52284379966E+03  0.00000000000E+00 0.  1.
</event>
<event>
 7    1  0.2690635E-009  0.1127231E+03  0.7561462E-02  0.1255609E+00
          1   -1    0    0  501    0  0.00000000000E+00  0.00000000000E+00  0.75259584411E+02  0.75259584411E+02  0.00000000000E+00 0. -1.
         -1   -1    0    0    0  501 -0.00000000000E+00 -0.00000000000E+00 -0.17461626388E+03  0.17461626388E+03  0.00000000000E+00 0.  1.
         25    2    1    2    0    0  0.28603136862E+02 -0.25016265817E+02 -0.62638147597E+02  0.14496049412E+03  0.12508418895E+03 0.  0.
          5    1    3    3  502    0 -0.49086322524E+02 -0.10929105095E+01 -0.21574886847E+02  0.53792282484E+02  0.41800000000E+01 0. -1.
         -5    1    3    3    0  502  0.77689459387E+02 -0.23923355308E+02 -0.41063260750E+02  0.91168211633E+02  0.41800000000E+01 0. -1.
        -11    1    1    2    0    0  0.30439822602E+02  0.17874463000E+02 -0.27466209832E+02  0.44726635354E+02  0.00000000000E+00 0.  1.
         11    1    1    2    0    0 -0.59042959465E+02  0.71418028173E+01 -0.92523220388E+01  0.60188718818E+02  0.00000000000E+00 0. -1.
</event>
<event>
 7    1  0.2690635E-009  0.1871288E+03  0.7561462E-02  0.1161077E+00
         -1   -1    0    0    0  501 -0.00000000000E+00  0.00000000000E+00  0.46953030549E+02  0.46953030549E+02  0.00000000000E+00 0.  1.
          1   -1    0    0  501    0  0.00000000000E+00 -0.00000000000E+00 -0.90327792826E+03  0.90327792826E+03  0.00000000000E+00 0. -1.
         25    2    1    2    0    0 -0.15898196134E+03 -0.21049729895E+02 -0.60919985214E+03  0.64225433606E+03  0.12509123542E+03 0.  0.
          5    1    3    3  502    0 -0.95498753206E+02 -0.73318059044E+02 -0.33776879295E+03  0.35860950843E+03  0.41800000000E+01 0. -1.
         -5    1    3    3    0  502 -0.63483208132E+02  0.52268329149E+02 -0.27143105919E+03  0.28364482763E+03  0.41800000000E+01 0. -1.
        -11    1    1    2    0    0  0.32459548076E+02  0.30544683619E+02 -0.12154387929E+03  0.12945854375E+03  0.00000000000E+00 0. -1.
         11    1    1    2    0    0  0.12652241326E+03 -0.94949537240E+01 -0.12558116629E+03  0.17851807900E+03  0.00000000000E+00 0.  1.
</event>
<event>
 7    1  0.2690635E-009  0.1294577E+03  0.7561462E-02  0.1228263E+00
         -2   -1    0    0    0  501 -0.00000000000E+00  0.00000000000E+00  0.82340944653E+02  0.82340944653E+02  0.00000000000E+00 0.  1.
          2   -1    0    0  501    0  0.00000000000E+00 -0.00000000000E+00 -0.29805763010E+03  0.29805763010E+03  0.00000000000E+00 0. -1.
         25    2    1    2    0    0  0.68990258155E+02  0.14226186665E+01 -0.10654620746E+02  0.14325751127E+03  0.12509002369E+03 0.  0.
          5    1    3    3  502    0  0.37992675955E+02  0.61360768123E+02 -0.19997878488E+02  0.75006498618E+02  0.41800000000E+01 0. -1.
         -5    1    3    3    0  502  0.30997582200E+02 -0.59938149456E+02  0.93432577417E+01  0.68251012650E+02  0.41800000000E+01 0. -1.
        -11    1    1    2    0    0 -0.32466234765E+02 -0.49157048529E+02 -0.96968644277E+02  0.11346096154E+03  0.00000000000E+00 0. -1.
         11    1    1    2    0    0 -0.36524023391E+02  0.47734429863E+02 -0.10809342042E+03  0.12368010195E+03  0.00000000000E+00 0.  1.
</event>
<event>
 7    1  0.2690635E-009  0.1773847E+03  0.7561462E-02  0.1170358E+00
         -2   -1    0    0    0  501 -0.00000000000E+00  0.00000000000E+00  0.63316606806E+02  0.63316606806E+02  0.00000000000E+00 0.  1.
          2   -1    0    0  501    0  0.00000000000E+00 -0.00000000000E+00 -0.81024746221E+03  0.81024746221E+03  0.00000000000E+00 0. -1.
         25    2    1    2    0    0 -0.79014875160E+02  0.11644643550E+03 -0.12003211037E+03  0.22329263886E+03  0.12509505270E+03 0.  0.
          5    1    3    3  502    0  0.19926345457E+02 -0.13221938203E+02 -0.87860558451E+01  0.25817553533E+02  0.41800000000E+01 0.  1.
         -5    1    3    3    0  502 -0.98941220617E+02  0.12966837371E+03 -0.11124605452E+03  0.19747508532E+03  0.41800000000E+01 0.  1.
        -11    1    1    2    0    0  0.77223774129E+02 -0.33182542370E+02 -0.39574250799E+03  0.40456980243E+03  0.00000000000E+00 0. -1.
         11    1    1    2    0    0  0.17911010316E+01 -0.83263893132E+02 -0.23115623705E+03  0.24570162773E+03  0.00000000000E+00 0.  1.
</event>
<event>
 7    1  0.2690635E-009  0.8722277E+02  0.7561462E-02  0.1309720E+00
          2   -1    0    0  501    0  0.00000000000E+00  0.00000000000E+00  0.15082694860E+03  0.15082694860E+03  0.00000000000E+00 0. -1.
         -2   -1    0    0    0  501 -0.00000000000E+00 -0.00000000000E+00 -0.86577112196E+02  0.86577112196E+02  0.00000000000E+00 0.  1.
         25    2    1    2    0    0  0.40413547671E+01 -0.27924618501E+02  0.59144045671E+02  0.14120758320E+03  0.12508175946E+03 0.  0.
          5    1    3    3  502    0  0.61357703663E+02 -0.13452988308E+02  0.90339108306E+01  0.63599014443E+02  0.41800000000E+01 0.  1.
         -5    1    3    3    0  502 -0.57316348896E+02 -0.14471630193E+02  0.50110134841E+02  0.77608568760E+02  0.41800000000E+01 0.  1.
        -11    1    1    2    0    0 -0.16619186561E+02 -0.46937826628E+01  0.41974611049E+02  0.45388290675E+02  0.00000000000E+00 0. -1.
         11    1    1    2    0    0  0.12577831794E+02  0.32618401164E+02 -0.36868820312E+02  0.50808186922E+02  0.00000000000E+00 0.  1.
</event>
<event>
 7    1  0.2690635E-009  0.4288375E+03  0.7561462E-02  0.1034228E+00
         -2   -1    0    0    0  501 -0.00000000000E+00  0.00000000000E+00  0.32222934454E+03  0.32222934454E+03  0.00000000000E+00 0.  1.
          2   -1    0    0  501    0  0.00000000000E+00 -0.00000000000E+00 -0.83617645863E+03  0.83617645863E+03  0.00000000000E+00 0. -1.
         25    2    1    2    0    0  0.36401922560E+03  0.21024042124E+03 -0.57579470459E+03  0.72380885250E+03  0.12509469131E+03 0.  0.
          5    1    3    3  502    0  0.14913719524E+02  0.48403856649E+02 -0.97297166615E+02  0.10977050332E+03  0.41800000000E+01 0. -1.
         -5    1    3    3    0  502  0.34910550608E+03  0.16183656459E+03 -0.47849753798E+03  0.61403834918E+03  0.41800000000E+01 0. -1.
        -11    1    1    2    0    0 -0.18030491586E+03 -0.12575754867E+03  0.74193484547E+02  0.23201184642E+03  0.00000000000E+00 0.  1.
         11    1    1    2    0    0 -0.18371430975E+03 -0.84482872562E+02 -0.12345894046E+02  0.20258510424E+03  0.00000000000E+00 0. -1.
</event>
<event>
 7    1  0.2690635E-009  0.1193067E+03  0.7561462E-02  0.1244245E+00
          3   -1    0    0  501    0  0.00000000000E+00  0.00000000000E+00  0.69498233871E+03  0.69498233871E+03  0.00000000000E+00 0. -1.
         -3   -1    0    0    0  501 -0.00000000000E+00 -0.00000000000E+00 -0.23665471953E+02  0.23665471953E+02  0.00000000000E+00 0.  1.
         25    2    1    2    0    0  0.27867536171E+01  0.67299675005E+02  0.41687964050E+03  0.44042355862E+03  0.12508902459E+03 0.  0.
          5    1    3    3  502    0 -0.51088452478E+02  0.88275946438E+01  0.89640211181E+02  0.10363781291E+03  0.41800000000E+01 0.  1.
         -5    1    3    3    0  502  0.53875206095E+02  0.58472080361E+02  0.32723942932E+03  0.33678574571E+03  0.41800000000E+01 0.  1.
        -11    1    1    2    0    0  0.32652723520E+02 -0.20351041829E+01  0.12279261733E+03  0.12707623253E+03  0.00000000000E+00 0. -1.
         11    1    1    2    0    0 -0.35439477137E+02 -0.65264570822E+02  0.13164460892E+03  0.15114801951E+03  0.00000000000E+00 0.  1.
</event>
<event>
 7    1  0.2690635E-009  0.1341164E+03  0.7561462E-02  0.1221473E+00
          3   -1    0    0  501    0  0.00000000000E+00  0.00000000000E+00  0.19609689113E+03  0.19609689113E+03  0.00000000000E+00 0. -1.
         -3   -1    0    0    0  501 -0.00000000000E+00 -0.00000000000E+00 -0.12190570129E+03  0.12190570129E+03  0.00000000000E+00 0.  1.
         25    2    1    2    0    0  0.10317786055E+03  0.35615122447E+02  0.27694195455E+02  0.16830705718E+03  0.12508472800E+03 0.  0.
          5    1    3    3  502    0  0.24280802596E+02  0.57501969048E+02 -0.28672743797E+02  0.68815931701E+02  0.41800000000E+01 0. -1.
         -5    1    3    3    0  502  0.78897057958E+02 -0.21886846601E+02  0.56366939252E+02  0.99491125479E+02  0.41800000000E+01 0. -1.
        -11    1    1    2    0    0 -0.75827056202E+02  0.35630979904E+01 -0.90242285858E+01  0.76445240671E+02  0.00000000000E+00 0.  1.
         11    1    1    2    0    0 -0.27350804352E+02 -0.39178220437E+02  0.55521222970E+02  0.73250294575E+02  0.00000000000E+00 0. -1.
</event>
<event>
 7    1  0.2690635E-009  0.1263543E+03  0.7561462E-02  0.1232968E+00
          2   -1    0    0  501    0  0.00000000000E+00  0.00000000000E+00  0.94689201038E+03  0.94689201038E+03  0.00000000000E+00 0. -1.
         -2   -1    0    0    0  501 -0.00000000000E+00 -0.00000000000E+00 -0.22441265401E+02  0.22441265401E+02  0.00000000000E+00 0.  1.
         25    2    1    2    0    0  0.26529525741E+02 -0.86647389596E+02  0.63296584176E+03  0.65154020852E+03  0.12508917069E+03 0.  0.
          5    1    3    3  502    0 -0.46980134780E+02 -0.45996622524E+02  0.35754993872E+03  0.36356877400E+03  0.41800000000E+01 0. -1.
         -5    1    3    3    0  502  0.73509660521E+02 -0.40650767073E+02  0.27541590304E+03  0.28797143452E+03  0.41800000000E+01 0. -1.
        -11    1    1    2    0    0 -0.51454300818E+01  0.80232438117E+02  0.28251669937E+03  0.29373356124E+03  0.00000000000E+00 0. -1.
         11    1    1    2    0    0 -0.21384095659E+02  0.64149514787E+01  0.89682038501E+01  0.24059506020E+02  0.00000000000E+00 0.  1.
</event>
<event>
 7    1  0.2690635E-009  0.1380948E+03  0.7561462E-02  0.1215916E+00
          1   -1    0    0  501    0  0.00000000000E+00  0.00000000000E+00  0.12117315995E+04  0.12117315995E+04  0.00000000000E+00 0. -1.
         -1   -1    0    0    0  501 -0.00000000000E+00 -0.00000000000E+00 -0.20580567656E+02  0.20580567656E+02  0.00000000000E+00 0.  1.
         25    2    1    2    0    0 -0.79523388847E+02  0.80296356705E+02  0.55506304892E+03  0.58010050596E+03  0.12510049742E+03 0.  0.
          5    1    3    3  502    0 -0.44014440614E+02 -0.26866827986E+01  0.38485187464E+03  0.38739247161E+03  0.41800000000E+01 0.  1.
         -5    1    3    3    0  502 -0.35508948233E+02  0.82983039503E+02  0.17021117429E+03  0.19270803435E+03  0.41800000000E+01 0.  1.
        -11    1    1    2    0    0  0.41120693616E+02 -0.92511799057E+02  0.39435990066E+03  0.40714748637E+03  0.00000000000E+00 0.  1.
         11    1    1    2    0    0  0.38402695231E+02  0.12215442353E+02  0.24172808222E+03  0.24506417479E+03  0.00000000000E+00 0. -1.
</event>
<event>
 7    1  0.4009857E-009  0.1068926E+03  0.7561462E-02  0.1266435E+00
         -1   -1    0    0    0  501 -0.00000000000E+00  0.00000000000E+00  0.17041627863E+02  0.17041627863E+02  0.00000000000E+00 0.  1.
          1   -1    0    0  501    0  0.00000000000E+00 -0.00000000000E+00 -0.11612526415E+04  0.11612526415E+04  0.00000000000E+00 0. -1.
         25    2    1    2    0    0 -0.14186641027E+02  0.87855484323E+02 -0.65255670060E+03  0.67037149115E+03  0.12509133359E+03 0.  0.
          5    1    3    3  502    0 -0.31358329281E+01  0.34359868384E+02 -0.57138976414E+03  0.57244577819E+03  0.41800000000E+01 0.  1.
         -5    1    3    3    0  502 -0.11050808099E+02  0.53495615939E+02 -0.81166936456E+02  0.97925712956E+02  0.41800000000E+01 0.  1.
        -11    1    1    2    0    0 -0.31544900264E+02 -0.85235959382E+01 -0.84486513648E+02  0.90585337714E+02  0.00000000000E+00 0.  1.
         11    1    1    2    0    0  0.45731541291E+02 -0.79331888385E+02 -0.40716779942E+03  0.41733744053E+03  0.00000000000E+00 0. -1.
</event>
<event>
 7    1  0.3269322E-009  0.1609745E+03  0.7561462E-02  0.1187601E+00
          1   -1    0    0  501    0  0.00000000000E+00  0.00000000000E+00  0.11476594926E+04  0.11476594926E+04  0.00000000000E+00 0. -1.
         -1   -1    0    0    0  501 -0.00000000000E+00 -0.00000000000E+00 -0.23952318406E+02  0.23952318406E+02  0.00000000000E+00 0.  1.
         25    2    1    2    0    0 -0.99492605481E+02  0.75516225657E+02  0.60456153005E+03  0.62987599565E+03  0.12509055674E+03 0.  0.
          5    1    3    3  502    0  0.25779848974E+02  0.33518811380E+02  0.19233058107E+03  0.19696861716E+03  0.41800000000E+01 0. -1.
         -5    1    3    3    0  502 -0.12527245445E+03  0.41997414277E+02  0.41223094898E+03  0.43290737849E+03  0.41800000000E+01 0. -1.
        -11    1    1    2    0    0 -0.52590879298E+01 -0.34294240181E+02  0.20753599403E+03  0.21041611567E+03  0.00000000000E+00 0. -1.
         11    1    1    2    0    0  0.10475169341E+03 -0.41221985476E+02  0.31160965006E+03  0.33131969964E+03  0.00000000000E+00 0.  1.
</event>
<event>
 7    1  0.2690635E-009  0.9616557E+02  0.7561462E-02  0.1288572E+00
          1   -1    0    0  501    0  0.00000000000E+00  0.00000000000E+00  0.31534149062E+03  0.31534149062E+03  0.00000000000E+00 0. -1.
         -1   -1    0    0    0  501 -0.00000000000E+00 -0.00000000000E+00 -0.49897303958E+02  0.49897303958E+02  0.00000000000E+00 0.  1.
         25    2    1    2    0    0  0.36306673979E+02  0.41863672040E+02  0.19527324996E+03  0.23843293257E+03  0.12509148481E+03 0.  0.
          5    1    3    3  502    0  0.18130144060E+02 -0.25552231938E+02  0.15401130279E+03  0.15722141225E+03  0.41800000000E+01 0. -1.
         -5    1    3    3    0  502  0.18176529920E+02  0.67415903979E+02  0.41261947164E+02  0.81211520322E+02  0.41800000000E+01 0. -1.
        -11    1    1    2    0    0 -0.54288465826E+02 -0.11511393932E+02  0.90421694056E+01  0.56227311331E+02  0.00000000000E+00 0.  1.
         11    1    1    2    0    0  0.17981791846E+02 -0.30352278108E+02  0.61128767300E+02  0.70578550679E+02  0.00000000000E+00 0. -1.
</event>
<event>
 7    1  0.2690635E-009  0.1644527E+03  0.7561462E-02  0.1183759E+00
          1   -1    0    0  501    0  0.00000000000E+00  0.00000000000E+00  0.11985618886E+04  0.11985618886E+04  0.00000000000E+00 0. -1.
         -1   -1    0    0    0  501 -0.00000000000E+00 -0.00000000000E+00 -0.34409932344E+02  0.34409932344E+02  0.00000000000E+00 0.  1.
         25    2    1    2    0    0  0.13117636960E+03  0.15419937523E+02  0.97045000799E+03  0.98735269804E+03  0.12508844029E+03 0.  0.
          5    1    3    3  502    0 -0.24129525496E+02 -0.53804634661E+01  0.14495182575E+03  0.14710434248E+03  0.41800000000E+01 0. -1.
         -5    1    3    3    0  502  0.15530589510E+03  0.20800400989E+02  0.82549818224E+03  0.84024835556E+03  0.41800000000E+01 0. -1.
        -11    1    1    2    0    0 -0.18423516833E+02 -0.28120292097E+02  0.23325074149E+02  0.40917427634E+02  0.00000000000E+00 0.  1.
         11    1    1    2    0    0 -0.11275285277E+03  0.12700354574E+02  0.17037687411E+03  0.20470169527E+03  0.00000000000E+00 0. -1.
</event>
<event>
 7    1  0.2690635E-009  0.1293239E+03  0.7561462E-02  0.1228462E+00
         -3   -1    0    0    0  501 -0.00000000000E+00  0.00000000000E+00  0.12266127485E+03  0.12266127485E+03  0.00000000000E+00 0.  1.
          3   -1    0    0  501    0  0.00000000000E+00 -0.00000000000E+00 -0.14332526246E+03  0.14332526246E+03  0.00000000000E+00 0. -1.
         25    2    1    2    0    0  0.65851434182E+02 -0.15930849849E+02 -0.24759877471E+02  0.14439915684E+03  0.12509141299E+03 0.  0.
          5    1    3    3  502    0  0.17948405321E+02 -0.65682779883E+02 -0.30989734213E+02  0.74928024485E+02  0.41800000000E+01 0. -1.
         -5    1    3    3    0  502  0.47903028861E+02  0.49751930034E+02  0.62298567420E+01  0.69471132358E+02  0.41800000000E+01 0. -1.
        -11    1    1    2    0    0 -0.31155060099E+02  0.58524600313E+02 -0.18738548582E+01  0.66327052879E+02  0.00000000000E+00 0. -1.
         11    1    1    2    0    0 -0.34696374083E+02 -0.42593750464E+02  0.59697447166E+01  0.55260327588E+02  0.00000000000E+00 0.  1.
</event>
<event>
 7    1  0.2690635E-009  0.4074440E+03  0.7561462E-02  0.1041232E+00
          2   -1    0    0  501    0  0.00000000000E+00  0.00000000000E+00  0.17475989867E+04  0.17475989867E+04  0.00000000000E+00 0. -1.
         -2   -1    0    0    0  501 -0.00000000000E+00 -0.00000000000E+00 -0.10139936152E+03  0.10139936152E+03  0.00000000000E+00 0.  1.
         25    2    1    2    0    0  0.37995967564E+03 -0.14233548579E+03  0.86865537745E+03  0.96687040183E+03  0.12508982188E+03 0.  0.
          5    1    3    3  502    0  0.24389877430E+03 -0.11647153793E+03  0.44023992890E+03  0.51660516708E+03  0.41800000000E+01 0.  1.
         -5    1    3    3    0  502  0.13606090134E+03 -0.25863947861E+02  0.42841544855E+03  0.45026523475E+03  0.41800000000E+01 0.  1.
        -11    1    1    2    0    0 -0.79126550838E+02  0.36112236109E+02  0.25988071434E+03  0.27404943045E+03  0.00000000000E+00 0. -1.
         11    1    1    2    0    0 -0.30083312480E+03  0.10622324968E+03  0.51766353344E+03  0.60807851598E+03  0.00000000000E+00 0.  1.
</event>
<event>
 7    1  0.2690635E-009  0.9078167E+02  0.7561462E-02  0.1300970E+00
         -1   -1    0    0    0  501 -0.00000000000E+00  0.00000000000E+00  0.49361257823E+02  0.49361257823E+02  0.00000000000E+00 0.  1.
          1   -1    0    0  501    0  0.00000000000E+00 -0.00000000000E+00 -0.22333361051E+03  0.22333361051E+03  0.00000000000E+00 0. -1.
         25    2    1    2    0    0  0.64014011206E+01 -0.44386522438E+01 -0.11790810841E+03  0.17206930119E+03  0.12507934608E+03 0.  0.
          5    1    3    3  502    0  0.37231856412E+02 -0.39114099774E+02 -0.10745779905E+02  0.55218367585E+02  0.41800000000E+01 0. -1.
         -5    1    3    3    0  502 -0.30830455291E+02  0.34675447531E+02 -0.10716232850E+03  0.11685093361E+03  0.41800000000E+01 0. -1.
        -11    1    1    2    0    0  0.16028945644E+02 -0.33274480822E+02 -0.13028862856E+02  0.39164645278E+02  0.00000000000E+00 0.  1.
         11    1    1    2    0    0 -0.22430346765E+02  0.37713133066E+02 -0.43035381420E+02  0.61460921858E+02  0.00000000000E+00 0. -1.
</event>
<event>
 7    1  0.2690635E-009  0.5859952E+02  0.7561462E-02  0.1403805E+00
         -1   -1    0    0    0  501 -0.00000000000E+00  0.00000000000E+00  0.50269650926E+03  0.50269650926E+03  0.00000000000E+00 0.  1.
          1   -1    0    0  501    0  0.00000000000E+00 -0.00000000000E+00 -0.24322307430E+02  0.24322307430E+02  0.00000000000E+00 0. -1.
         25    2    1    2    0    0 -0.81104551626E+01 -0.11063529600E+02  0.33291796213E+03  0.35590898129E+03  0.12509457334E+03 0.  0.
          5    1    3    3  502    0 -0.26900463483E+02 -0.16781964994E+02  0.33425721434E+03  0.33578360148E+03  0.41800000000E+01 0.  1.
         -5    1    3    3    0  502  0.18790008321E+02  0.57184353937E+01 -0.13392522032E+01  0.20125379810E+02  0.41800000000E+01 0.  1.
        -11    1    1    2    0    0  0.23335654228E+02 -0.19877379920E+02  0.12956238443E+03  0.13313930467E+03  0.00000000000E+00 0.  1.
         11    1    1    2    0    0 -0.15225199065E+02  0.30940909521E+02  0.15893855271E+02  0.37970530730E+02  0.00000000000E+00 0. -1.
</event>
<event>
 7    1  0.2690635E-009  0.9247210E+02  0.7561462E-02  0.1296973E+00
         -1   -1    0    0    0  501 -0.00000000000E+00  0.00000000000E+00  0.23382108716E+02  0.23382108716E+02  0.00000000000E+00 0.  1.
          1   -1    0    0  501    0  0.00000000000E+00 -0.00000000000E+00 -0.88162741555E+03  0.88162741555E+03  0.00000000000E+00 0. -1.
         25    2    1    2    0    0 -0.37802565709E+00 -0.12913336275E+02 -0.76403877053E+03  0.77431901655E+03  0.12509116419E+03 0.  0.
          5    1    3    3  502    0  0.46231072346E+02 -0.16389036132E+02 -0.13788192746E+03  0.14640632116E+03  0.41800000000E+01 0. -1.
         -5    1    3    3    0  502 -0.46609098003E+02  0.34756998570E+01 -0.62615684307E+03  0.62791269539E+03  0.41800000000E+01 0. -1.
        -11    1    1    2    0    0  0.21606823896E+01 -0.37892550160E+02 -0.27738067492E+02  0.47009725527E+02  0.00000000000E+00 0.  1.
         11    1    1    2    0    0 -0.17826567325E+01  0.50805886434E+02 -0.66468468808E+02  0.83680782185E+02  0.00000000000E+00 0. -1.
</event>
<event>
 7    1  0.2690635E-009  0.1455670E+03  0.7561462E-02  0.1206028E+00
          1   -1    0    0  501    0  0.00000000000E+00  0.00000000000E+00  0.14847793632E+04  0.14847793632E+04  0.00000000000E+00 0. -1.
         -1   -1    0    0    0  501 -0.00000000000E+00 -0.00000000000E+00 -0.19752194225E+02  0.19752194225E+02  0.00000000000E+00 0.  1.
         25    2    1    2    0    0 -0.52177019022E+02  0.11757371259E+03  0.64854870073E+03  0.67291025964E+03  0.12508709408E+03 0.  0.
          5    1    3    3  502    0  0.26359872109E+01  0.46093914507E+02  0.47570378640E+03  0.47795728071E+03  0.41800000000E+01 0.  1.
         -5    1    3    3    0  502 -0.54813006233E+02  0.71479798086E+02  0.17284491432E+03  0.19495297893E+03  0.41800000000E+01 0.  1.
        -11    1    1    2    0    0  0.49134858297E+02 -0.13148318167E+03  0.77868523555E+03  0.79123495715E+03  0.00000000000E+00 0.  1.
         11    1    1    2    0    0  0.30421607253E+01  0.13909469076E+02  0.37793232741E+02  0.40386340672E+02  0.00000000000E+00 0. -1.
</event>
<event>
 7    1  0.2690635E-009  0.1019043E+03  0.7561462E-02  0.1276342E+00
          3   -1    0    0  501    0  0.00000000000E+00  0.00000000000E+00  0.21629161915E+03  0.21629161915E+03  0.00000000000E+00 0. -1.
         -3   -1    0    0    0  501 -0.00000000000E+00 -0.00000000000E+00 -0.68663427710E+02  0.68663427710E+02  0.00000000000E+00 0.  1.
         25    2    1    2    0    0 -0.27798005967E+02 -0.44386463847E+02  0.10529083917E+03  0.17168255974E+03  0.12508338497E+03 0.  0.
          5    1    3    3  502    0 -0.50818431106E+02  0.10359441352E+02  0.98967517879E+02  0.11181177469E+03  0.41800000000E+01 0. -1.
         -5    1    3    3    0  502  0.23020425139E+02 -0.54745905199E+02  0.63233212929E+01  0.59870785044E+02  0.41800000000E+01 0. -1.
        -11    1    1    2    0    0 -0.11827812008E+02  0.50747664494E+02 -0.36500962730E+01  0.52235484024E+02  0.00000000000E+00 0.  1.
         11    1    1    2    0    0  0.39625817975E+02 -0.63612006469E+01  0.45987448544E+02  0.61037003100E+02  0.00000000000E+00 0. -1.
</event>
<event>
 7    1  0.2690635E-009  0.1450431E+03  0.7561462E-02  0.1206700E+00
          1   -1    0    0  501    0  0.00000000000E+00  0.00000000000E+00  0.37393169307E+03  0.37393169307E+03  0.00000000000E+00 0. -1.
         -1   -1    0    0    0  501 -0.00000000000E+00 -0.00000000000E+00 -0.59311841774E+02  0.59311841774E+02  0.00000000000E+00 0.  1.
         25    2    1    2    0    0 -0.98160892984E+02  0.74196432882E+01  0.13809728311E+03  0.21073344610E+03  0.12508842347E+03 0.  0.
          5    1    3    3  502    0 -0.10545888178E+03  0.49280161083E+02  0.10067798908E+03  0.15395986460E+03  0.41800000000E+01 0. -1.
         -5    1    3    3    0  502  0.72979887975E+01 -0.41860517795E+02  0.37419294028E+02  0.56773581498E+02  0.41800000000E+01 0. -1.
        -11    1    1    2    0    0 -0.52082104783E+01  0.22661404599E+02  0.12741126887E+02  0.26514166575E+02  0.00000000000E+00 0.  1.
         11    1    1    2    0    0  0.10336910346E+03 -0.30081047887E+02  0.16378144130E+03  0.19599592217E+03  0.00000000000E+00 0. -1.
</event>
<event>
 7    1  0.2690635E-009  0.1114245E+03  0.7561462E-02  0.1257955E+00
         -2   -1    0    0    0  501 -0.00000000000E+00  0.00000000000E+00  0.26562177520E+02  0.26562177520E+02  0.00000000000E+00 0.  1.
          2   -1    0    0  501    0  0.00000000000E+00 -0.00000000000E+00 -0.57998722948E+03  0.57998722948E+03  0.00000000000E+00 0. -1.
         25    2    1    2    0    0 -0.33352926618E+02  0.43148304633E+02 -0.24627264228E+03  0.28155258502E+03  0.12508976734E+03 0.  0.
          5    1    3    3  502    0 -0.67385053171E+02  0.64373675888E+01 -0.20688820934E+03  0.21772089623E+03  0.41800000000E+01 0. -1.
         -5    1    3    3    0  502  0.34032126552E+02  0.36710937044E+02 -0.39384432932E+02  0.63831688789E+02  0.41800000000E+01 0. -1.
        -11    1    1    2    0    0  0.20650534497E+02 -0.71129075496E+02 -0.19128141686E+03  0.20512038025E+03  0.00000000000E+00 0.  1.
         11    1    1    2    0    0  0.12702392122E+02  0.27980770863E+02 -0.11587099282E+03  0.11987644173E+03  0.00000000000E+00 0. -1.
</event>
<event>
 7    1  0.2690635E-009  0.1408306E+03  0.7561462E-02  0.1212216E+00
         -1   -1    0    0    0  501 -0.00000000000E+00  0.00000000000E+00  0.24357799639E+03  0.24357799639E+03  0.00000000000E+00 0.  1.
          1   -1    0    0  501    0  0.00000000000E+00 -0.00000000000E+00 -0.89002102155E+02  0.89002102155E+02  0.00000000000E+00 0. -1.
         25    2    1    2    0    0  0.58977468545E+02 -0.74498267734E+02  0.10218417312E+03  0.18739665146E+03  0.12509023163E+03 0.  0.
          5    1    3    3  502    0  0.40509178275E+02 -0.10413339919E+03  0.45557883140E+02  0.12073835956E+03  0.41800000000E+01 0.  1.
         -5    1    3    3    0  502  0.18468290270E+02  0.29635131461E+02  0.56626289984E+02  0.66658291903E+02  0.41800000000E+01 0.  1.
        -11    1    1    2    0    0 -0.53961906003E+02  0.97338453135E+02  0.48802986533E+02  0.12152527825E+03  0.00000000000E+00 0.  1.
         11    1    1    2    0    0 -0.50155625420E+01 -0.22840185400E+02  0.35887345753E+01  0.23658168834E+02  0.00000000000E+00 0. -1.
</event>
<event>
 7    1  0.2690635E-009  0.1101676E+03  0.7561462E-02  0.1260260E+00
         -2   -1    0    0    0  501 -0.00000000000E+00  0.00000000000E+00  0.53204093807E+03  0.53204093807E+03  0.00000000000E+00 0.  1.
          2   -1    0    0  501    0  0.00000000000E+00 -0.00000000000E+00 -0.29135372130E+02  0.29135372130E+02  0.00000000000E+00 0. -1.
         25    2    1    2    0    0 -0.50264628567E+02  0.33692264920E+02  0.29741377709E+03  0.32827712952E+03  0.12509683194E+03 0.  0.
          5    1    3    3  502    0 -0.67294734619E+02 -0.17217245203E+02  0.88753860417E+02  0.11278180252E+03  0.41800000000E+01 0.  1.
         -5    1    3    3    0  502  0.17030106051E+02  0.50909510123E+02  0.20865991668E+03  0.21549532700E+03  0.41800000000E+01 0.  1.
        -11    1    1    2    0    0  0.34996930250E+02 -0.58268033150E+02  0.18595650911E+03  0.19798932319E+03  0.00000000000E+00 0.  1.
         11    1    1    2    0    0  0.15267698317E+02  0.24575768230E+02  0.19535279734E+02  0.34909857494E+02  0.00000000000E+00 0. -1.
</event>
<event>
 7    1  0.2690635E-009  0.1334798E+03  0.7561462E-02  0.1222382E+00
         -2   -1    0    0    0  501 -0.00000000000E+00  0.00000000000E+00  0.11912369094E+03  0.11912369094E+03  0.00000000000E+00 0.  1.
          2   -1    0    0  501    0  0.00000000000E+00 -0.00000000000E+00 -0.21458457195E+03  0.21458457195E+03  0.00000000000E+00 0. -1.
         25    2    1    2    0    0 -0.18433379458E+02 -0.11076441092E+03 -0.10277334139E+03  0.19702924308E+03  0.12509843614E+03 0.  0.
          5    1    3    3  502    0 -0.26577487710E+02 -0.12878316003E+03 -0.50391794831E+02  0.14088389030E+03  0.41800000000E+01 0.  1.
         -5    1    3    3    0  502  0.81441082524E+01  0.18018749109E+02 -0.52381546557E+02  0.56145352777E+02  0.41800000000E+01 0.  1.
        -11    1    1    2    0    0  0.22472233856E+02  0.57004424232E+02 -0.32782383953E+02  0.69492376375E+02  0.00000000000E+00 0. -1.
         11    1    1    2    0    0 -0.40388543982E+01  0.53759986692E+02  0.40094844330E+02  0.67186643433E+02  0.00000000000E+00 0.  1.
</event>
<event>
 7    1  0.2690635E-009  0.2312773E+03  0.7561462E-02  0.1125744E+00
         -1   -1    0    0    0  501 -0.00000000000E+00  0.00000000000E+00  0.71594507383E+02  0.71594507383E+02  0.00000000000E+00 0.  1.
          1   -1    0    0  501    0  0.00000000000E+00 -0.00000000000E+00 -0.93311641323E+03  0.93311641323E+03  0.00000000000E+00 0. -1.
         25    2    1    2    0    0 -0.19995454235E+03  0.80452780667E+02 -0.26382366238E+03  0.36290710794E+03  0.12507667744E+03 0.  0.
          5    1    3    3  502    0 -0.35271123703E+02 -0.29137114382E+02 -0.23462067139E+02  0.51584538344E+02  0.41800000000E+01 0. -1.
         -5    1    3    3    0  502 -0.16468341865E+03  0.10958989505E+03 -0.24036159524E+03  0.31132256960E+03  0.41800000000E+01 0. -1.
        -11    1    1    2    0    0  0.11288633797E+03 -0.65197827576E+02 -0.46049440017E+03  0.47859082170E+03  0.00000000000E+00 0. -1.
         11    1    1    2    0    0  0.87068204382E+02 -0.15254953091E+02 -0.13720384330E+03  0.16321299098E+03  0.00000000000E+00 0.  1.
</event>
<event>
 7    1  0.2690635E-009  0.1525449E+03  0.7561462E-02  0.1197380E+00
          1   -1    0    0  501    0  0.00000000000E+00  0.00000000000E+00  0.39390678011E+03  0.39390678011E+03  0.00000000000E+00 0. -1.
         -1   -1    0    0    0  501 -0.00000000000E+00 -0.00000000000E+00 -0.90404399759E+02  0.90404399759E+02  0.00000000000E+00 0.  1.
         25    2    1    2    0    0 -0.12134074633E+03  0.24638921142E+02  0.42327002491E+02  0.18102481017E+03  0.12509098129E+03 0.  0.
          5    1    3    3  502    0 -0.62429566574E+02 -0.32167036623E+02  0.65229152272E+02  0.95940000698E+02  0.41800000000E+01 0. -1.
         -5    1    3    3    0  502 -0.58911179754E+02  0.56805957765E+02 -0.22902149782E+02  0.85084809468E+02  0.41800000000E+01 0. -1.
        -11    1    1    2    0    0  0.10651245561E+03  0.17661989231E+02  0.16509548569E+03  0.19726471671E+03  0.00000000000E+00 0.  1.
         11    1    1    2    0    0  0.14828290719E+02 -0.42300910373E+02  0.96079892180E+02  0.10602165300E+03  0.00000000000E+00 0. -1.
</event>
<event>
 7    1  0.2690635E-009  0.9424045E+02  0.7561462E-02  0.1292896E+00
          1   -1    0    0  501    0  0.00000000000E+00  0.00000000000E+00  0.20523017796E+03  0.20523017796E+03  0.00000000000E+00 0.  1.
         -1   -1    0    0    0  501 -0.00000000000E+00 -0.00000000000E+00 -0.70045647306E+02  0.70045647306E+02  0.00000000000E+00 0. -1.
         25    2    1    2    0    0 -0.38437578023E+02  0.32261676477E+02  0.74317679594E+02  0.15392035154E+03  0.12510033550E+03 0.  0.
          5    1    3    3  502    0 -0.54060855103E+02  0.42027134083E+02 -0.83613010023E+01  0.69110345160E+02  0.41800000000E+01 0. -1.
         -5    1    3    3    0  502  0.15623277080E+02 -0.97654576059E+01  0.82678980596E+02  0.84810006375E+02  0.41800000000E+01 0. -1.
        -11    1    1    2    0    0 -0.27537026468E+02 -0.19618028786E+02  0.36863077217E+02  0.50020409255E+02  0.00000000000E+00 0.  1.
         11    1    1    2    0    0  0.65974604491E+02 -0.12643647691E+02  0.24003773841E+02  0.71335064473E+02  0.00000000000E+00 0. -1.
</event>
<event>
 7    1  0.2690635E-009  0.9663917E+02  0.7561462E-02  0.1287526E+00
          3   -1    0    0  501    0  0.00000000000E+00  0.00000000000E+00  0.96308964660E+02  0.96308964660E+02  0.00000000000E+00 0. -1.
         -3   -1    0    0    0  501 -0.00000000000E+00 -0.00000000000E+00 -0.14244569585E+03  0.14244569585E+03  0.00000000000E+00 0.  1.
         25    2    1    2    0    0 -0.41435551015E+02  0.83096382919E+01 -0.47556261668E+02  0.14033456758E+03  0.12508492259E+03 0.  0.
          5    1    3    3  502    0  0.13510283155E+02 -0.49160348878E+02 -0.92678649363E+01  0.51986857697E+02  0.41800000000E+01 0.  1.
         -5    1    3    3    0  502 -0.54945834170E+02  0.57469987170E+02 -0.38288396732E+02  0.88347709887E+02  0.41800000000E+01 0.  1.
        -11    1    1    2    0    0 -0.91521774998E+01 -0.76246316095E+01 -0.34417786997E+02  0.36420892657E+02  0.00000000000E+00 0.  1.
         11    1    1    2    0    0  0.50587728514E+02 -0.68500668237E+00  0.35837317474E+02  0.61999200270E+02  0.00000000000E+00 0. -1.
</event>
<event>
 7    1  0.2690635E-009  0.2057347E+03  0.7561462E-02  0.1144989E+00
          1   -1    0    0  501    0  0.00000000000E+00  0.00000000000E+00  0.10968860899E+04  0.10968860899E+04  0.00000000000E+00 0. -1.
         -1   -1    0    0    0  501 -0.00000000000E+00 -0.00000000000E+00 -0.53175936316E+02  0.53175936316E+02  0.00000000000E+00 0.  1.
         25    2    1    2    0    0  0.16696125601E+03  0.95707478657E+02  0.30703577644E+03  0.38334666015E+03  0.12509081245E+03 0.  0.
          5    1    3    3  502    0  0.16510781443E+03  0.77204525291E+02  0.31397039788E+03  0.36306474940E+03  0.41800000000E+01 0. -1.
         -5    1    3    3    0  502  0.18534415715E+01  0.18502953366E+02 -0.69346214464E+01  0.20281910747E+02  0.41800000000E+01 0. -1.
        -11    1    1    2    0    0 -0.17693918767E+03 -0.88904091863E+02  0.71488369884E+03  0.74180193889E+03  0.00000000000E+00 0.  1.
         11    1    1    2    0    0  0.99779316636E+01 -0.68033867946E+01  0.21790678298E+02  0.24913427160E+02  0.00000000000E+00 0. -1.
</event>
<event>
 7    1  0.2690635E-009  0.1248514E+03  0.7561462E-02  0.1235302E+00
          2   -1    0    0  501    0  0.00000000000E+00  0.00000000000E+00  0.44946290539E+03  0.44946290539E+03  0.00000000000E+00 0. -1.
         -2   -1    0    0    0  501 -0.00000000000E+00 -0.00000000000E+00 -0.41631734481E+02  0.41631734481E+02  0.00000000000E+00 0.  1.
         25    2    1    2    0    0  0.69468534015E+02  0.92032771550E+01  0.19050123422E+03  0.23843049906E+03  0.12509118719E+03 0.  0.
          5    1    3    3  502    0  0.12258716000E+02  0.49422465451E+02  0.21401033933E+02  0.55392534358E+02  0.41800000000E+01 0. -1.
         -5    1    3    3    0  502  0.57209818015E+02 -0.40219188296E+02  0.16910020029E+03  0.18303796470E+03  0.41800000000E+01 0. -1.
        -11    1    1    2    0    0 -0.45284889795E+02  0.48278027454E+02  0.10308682310E+03  0.12250870286E+03  0.00000000000E+00 0.  1.
         11    1    1    2    0    0 -0.24183644221E+02 -0.57481304609E+02  0.11424311359E+03  0.13015543796E+03  0.00000000000E+00 0. -1.
</event>
<event>
 7    1  0.2690635E-009  0.1015209E+03  0.7561462E-02  0.1277130E+00
          1   -1    0    0  501    0  0.00000000000E+00  0.00000000000E+00  0.96411730542E+02  0.96411730542E+02  0.00000000000E+00 0. -1.
         -1   -1    0    0    0  501 -0.00000000000E+00 -0.00000000000E+00 -0.16419209280E+03  0.16419209280E+03  0.00000000000E+00 0.  1.
         25    2    1    2    0    0 -0.35173832763E+02 -0.41414110274E+02 -0.18410274736E+01  0.13639537656E+03  0.12509189552E+03 0.  0.
          5    1    3    3  502    0  0.39910698201E+02 -0.32538493491E+02 -0.24746347032E+02  0.57284129399E+02  0.41800000000E+01 0. -1.
         -5    1    3    3    0  502 -0.75084530964E+02 -0.88756167823E+01  0.22905319558E+02  0.79111247161E+02  0.41800000000E+01 0. -1.
        -11    1    1    2    0    0  0.17403392429E+02 -0.10812523618E+02 -0.65931158054E+02  0.69041337888E+02  0.00000000000E+00 0.  1.
         11    1    1    2    0    0  0.17770440333E+02  0.52226633892E+02 -0.81767353227E-02  0.55167108898E+02  0.00000000000E+00 0. -1.
</event>
<event>
 7    1  0.2690635E-009  0.1650343E+03  0.7561462E-02  0.1183128E+00
         -1   -1    0    0    0  501 -0.00000000000E+00  0.00000000000E+00  0.10197190578E+04  0.10197190578E+04  0.00000000000E+00 0.  1.
          1   -1    0    0  501    0  0.00000000000E+00 -0.00000000000E+00 -0.35448351818E+02  0.35448351818E+02  0.00000000000E+00 0. -1.
         25    2    1    2    0    0  0.67862313304E+02  0.13519238007E+03  0.39449536820E+03  0.44063140887E+03  0.12508864759E+03 0.  0.
          5    1    3    3  502    0  0.30541701048E+02  0.26606991286E+00  0.19176607726E+03  0.19422813154E+03  0.41800000000E+01 0.  1.
         -5    1    3    3    0  502  0.37320612256E+02  0.13492631016E+03  0.20272929094E+03  0.24640327733E+03  0.41800000000E+01 0.  1.
        -11    1    1    2    0    0 -0.42724489376E+02 -0.12493062338E+03  0.55460154714E+03  0.57010167403E+03  0.00000000000E+00 0.  1.
         11    1    1    2    0    0 -0.25137823928E+02 -0.10261756692E+02  0.35173790656E+02  0.44434326724E+02  0.00000000000E+00 0. -1.
</event>
<event>
 7    1  0.2690635E-009  0.1941683E+03  0.7561462E-02  0.1154755E+00
         -1   -1    0    0    0  501 -0.00000000000E+00  0.00000000000E+00  0.48969264126E+02  0.48969264126E+02  0.00000000000E+00 0.  1.
          1   -1    0    0  501    0  0.00000000000E+00 -0.00000000000E+00 -0.11587123856E+04  0.11587123856E+04  0.00000000000E+00 0. -1.
         25    2    1    2    0    0 -0.16682802606E+03  0.68724915489E+02 -0.29195262195E+03  0.36529254614E+03  0.12509039338E+03 0.  0.
          5    1    3    3  502    0 -0.22612986120E+02 -0.24849223680E+02 -0.10931408565E+03  0.11443720016E+03  0.41800000000E+01 0.  1.
         -5    1    3    3    0  502 -0.14421503994E+03  0.93574139170E+02 -0.18263853630E+03  0.25085534599E+03  0.41800000000E+01 0.  1.
        -11    1    1    2    0    0  0.11151444629E+03 -0.59639677527E+02 -0.70704619301E+03  0.71826644215E+03  0.00000000000E+00 0. -1.
         11    1    1    2    0    0  0.55313579771E+02 -0.90852379620E+01 -0.11074430653E+03  0.12412266145E+03  0.00000000000E+00 0.  1.
</event>
<event>
 7    1  0.2690635E-009  0.1148146E+03  0.7561462E-02  0.1251905E+00
          2   -1    0    0  501    0  0.00000000000E+00  0.00000000000E+00  0.97559143764E+03  0.97559143764E+03  0.00000000000E+00 0. -1.
         -2   -1    0    0    0  501 -0.00000000000E+00 -0.00000000000E+00 -0.15032727317E+02  0.15032727317E+02  0.00000000000E+00 0.  1.
         25    2    1    2    0    0  0.42943095128E+02 -0.72286711560E+01  0.40254124480E+03  0.42377222242E+03  0.12508828731E+03 0.  0.
          5    1    3    3  502    0  0.86001609465E+02 -0.94749944569E+01  0.30462195639E+03  0.31669869129E+03  0.41800000000E+01 0.  1.
         -5    1    3    3    0  502 -0.43058514336E+02  0.22463233009E+01  0.97919288410E+02  0.10707353113E+03  0.41800000000E+01 0.  1.
        -11    1    1    2    0    0  0.72113458450E+01 -0.34003510266E+02  0.19367920397E+03  0.19677366763E+03  0.00000000000E+00 0.  1.
         11    1    1    2    0    0 -0.50154440973E+02  0.41232181422E+02  0.36433826155E+03  0.37007827492E+03  0.00000000000E+00 0. -1.
</event>
<event>
 7    1  0.2690635E-009  0.2183321E+03  0.7561462E-02  0.1135133E+00
         -1   -1    0    0    0  501 -0.00000000000E+00  0.00000000000E+00  0.17357447166E+03  0.17357447166E+03  0.00000000000E+00 0.  1.
          1   -1    0    0  501    0  0.00000000000E+00 -0.00000000000E+00 -0.35100792368E+03  0.35100792368E+03  0.00000000000E+00 0. -1.
         25    2    1    2    0    0  0.49091942805E+02 -0.20782198908E+03 -0.15378412883E+03  0.29137099317E+03  0.12508996516E+03 0.  0.
          5    1    3    3  502    0 -0.11639224355E+01 -0.12443144197E+03 -0.20381964213E+02  0.12616431877E+03  0.41800000000E+01 0. -1.
         -5    1    3    3    0  502  0.50255865241E+02 -0.83390547112E+02 -0.13340216462E+03  0.16520667439E+03  0.41800000000E+01 0. -1.
        -11    1    1    2    0    0 -0.10670392928E+02  0.93312265161E+02  0.33334411164E+02  0.99660519176E+02  0.00000000000E+00 0.  1.
         11    1    1    2    0    0 -0.38421549877E+02  0.11450972392E+03 -0.56983734352E+02  0.13355088299E+03  0.00000000000E+00 0. -1.
</event>
<event>
 7    1  0.2690635E-009  0.1138656E+03  0.7561462E-02  0.1253574E+00
         -2   -1    0    0    0  501 -0.00000000000E+00  0.00000000000E+00  0.45247866544E+02  0.45247866544E+02  0.00000000000E+00 0.  1.
          2   -1    0    0  501    0  0.00000000000E+00 -0.00000000000E+00 -0.39001365341E+03  0.39001365341E+03  0.00000000000E+00 0. -1.
         25    2    1    2    0    0 -0.49721739009E+02  0.15958517483E+02 -0.28357902781E+03  0.31431073402E+03  0.12508895593E+03 0.  0.
          5    1    3    3  502    0 -0.75166863850E+02  0.49647905683E+02 -0.16015895483E+03  0.18380243517E+03  0.41800000000E+01 0.  1.
         -5    1    3    3    0  502  0.25445124841E+02 -0.33689388200E+02 -0.12342007298E+03  0.13050829885E+03  0.41800000000E+01 0.  1.
        -11    1    1    2    0    0 -0.87289340696E+01  0.23188462860E+02  0.39347272862E+01  0.25087470550E+02  0.00000000000E+00 0.  1.
         11    1    1    2    0    0  0.58450673078E+02 -0.39146980342E+02 -0.65121486337E+02  0.95863315382E+02  0.00000000000E+00 0. -1.
</event>
<event>
 7    1  0.2690635E-009  0.1097550E+03  0.7561462E-02  0.1261024E+00
          2   -1    0    0  501    0  0.00000000000E+00  0.00000000000E+00  0.25116833558E+02  0.25116833558E+02  0.00000000000E+00 0. -1.
         -2   -1    0    0    0  501 -0.00000000000E+00 -0.00000000000E+00 -0.49896782243E+03  0.49896782243E+03  0.00000000000E+00 0.  1.
         25    2    1    2    0    0  0.12751232557E+02  0.23711090605E+02 -0.29001632118E+03  0.31699028601E+03  0.12509422498E+03 0.  0.
          5    1    3    3  502    0  0.47542760835E+02 -0.35266342025E+02 -0.13217219162E+03  0.14488267538E+03  0.41800000000E+01 0. -1.
         -5    1    3    3    0  502 -0.34791528278E+02  0.58977432630E+02 -0.15784412956E+03  0.17210761063E+03  0.41800000000E+01 0. -1.
        -11    1    1    2    0    0 -0.49093949288E+02 -0.25217060307E+02 -0.13767364968E+03  0.14832447473E+03  0.00000000000E+00 0.  1.
         11    1    1    2    0    0  0.36342716731E+02  0.15059697016E+01 -0.46161018015E+02  0.58769895255E+02  0.00000000000E+00 0. -1.
</event>
<event>
 7    1  0.2690635E-009  0.1036861E+03  0.7561462E-02  0.1272730E+00
         -2   -1    0    0    0  501 -0.00000000000E+00  0.00000000000E+00  0.55586228895E+02  0.55586228895E+02  0.00000000000E+00 0.  1.
          2   -1    0    0  501    0  0.00000000000E+00 -0.00000000000E+00 -0.24430791472E+03  0.24430791472E+03  0.00000000000E+00 0. -1.
         25    2    1    2    0    0  0.26486158929E+02 -0.11251215627E+02 -0.14886999119E+03  0.19656643578E+03  0.12509189793E+03 0.  0.
          5    1    3    3  502    0 -0.50070646041E+02 -0.11857801603E+02 -0.62885576002E+02  0.81361816124E+02  0.41800000000E+01 0. -1.
         -5    1    3    3    0  502  0.76556804971E+02  0.60658597610E+00 -0.85984415192E+02  0.11520461965E+03  0.41800000000E+01 0. -1.
        -11    1    1    2    0    0  0.13862294569E+02  0.31142734871E+02  0.10632919142E+02  0.35708431994E+02  0.00000000000E+00 0.  1.
         11    1    1    2    0    0 -0.40348453499E+02 -0.19891519244E+02 -0.50484613772E+02  0.67619275841E+02  0.00000000000E+00 0. -1.
</event>
<event>
 7    1  0.2690635E-009  0.8391654E+02  0.7561462E-02  0.1318290E+00
         -1   -1    0    0    0  501 -0.00000000000E+00  0.00000000000E+00  0.43467439344E+02  0.43467439344E+02  0.00000000000E+00 0.  1.
          1   -1    0    0  501    0  0.00000000000E+00 -0.00000000000E+00 -0.33135288266E+03  0.33135288266E+03  0.00000000000E+00 0. -1.
         25    2    1    2    0    0 -0.44560632249E+02 -0.29532784693E+01 -0.20586285494E+03  0.24499144497E+03  0.12508765432E+03 0.  0.
          5    1    3    3  502    0  0.26589110276E+02  0.88196716751E+01 -0.15268677933E+03  0.15529163653E+03  0.41800000000E+01 0.  1.
         -5    1    3    3    0  502 -0.71149742525E+02 -0.11772950144E+02 -0.53176075611E+02  0.89699808438E+02  0.41800000000E+01 0.  1.
        -11    1    1    2    0    0 -0.93739209910E+01  0.90044204744E+01 -0.73800817827E+02  0.74936711262E+02  0.00000000000E+00 0. -1.
         11    1    1    2    0    0  0.53934553240E+02 -0.60511420051E+01 -0.82217705500E+01  0.54892165777E+02  0.00000000000E+00 0.  1.
</event>
<event>
 7    1  0.2690635E-009  0.9135933E+02  0.7561462E-02  0.1299593E+00
          2   -1    0    0  501    0  0.00000000000E+00  0.00000000000E+00  0.59674130003E+03  0.59674130003E+03  0.00000000000E+00 0. -1.
         -2   -1    0    0    0  501 -0.00000000000E+00 -0.00000000000E+00 -0.20265969684E+02  0.20265969684E+02  0.00000000000E+00 0.  1.
         25    2    1    2    0    0  0.85738830652E+00  0.71906090733E+01  0.28871880277E+03  0.31473733812E+03  0.12509438421E+03 0.  0.
          5    1    3    3  502    0  0.52396412281E+02 -0.52182120578E+00  0.23081115440E+03  0.23672118138E+03  0.41800000000E+01 0. -1.
         -5    1    3    3    0  502 -0.51539023975E+02  0.77124302791E+01  0.57907648372E+02  0.78016156744E+02  0.41800000000E+01 0. -1.
        -11    1    1    2    0    0  0.34040280267E+02 -0.21383597956E+02  0.22879918288E+03  0.23230382052E+03  0.00000000000E+00 0. -1.
         11    1    1    2    0    0 -0.34897668574E+02  0.14192988882E+02  0.58957344698E+02  0.69966111076E+02  0.00000000000E+00 0.  1.
</event>
<event>
 7    1  0.2690635E-009  0.1277382E+03  0.7561462E-02  0.1230851E+00
          1   -1    0    0  501    0  0.00000000000E+00  0.00000000000E+00  0.95781393375E+03  0.95781393375E+03  0.00000000000E+00 0. -1.
         -1   -1    0    0    0  501 -0.00000000000E+00 -0.00000000000E+00 -0.29917452330E+02  0.29917452330E+02  0.00000000000E+00 0.  1.
         25    2    1    2    0    0 -0.31706593180E+02 -0.97927565221E+02  0.72186417946E+03  0.73981836726E+03  0.12509279304E+03 0.  0.
          5    1    3    3  502    0 -0.49152041459E+02 -0.11172069907E+02  0.10412823356E+03  0.11576225529E+03  0.41800000000E+01 0.  1.
         -5    1    3    3    0  502  0.17445448280E+02 -0.86755495314E+02  0.61773594590E+03  0.62405611197E+03  0.41800000000E+01 0.  1.
        -11    1    1    2    0    0  0.74799970897E+01  0.90724045923E+02  0.85939883303E+02  0.12518972165E+03  0.00000000000E+00 0.  1.
         11    1    1    2    0    0  0.24226596090E+02  0.72035192976E+01  0.12009241866E+03  0.12272329717E+03  0.00000000000E+00 0. -1.
</event>
<event>
 7    1  0.2690635E-009  0.1083747E+03  0.7561462E-02  0.1263610E+00
          2   -1    0    0  501    0  0.00000000000E+00  0.00000000000E+00  0.23173650082E+03  0.23173650082E+03  0.00000000000E+00 0. -1.
         -2   -1    0    0    0  501 -0.00000000000E+00 -0.00000000000E+00 -0.98070251025E+02  0.98070251025E+02  0.00000000000E+00 0.  1.
         25    2    1    2    0    0  0.55316289777E+02 -0.80106402598E+02  0.11643323185E+03  0.19667888251E+03  0.12509579408E+03 0.  0.
          5    1    3    3  502    0  0.23728892658E+02 -0.19321197750E+02  0.12385608937E+03  0.12764862828E+03  0.41800000000E+01 0.  1.
         -5    1    3    3    0  502  0.31587397119E+02 -0.60785204849E+02 -0.74228575170E+01  0.69030254229E+02  0.41800000000E+01 0.  1.
        -11    1    1    2    0    0 -0.57863114081E+02  0.26627975262E+02  0.39711695804E+02  0.75061360375E+02  0.00000000000E+00 0. -1.
         11    1    1    2    0    0  0.25468243035E+01  0.53478427336E+02 -0.22478677858E+02  0.58066508958E+02  0.00000000000E+00 0.  1.
</event>
<event>
 7    1  0.2690635E-009  0.1130888E+03  0.7561462E-02  0.1254954E+00
         -1   -1    0    0    0  501 -0.00000000000E+00  0.00000000000E+00  0.56563742988E+02  0.56563742988E+02  0.00000000000E+00 0.  1.
          1   -1    0    0  501    0  0.00000000000E+00 -0.00000000000E+00 -0.56870556463E+03  0.56870556463E+03  0.00000000000E+00 0. -1.
         25    2    1    2    0    0 -0.71975968921E+02  0.38064667488E+02 -0.47655671315E+03  0.49938027739E+03  0.12507958100E+03 0.  0.
          5    1    3    3  502    0 -0.35047658737E+02 -0.30823857204E+02 -0.32925735343E+03  0.33257529335E+03  0.41800000000E+01 0.  1.
         -5    1    3    3    0  502 -0.36928310183E+02  0.68888524693E+02 -0.14729935972E+03  0.16680498404E+03  0.41800000000E+01 0.  1.
        -11    1    1    2    0    0  0.37429115833E+02  0.12798608353E+02  0.18804420999E+02  0.43798965021E+02  0.00000000000E+00 0.  1.
         11    1    1    2    0    0  0.34546853088E+02 -0.50863275841E+02 -0.54389529489E+02  0.82090065207E+02  0.00000000000E+00 0. -1.
</event>
<event>
 7    1  0.2690635E-009  0.1092124E+03  0.7561462E-02  0.1262035E+00
         -2   -1    0    0    0  501 -0.00000000000E+00  0.00000000000E+00  0.37139582459E+02  0.37139582459E+02  0.00000000000E+00 0.  1.
          2   -1    0    0  501    0  0.00000000000E+00 -0.00000000000E+00 -0.47362441016E+03  0.47362441016E+03  0.00000000000E+00 0. -1.
         25    2    1    2    0    0  0.48116738575E+02  0.25332038212E+02 -0.34212460601E+03  0.36831319880E+03  0.12509369959E+03 0.  0.
          5    1    3    3  502    0  0.30486602055E+00  0.66777334638E+02 -0.12089974066E+03  0.13817932210E+03  0.41800000000E+01 0. -1.
         -5    1    3    3    0  502  0.47811872555E+02 -0.41445296426E+02 -0.22122486535E+03  0.23013387669E+03  0.41800000000E+01 0. -1.
        -11    1    1    2    0    0 -0.64648179573E+02 -0.29490848239E+02 -0.32230571809E+02  0.78025040924E+02  0.00000000000E+00 0.  1.
         11    1    1    2    0    0  0.16531440998E+02  0.41588100278E+01 -0.62129649885E+02  0.64425752903E+02  0.00000000000E+00 0. -1.
</event>
<event>
 7    1  0.2690635E-009  0.8768572E+02  0.7561462E-02  0.1308555E+00
          3   -1    0    0  501    0  0.00000000000E+00  0.00000000000E+00  0.24784684000E+03  0.24784684000E+03  0.00000000000E+00 0. -1.
         -3   -1    0    0    0  501 -0.00000000000E+00 -0.00000000000E+00 -0.72073652184E+02  0.72073652184E+02  0.00000000000E+00 0.  1.
         25    2    1    2    0    0 -0.25049490806E+02  0.11568961486E+01  0.97063617934E+01  0.12794728889E+03  0.12508988718E+03 0.  0.
          5    1    3    3  502    0 -0.10357646201E+01  0.36511574746E+02 -0.45186157515E+02  0.58253146952E+02  0.41800000000E+01 0. -1.
         -5    1    3    3    0  502 -0.24013726186E+02 -0.35354678598E+02  0.54892519308E+02  0.69694141935E+02  0.41800000000E+01 0. -1.
        -11    1    1    2    0    0  0.11499984604E+02 -0.46727429459E+02  0.94624386893E+02  0.10615779248E+03  0.00000000000E+00 0. -1.
         11    1    1    2    0    0  0.13549506202E+02  0.45570533311E+02  0.71442439127E+02  0.85815410812E+02  0.00000000000E+00 0.  1.
</event>
<event>
 7    1  0.2690635E-009  0.1060737E+03  0.7561462E-02  0.1268019E+00
         -1   -1    0    0    0  501 -0.00000000000E+00  0.00000000000E+00  0.41295819679E+02  0.41295819679E+02  0.00000000000E+00 0.  1.
          1   -1    0    0  501    0  0.00000000000E+00 -0.00000000000E+00 -0.52164650198E+03  0.52164650198E+03  0.00000000000E+00 0. -1.
         25    2    1    2    0    0 -0.64954861384E+02  0.17511361307E+02 -0.12362092638E+03  0.18829442458E+03  0.12508746978E+03 0.  0.
          5    1    3    3  502    0 -0.73040937570E+02 -0.54044708325E+01 -0.14044081198E+03  0.15844646079E+03  0.41800000000E+01 0. -1.
         -5    1    3    3    0  502  0.80860761857E+01  0.22915832139E+02  0.16819885604E+02  0.29847963791E+02  0.41800000000E+01 0. -1.
        -11    1    1    2    0    0  0.34390668357E+02 -0.55549718504E+02 -0.21846858100E+03  0.22802852931E+03  0.00000000000E+00 0.  1.
         11    1    1    2    0    0  0.30564193027E+02  0.38038357198E+02 -0.13826117492E+03  0.14661936777E+03  0.00000000000E+00 0. -1.
</event>
<event>
 7    1  0.2690635E-009  0.1225481E+03  0.7561462E-02  0.1238952E+00
         -2   -1    0    0    0  501 -0.00000000000E+00  0.00000000000E+00  0.36158247222E+02  0.36158247222E+02  0.00000000000E+00 0.  1.
          2   -1    0    0  501    0  0.00000000000E+00 -0.00000000000E+00 -0.67471949083E+03  0.67471949083E+03  0.00000000000E+00 0. -1.
         25    2    1    2    0    0  0.93064450571E+02 -0.15821691318E+02 -0.48090596788E+03  0.50579528406E+03  0.12508797529E+03 0.  0.
          5    1    3    3  502    0  0.80829307564E+02 -0.47357111108E+02 -0.17996931893E+03  0.20293472126E+03  0.41800000000E+01 0.  1.
         -5    1    3    3    0  502  0.12235143007E+02  0.31535419790E+02 -0.30093664894E+03  0.30286056281E+03  0.41800000000E+01 0.  1.
        -11    1    1    2    0    0 -0.20798501383E+02  0.36555197071E+02 -0.10552029039E+03  0.11359309740E+03  0.00000000000E+00 0. -1.
         11    1    1    2    0    0 -0.72265949188E+02 -0.20733505753E+02 -0.52134985336E+02  0.91489356588E+02  0.00000000000E+00 0.  1.
</event>
<event>
 7    1  0.2690635E-009  0.9832124E+02  0.7561462E-02  0.1283866E+00
          4   -1    0    0  501    0  0.00000000000E+00  0.00000000000E+00  0.23990869115E+02  0.23990869115E+02  0.00000000000E+00 0. -1.
         -4   -1    0    0    0  501 -0.00000000000E+00 -0.00000000000E+00 -0.61381703239E+03  0.61381703239E+03  0.00000000000E+00 0.  1.
         25    2    1    2    0    0  0.14666188359E+02 -0.60423470621E+01 -0.46964227801E+03  0.48627585178E+03  0.12509487475E+03 0.  0.
          5    1    3    3  502    0  0.59976299798E+02  0.16642178055E+02 -0.36068039655E+03  0.36603543474E+03  0.41800000000E+01 0.  1.
         -5    1    3    3    0  502 -0.45310111439E+02 -0.22684525118E+02 -0.10896188146E+03  0.12024041704E+03  0.41800000000E+01 0.  1.
        -11    1    1    2    0    0  0.31291573211E+01  0.42622544880E+02 -0.28891780940E+02  0.51586897208E+02  0.00000000000E+00 0. -1.
         11    1    1    2    0    0 -0.17795345680E+02 -0.36580197818E+02 -0.91292104325E+02  0.99945152521E+02  0.00000000000E+00 0.  1.
</event>
<event>
 7    1  0.2690635E-009  0.8103958E+02  0.7561462E-02  0.1326127E+00
         -1   -1    0    0    0  501 -0.00000000000E+00  0.00000000000E+00  0.78504326003E+01  0.78504326003E+01  0.00000000000E+00 0.  1.
          1   -1    0    0  501    0  0.00000000000E+00 -0.00000000000E+00 -0.23999048999E+04  0.23999048999E+04  0.00000000000E+00 0. -1.
         25    2    1    2    0    0  0.21766280538E+02  0.14956590936E+02 -0.20087561800E+04  0.20128205409E+04  0.12509064156E+03 0.  0.
          5    1    3    3  502    0  0.39517445588E+02  0.24230742076E+02 -0.19508703035E+04  0.19514254203E+04  0.41800000000E+01 0.  1.
         -5    1    3    3    0  502 -0.17751165050E+02 -0.92741511397E+01 -0.57885876480E+02  0.61395120619E+02  0.41800000000E+01 0.  1.
        -11    1    1    2    0    0  0.32000946827E+02 -0.24711978560E+02 -0.15477345818E+03  0.15996738992E+03  0.00000000000E+00 0.  1.
         11    1    1    2    0    0 -0.53767227364E+02  0.97553876235E+01 -0.22852482917E+03  0.23496740172E+03  0.00000000000E+00 0. -1.
</event>
<event>
 7    1  0.2690635E-009  0.1421053E+03  0.7561462E-02  0.1210524E+00
          2   -1    0    0  501    0  0.00000000000E+00  0.00000000000E+00  0.15781533091E+04  0.15781533091E+04  0.00000000000E+00 0.  1.
         -2   -1    0    0    0  501 -0.00000000000E+00 -0.00000000000E+00 -0.19789003689E+02  0.19789003689E+02  0.00000000000E+00 0. -1.
         25    2    1    2    0    0  0.31408669864E+01 -0.10072804436E+03  0.12605394717E+04  0.12707332136E+04  0.12508851430E+03 0.  0.
          5    1    3    3  502    0  0.60936483364E+02 -0.68829330741E+02  0.62082270588E+03  0.62760579691E+03  0.41800000000E+01 0. -1.
         -5    1    3    3    0  502 -0.57795616377E+02 -0.31898713622E+02  0.63971676582E+03  0.64312741667E+03  0.41800000000E+01 0. -1.
        -11    1    1    2    0    0 -0.29218267976E+02  0.94933296635E+02  0.17236221492E+03  0.19893408739E+03  0.00000000000E+00 0. -1.
         11    1    1    2    0    0  0.26077400989E+02  0.57947477283E+01  0.12546261876E+03  0.12827501179E+03  0.00000000000E+00 0.  1.
</event>
<event>
 7    1  0.2690635E-009  0.1239081E+03  0.7561462E-02  0.1236786E+00
         -1   -1    0    0    0  501 -0.00000000000E+00  0.00000000000E+00  0.10539305728E+03  0.10539305728E+03  0.00000000000E+00 0.  1.
          1   -1    0    0  501    0  0.00000000000E+00 -0.00000000000E+00 -0.16354933684E+03  0.16354933684E+03  0.00000000000E+00 0. -1.
         25    2    1    2    0    0  0.52432910235E+02  0.43196626283E+02 -0.17724911151E+01  0.14235445631E+03  0.12508593409E+03 0.  0.
          5    1    3    3  502    0 -0.38874723659E+02  0.25283503116E+02 -0.13494899059E+02  0.48477668776E+02  0.41800000000E+01 0. -1.
         -5    1    3    3    0  502  0.91307633895E+02  0.17913123167E+02  0.11722407944E+02  0.93876787530E+02  0.41800000000E+01 0. -1.
        -11    1    1    2    0    0  0.22784469841E+02 -0.17134047628E+02 -0.33023603949E+02  0.43626437763E+02  0.00000000000E+00 0. -1.
         11    1    1    2    0    0 -0.75217380077E+02 -0.26062578655E+02 -0.23360184496E+02  0.82961500055E+02  0.00000000000E+00 0.  1.
</event>
<event>
 7    1  0.2690635E-009  0.1038922E+03  0.7561462E-02  0.1272318E+00
         -1   -1    0    0    0  501 -0.00000000000E+00  0.00000000000E+00  0.65114032435E+02  0.65114032435E+02  0.00000000000E+00 0.  1.
          1   -1    0    0  501    0  0.00000000000E+00 -0.00000000000E+00 -0.19806766630E+03  0.19806766630E+03  0.00000000000E+00 0. -1.
         25    2    1    2    0    0 -0.19308425922E+02  0.64929909685E+01 -0.43536755194E+02  0.13400074536E+03  0.12508307823E+03 0.  0.
          5    1    3    3  502    0  0.41965736793E+02  0.26751340103E+02  0.89161082831E+01  0.50731909572E+02  0.41800000000E+01 0.  1.
         -5    1    3    3    0  502 -0.61274162715E+02 -0.20258349135E+02 -0.52452863477E+02  0.83268835785E+02  0.41800000000E+01 0.  1.
        -11    1    1    2    0    0  0.55855919881E+02 -0.88252068629E+01 -0.56560003977E+02  0.79980010702E+02  0.00000000000E+00 0.  1.
         11    1    1    2    0    0 -0.36547493959E+02  0.23322158944E+01 -0.32856874695E+02  0.49200942678E+02  0.00000000000E+00 0. -1.
</event>
<event>
 7    1  0.4191420E-009  0.1353406E+03  0.7561462E-02  0.1219740E+00
         -4   -1    0    0    0  501 -0.00000000000E+00  0.00000000000E+00  0.43289447336E+02  0.43289447336E+02  0.00000000000E+00 0.  1.
          4   -1    0    0  501    0  0.00000000000E+00 -0.00000000000E+00 -0.47673318637E+03  0.47673318637E+03  0.00000000000E+00 0. -1.
         25    2    1    2    0    0 -0.88633416087E+02 -0.16818675306E+02 -0.28166600563E+03  0.32112683297E+03  0.12509178167E+03 0.  0.
          5    1    3    3  502    0 -0.11739330393E+03 -0.27761717088E+02 -0.24468048473E+03  0.27283312253E+03  0.41800000000E+01 0.  1.
         -5    1    3    3    0  502  0.28759887841E+02  0.10943041781E+02 -0.36985520896E+02  0.48293710439E+02  0.41800000000E+01 0.  1.
        -11    1    1    2    0    0  0.85242821240E+02 -0.15318268361E+02 -0.71330897906E+02  0.11220109141E+03  0.00000000000E+00 0.  1.
         11    1    1    2    0    0  0.33905948474E+01  0.32136943668E+02 -0.80446835505E+02  0.86694709322E+02  0.00000000000E+00 0. -1.
</event>
<event>
 7    1  0.2690635E-009  0.9277484E+02  0.7561462E-02  0.1296268E+00
          1   -1    0    0  501    0  0.00000000000E+00  0.00000000000E+00  0.37760089106E+03  0.37760089106E+03  0.00000000000E+00 0. -1.
         -1   -1    0    0    0  501 -0.00000000000E+00 -0.00000000000E+00 -0.45555250295E+02  0.45555250295E+02  0.00000000000E+00 0.  1.
         25    2    1    2    0    0 -0.57114510745E+02 -0.30319619388E+02  0.22625425646E+03  0.26649506858E+03  0.12508911365E+03 0.  0.
          5    1    3    3  502    0 -0.54852666366E+02 -0.53795204764E+02  0.57512690974E+02  0.96062068925E+02  0.41800000000E+01 0. -1.
         -5    1    3    3    0  502 -0.22618443792E+01  0.23475585375E+02  0.16874156549E+03  0.17043299966E+03  0.41800000000E+01 0. -1.
        -11    1    1    2    0    0  0.56016987487E+02  0.43813622924E+02  0.25985769744E+02  0.75715234068E+02  0.00000000000E+00 0.  1.
         11    1    1    2    0    0  0.10975232583E+01 -0.13494003535E+02  0.79805614563E+02  0.80945838711E+02  0.00000000000E+00 0. -1.
</event>
<event>
 7    1  0.2690635E-009  0.7320736E+02  0.7561462E-02  0.1349514E+00
          1   -1    0    0  501    0  0.00000000000E+00  0.00000000000E+00  0.10351565922E+03  0.10351565922E+03  0.00000000000E+00 0. -1.
         -1   -1    0    0    0  501 -0.00000000000E+00 -0.00000000000E+00 -0.11943792693E+03  0.11943792693E+03  0.00000000000E+00 0.  1.
         25    2    1    2    0    0  0.46614484219E+01  0.27379920176E+01  0.70432995098E+01  0.12540253418E+03  0.12508781639E+03 0.  0.
          5    1    3    3  502    0 -0.51607095917E+02 -0.18613866354E+02 -0.20978078223E+02  0.58883958219E+02  0.41800000000E+01 0.  1.
         -5    1    3    3    0  502  0.56268544339E+02  0.21351858372E+02  0.28021377733E+02  0.66518575962E+02  0.41800000000E+01 0.  1.
        -11    1    1    2    0    0 -0.12797033906E+02 -0.12817853423E+02 -0.57702027712E+02  0.60477974877E+02  0.00000000000E+00 0.  1.
         11    1    1    2    0    0  0.81355854840E+01  0.10079861406E+02  0.34736460498E+02  0.37073077092E+02  0.00000000000E+00 0. -1.
</event>
<event>
 7    1  0.2690635E-009  0.8451041E+02  0.7561462E-02  0.1316718E+00
         -1   -1    0    0    0  501 -0.00000000000E+00  0.00000000000E+00  0.50665019785E+02  0.50665019785E+02  0.00000000000E+00 0.  1.
          1   -1    0    0  501    0  0.00000000000E+00 -0.00000000000E+00 -0.25469554026E+03  0.25469554026E+03  0.00000000000E+00 0. -1.
         25    2    1    2    0    0  0.88033268454E+01 -0.25802911586E+02 -0.13589996321E+03  0.18670679765E+03  0.12508932600E+03 0.  0.
          5    1    3    3  502    0 -0.12756238905E+02 -0.46004622315E+02 -0.14719596488E+03  0.15480074736E+03  0.41800000000E+01 0. -1.
         -5    1    3    3    0  502  0.21559565751E+02  0.20201710729E+02  0.11296001672E+02  0.31906050296E+02  0.41800000000E+01 0. -1.
        -11    1    1    2    0    0  0.39038454853E+02  0.17153575678E+02 -0.52394515414E+02  0.67553174324E+02  0.00000000000E+00 0. -1.
         11    1    1    2    0    0 -0.47841781698E+02  0.86493359086E+01 -0.15736041854E+02  0.51100588068E+02  0.00000000000E+00 0.  1.
</event>
<event>
 7    1  0.2690635E-009  0.9569132E+02  0.7561462E-02  0.1289627E+00
         -2   -1    0    0    0  501 -0.00000000000E+00  0.00000000000E+00  0.34367788707E+02  0.34367788707E+02  0.00000000000E+00 0. -1.
          2   -1    0    0  501    0  0.00000000000E+00 -0.00000000000E+00 -0.36893654526E+03  0.36893654526E+03  0.00000000000E+00 0.  1.
         25    2    1    2    0    0 -0.11312202006E+02  0.14937912423E+02 -0.14978871486E+03  0.19604688784E+03  0.12508643408E+03 0.  0.
          5    1    3    3  502    0 -0.43012298181E+02  0.51973539445E+02 -0.12278713481E+03  0.14016226123E+03  0.41800000000E+01 0.  1.
         -5    1    3    3    0  502  0.31700096175E+02 -0.37035627022E+02 -0.27001580052E+02  0.55884626613E+02  0.41800000000E+01 0.  1.
        -11    1    1    2    0    0  0.84950220311E+01 -0.44430073748E+02 -0.16629433494E+03  0.17233688718E+03  0.00000000000E+00 0.  1.
         11    1    1    2    0    0  0.28171799746E+01  0.29492161325E+02 -0.18485706752E+02  0.34920558941E+02  0.00000000000E+00 0. -1.
</event>
<event>
 7    1  0.2690635E-009  0.2231685E+03  0.7561462E-02  0.1131543E+00
         -2   -1    0    0    0  501 -0.00000000000E+00  0.00000000000E+00  0.28109528556E+03  0.28109528556E+03  0.00000000000E+00 0. -1.
          2   -1    0    0  501    0  0.00000000000E+00 -0.00000000000E+00 -0.20692623764E+03  0.20692623764E+03  0.00000000000E+00 0.  1.
         25    2    1    2    0    0  0.31054395717E+02 -0.20168223600E+03  0.10726398517E+03  0.26228976155E+03  0.12510098595E+03 0.  0.
          5    1    3    3  502    0  0.69834495689E+02 -0.16302980759E+03  0.10738825628E+03  0.20737715626E+03  0.41800000000E+01 0. -1.
         -5    1    3    3    0  502 -0.38780099972E+02 -0.38652428413E+02 -0.12427111417E+00  0.54912605286E+02  0.41800000000E+01 0. -1.
        -11    1    1    2    0    0  0.10677627291E+02  0.13454253243E+03 -0.51683831677E+02  0.14452308886E+03  0.00000000000E+00 0.  1.
         11    1    1    2    0    0 -0.41732023008E+02  0.67139703579E+02  0.18588894423E+02  0.81208672793E+02  0.00000000000E+00 0. -1.
</event>
<event>
 7    1  0.2690635E-009  0.5427754E+02  0.7561462E-02  0.1423547E+00
          1   -1    0    0  501    0  0.00000000000E+00  0.00000000000E+00  0.29550359218E+03  0.29550359218E+03  0.00000000000E+00 0. -1.
         -1   -1    0    0    0  501 -0.00000000000E+00 -0.00000000000E+00 -0.63988459150E+02  0.63988459150E+02  0.00000000000E+00 0.  1.
         25    2    1    2    0    0 -0.12732392288E+02  0.21637817764E+01  0.18027429579E+02  0.12704671887E+03  0.12509630208E+03 0.  0.
          5    1    3    3  502    0  0.11133258729E+01  0.75115203952E+01  0.71178347223E+02  0.71704197552E+02  0.41800000000E+01 0.  1.
         -5    1    3    3    0  502 -0.13845718161E+02 -0.53477386188E+01 -0.53150917644E+02  0.55342521320E+02  0.41800000000E+01 0.  1.
        -11    1    1    2    0    0 -0.63899967689E+01 -0.40832005853E+02  0.58912964246E+02  0.71964033496E+02  0.00000000000E+00 0.  1.
         11    1    1    2    0    0  0.19122389057E+02  0.38668224076E+02  0.15457473920E+03  0.16048129896E+03  0.00000000000E+00 0. -1.
</event>
<event>
 7    1  0.2690635E-009  0.1640640E+03  0.7561462E-02  0.1184183E+00
          2   -1    0    0  501    0  0.00000000000E+00  0.00000000000E+00  0.77912074431E+03  0.77912074431E+03  0.00000000000E+00 0. -1.
         -2   -1    0    0    0  501 -0.00000000000E+00 -0.00000000000E+00 -0.35828037503E+02  0.35828037503E+02  0.00000000000E+00 0.  1.
         25    2    1    2    0    0 -0.42844332891E+02  0.11757939994E+03  0.43765476146E+03  0.47206942644E+03  0.12508917220E+03 0.  0.
          5    1    3    3  502    0  0.28944741662E+02  0.91827828270E+02  0.19225669275E+03  0.21505872785E+03  0.41800000000E+01 0.  1.
         -5    1    3    3    0  502 -0.71789074552E+02  0.25751571675E+02  0.24539806870E+03  0.25701069859E+03  0.41800000000E+01 0.  1.
        -11    1    1    2    0    0  0.31268424968E+02 -0.13269779393E+03  0.27051474031E+03  0.30292679584E+03  0.00000000000E+00 0. -1.
         11    1    1    2    0    0  0.11575907922E+02  0.15118393981E+02  0.35123205037E+02  0.39952559528E+02  0.00000000000E+00 0.  1.
</event>
<event>
 7    1  0.2690635E-009  0.1084765E+03  0.7561462E-02  0.1263417E+00
         -3   -1    0    0    0  501 -0.00000000000E+00  0.00000000000E+00  0.41000957592E+03  0.41000957592E+03  0.00000000000E+00 0.  1.
          3   -1    0    0  501    0  0.00000000000E+00 -0.00000000000E+00 -0.57402721498E+02  0.57402721498E+02  0.00000000000E+00 0. -1.
         25    2    1    2    0    0  0.13182762012E+02  0.28629622508E+02  0.33503576180E+03  0.35900858733E+03  0.12507902939E+03 0.  0.
          5    1    3    3  502    0 -0.55243319102E+02  0.20908130566E+01  0.14832477167E+03  0.15834742213E+03  0.41800000000E+01 0.  1.
         -5    1    3    3    0  502  0.68426081115E+02  0.26538809451E+02  0.18671099013E+03  0.20066116520E+03  0.41800000000E+01 0.  1.
        -11    1    1    2    0    0 -0.47201125794E+02 -0.70739038196E+01  0.40029228273E+02  0.62292258810E+02  0.00000000000E+00 0.  1.
         11    1    1    2    0    0  0.34018363782E+02 -0.21555718688E+02 -0.22458135647E+02  0.46111451282E+02  0.00000000000E+00 0. -1.
</event>
<event>
 7    1  0.2690635E-009  0.1401387E+03  0.7561462E-02  0.1213143E+00
         -2   -1    0    0    0  501 -0.00000000000E+00  0.00000000000E+00  0.19493031886E+03  0.19493031886E+03  0.00000000000E+00 0.  1.
          2   -1    0    0  501    0  0.00000000000E+00 -0.00000000000E+00 -0.15293476147E+03  0.15293476147E+03  0.00000000000E+00 0. -1.
         25    2    1    2    0    0 -0.12014459516E+03  0.59063749889E+02  0.15691847309E+02  0.18389321908E+03  0.12508889502E+03 0.  0.
          5    1    3    3  502    0 -0.12559335780E+03  0.59598271283E+02  0.50836983131E+02  0.14807942706E+03  0.41800000000E+01 0.  1.
         -5    1    3    3    0  502  0.54487626440E+01 -0.53452139389E+00 -0.35145135822E+02  0.35813792028E+02  0.41800000000E+01 0.  1.
        -11    1    1    2    0    0  0.10656670628E+03 -0.48390515562E+02  0.55901410355E+02  0.12970378778E+03  0.00000000000E+00 0.  1.
         11    1    1    2    0    0  0.13577888876E+02 -0.10673234327E+02 -0.29597700277E+02  0.34268073465E+02  0.00000000000E+00 0. -1.
</event>
<event>
 7    1  0.2690635E-009  0.1126886E+03  0.7561462E-02  0.1255670E+00
         -3   -1    0    0    0  501 -0.00000000000E+00  0.00000000000E+00  0.73479537695E+02  0.73479537695E+02  0.00000000000E+00 0.  1.
          3   -1    0    0  501    0  0.00000000000E+00 -0.00000000000E+00 -0.18602645327E+03  0.18602645327E+03  0.00000000000E+00 0. -1.
         25    2    1    2    0    0 -0.62042206872E+01 -0.43877408811E+02 -0.57191504854E+02  0.14450619746E+03  0.12508978183E+03 0.  0.
          5    1    3    3  502    0 -0.12890124331E+02 -0.86956409361E+02 -0.46006354584E+02  0.99305737479E+02  0.41800000000E+01 0.  1.
         -5    1    3    3    0  502  0.66859036443E+01  0.43079000550E+02 -0.11185150270E+02  0.45200459981E+02  0.41800000000E+01 0.  1.
        -11    1    1    2    0    0  0.44421105239E+02  0.22725753761E+02 -0.50596993749E+02  0.71061594769E+02  0.00000000000E+00 0.  1.
         11    1    1    2    0    0 -0.38216884552E+02  0.21151655050E+02 -0.47584169723E+01  0.43938198737E+02  0.00000000000E+00 0. -1.
</event>
<event>
 7    1  0.2690635E-009  0.1355535E+03  0.7561462E-02  0.1219440E+00
          2   -1    0    0  501    0  0.00000000000E+00  0.00000000000E+00  0.40459033988E+03  0.40459033988E+03  0.00000000000E+00 0. -1.
         -2   -1    0    0    0  501 -0.00000000000E+00 -0.00000000000E+00 -0.66331844679E+02  0.66331844679E+02  0.00000000000E+00 0.  1.
         25    2    1    2    0    0 -0.65192672889E+02  0.10440345490E+03  0.18502655351E+03  0.25501462175E+03  0.12508983096E+03 0.  0.
          5    1    3    3  502    0 -0.17461633797E+02  0.92178979893E+02  0.18280465192E+03  0.20551614573E+03  0.41800000000E+01 0. -1.
         -5    1    3    3    0  502 -0.47731039093E+02  0.12224475008E+02  0.22219015865E+01  0.49498476025E+02  0.41800000000E+01 0. -1.
        -11    1    1    2    0    0  0.44881340157E+02 -0.39664569173E+02  0.14733582613E+02  0.61682178939E+02  0.00000000000E+00 0.  1.
         11    1    1    2    0    0  0.20311332732E+02 -0.64738885728E+02  0.13849835907E+03  0.15422538387E+03  0.00000000000E+00 0. -1.
</event>
<event>
 7    1  0.2690635E-009  0.9938837E+02  0.7561462E-02  0.1281587E+00
          1   -1    0    0  501    0  0.00000000000E+00  0.00000000000E+00  0.38756766879E+02  0.38756766879E+02  0.00000000000E+00 0. -1.
         -1   -1    0    0    0  501 -0.00000000000E+00 -0.00000000000E+00 -0.31535635286E+03  0.31535635286E+03  0.00000000000E+00 0.  1.
         25    2    1    2    0    0 -0.11471026759E+02  0.10460211450E+02 -0.13628877999E+03  0.18564386065E+03  0.12509201000E+03 0.  0.
          5    1    3    3  502    0  0.24208490896E+02 -0.40586273664E+02 -0.10627366560E+03  0.11638239146E+03  0.41800000000E+01 0.  1.
         -5    1    3    3    0  502 -0.35679517655E+02  0.51046485114E+02 -0.30015114388E+02  0.69261469190E+02  0.41800000000E+01 0.  1.
        -11    1    1    2    0    0 -0.25535376467E+02 -0.35865320231E+02 -0.44164930361E+02  0.62361187612E+02  0.00000000000E+00 0.  1.
         11    1    1    2    0    0  0.37006403227E+02  0.25405108781E+02 -0.96145875632E+02  0.10610807148E+03  0.00000000000E+00 0. -1.
</event>
<event>
 7    1  0.2690635E-009  0.1112458E+03  0.7561462E-02  0.1258280E+00
         -2   -1    0    0    0  501 -0.00000000000E+00  0.00000000000E+00  0.90685806194E+02  0.90685806194E+02  0.00000000000E+00 0. -1.
          2   -1    0    0  501    0  0.00000000000E+00 -0.00000000000E+00 -0.15402312570E+03  0.15402312570E+03  0.00000000000E+00 0.  1.
         25    2    1    2    0    0 -0.35895548604E+01 -0.38419889982E+02 -0.51676379881E+01  0.13100668505E+03  0.12508826561E+03 0.  0.
          5    1    3    3  502    0 -0.14924087371E+02  0.43298966935E+02 -0.13632450033E+02  0.47967124319E+02  0.41800000000E+01 0. -1.
         -5    1    3    3    0  502  0.11334532510E+02 -0.81718856917E+02  0.84648120452E+01  0.83039560728E+02  0.41800000000E+01 0. -1.
        -11    1    1    2    0    0  0.44630420171E+02  0.20475619153E+02 -0.14631235743E+02  0.51236690405E+02  0.00000000000E+00 0. -1.
         11    1    1    2    0    0 -0.41040865311E+02  0.17944270828E+02 -0.43538445776E+02  0.62465556442E+02  0.00000000000E+00 0.  1.
</event>
<event>
 7    1  0.2690635E-009  0.1121143E+03  0.7561462E-02  0.1256704E+00
         -1   -1    0    0    0  501 -0.00000000000E+00  0.00000000000E+00  0.33689426119E+03  0.33689426119E+03  0.00000000000E+00 0. -1.
          1   -1    0    0  501    0  0.00000000000E+00 -0.00000000000E+00 -0.12369512149E+03  0.12369512149E+03  0.00000000000E+00 0.  1.
         25    2    1    2    0    0  0.85339341752E+02 -0.19379203778E+01  0.28263485121E+03  0.32064899386E+03  0.12508700715E+03 0.  0.
          5    1    3    3  502    0  0.49763852201E+01 -0.30331559305E+02  0.19816453046E+03  0.20057771919E+03  0.41800000000E+01 0. -1.
         -5    1    3    3    0  502  0.80362956532E+02  0.28393638928E+02  0.84470320744E+02  0.12007127467E+03  0.41800000000E+01 0. -1.
        -11    1    1    2    0    0  0.93600313364E+01 -0.84465797157E+01  0.98479494540E+01  0.15998031253E+02  0.00000000000E+00 0. -1.
         11    1    1    2    0    0 -0.94699373089E+02  0.10384500094E+02 -0.79283660957E+02  0.12394235757E+03  0.00000000000E+00 0.  1.
</event>
<event>
 7    1  0.2690635E-009  0.1136497E+03  0.7561462E-02  0.1253957E+00
         -2   -1    0    0    0  501 -0.00000000000E+00  0.00000000000E+00  0.29195354099E+02  0.29195354099E+02  0.00000000000E+00 0. -1.
          2   -1    0    0  501    0  0.00000000000E+00 -0.00000000000E+00 -0.12574559612E+04  0.12574559612E+04  0.00000000000E+00 0.  1.
         25    2    1    2    0    0 -0.57446942417E+02 -0.58280923304E+01 -0.11355829707E+04  0.11439091682E+04  0.12508150873E+03 0.  0.
          5    1    3    3  502    0 -0.45886332115E+02  0.51124883207E+02 -0.82806643902E+03  0.83092166237E+03  0.41800000000E+01 0. -1.
         -5    1    3    3    0  502 -0.11560610302E+02 -0.56952975537E+02 -0.30751653168E+03  0.31298750581E+03  0.41800000000E+01 0. -1.
        -11    1    1    2    0    0 -0.21290161675E+02  0.56361926571E+00 -0.46908187781E+02  0.51516664602E+02  0.00000000000E+00 0.  1.
         11    1    1    2    0    0  0.78737104092E+02  0.52644730647E+01 -0.45769448644E+02  0.91225482551E+02  0.00000000000E+00 0. -1.
</event>
<event>
 7    1  0.2833665E-009  0.1174559E+03  0.7561462E-02  0.1247354E+00
         -1   -1    0    0    0  501 -0.00000000000E+00  0.00000000000E+00  0.13403432101E+03  0.13403432101E+03  0.00000000000E+00 0.  1.
          1   -1    0    0  501    0  0.00000000000E+00 -0.00000000000E+00 -0.13807470765E+03  0.13807470765E+03  0.00000000000E+00 0. -1.
         25    2    1    2    0    0 -0.61379488084E+02  0.72895694184E+01  0.51397512590E+02  0.14869118048E+03  0.12508710354E+03 0.  0.
          5    1    3    3  502    0 -0.85352306609E+02  0.31718337156E+02  0.64650804366E+02  0.11175091973E+03  0.41800000000E+01 0. -1.
         -5    1    3    3    0  502  0.23972818525E+02 -0.24428767738E+02 -0.13253291776E+02  0.36940260747E+02  0.41800000000E+01 0. -1.
        -11    1    1    2    0    0  0.19513405614E+02  0.40976914926E+02 -0.31226424714E+02  0.55090563221E+02  0.00000000000E+00 0. -1.
         11    1    1    2    0    0  0.41866082469E+02 -0.48266484345E+02 -0.24211474511E+02  0.68327284963E+02  0.00000000000E+00 0.  1.
</event>
<event>
 7    1  0.2690635E-009  0.2772661E+03  0.7561462E-02  0.1097192E+00
         -1   -1    0    0    0  501 -0.00000000000E+00  0.00000000000E+00  0.17461544535E+03  0.17461544535E+03  0.00000000000E+00 0.  1.
          1   -1    0    0  501    0  0.00000000000E+00 -0.00000000000E+00 -0.13093056514E+04  0.13093056514E+04  0.00000000000E+00 0. -1.
         25    2    1    2    0    0 -0.21324928126E+03 -0.15988721297E+03 -0.11668996354E+04  0.12034703344E+04  0.12508760900E+03 0.  0.
          5    1    3    3  502    0 -0.37239452215E+02  0.13543791196E+02 -0.87571656523E+02  0.96210594569E+02  0.41800000000E+01 0.  1.
         -5    1    3    3    0  502 -0.17600982905E+03 -0.17343100417E+03 -0.10793279789E+04  0.11072597399E+04  0.41800000000E+01 0.  1.
        -11    1    1    2    0    0  0.13201138914E+03  0.11289833478E+03  0.57985791572E+02  0.18312671264E+03  0.00000000000E+00 0.  1.
         11    1    1    2    0    0  0.81237892124E+02  0.46988878192E+02 -0.25776362176E+02  0.97324049636E+02  0.00000000000E+00 0. -1.
</event>
<event>
 7    1  0.2690635E-009  0.1138941E+03  0.7561462E-02  0.1253524E+00
          4   -1    0    0  501    0  0.00000000000E+00  0.00000000000E+00  0.38465103498E+03  0.38465103498E+03  0.00000000000E+00 0. -1.
         -4   -1    0    0    0  501 -0.00000000000E+00 -0.00000000000E+00 -0.35125516010E+02  0.35125516010E+02  0.00000000000E+00 0.  1.
         25    2    1    2    0    0 -0.32323948787E+02  0.17645403290E+02  0.23269464029E+03  0.26673944541E+03  0.12508772200E+03 0.  0.
          5    1    3    3  502    0 -0.47706422913E+02 -0.44178081625E+02  0.13696779099E+03  0.15167482933E+03  0.41800000000E+01 0. -1.
         -5    1    3    3    0  502  0.15382474126E+02  0.61823484915E+02  0.95726849297E+02  0.11506461608E+03  0.41800000000E+01 0. -1.
        -11    1    1    2    0    0  0.26311750186E+02 -0.54991204058E+02  0.74658416100E+02  0.96385786380E+02  0.00000000000E+00 0.  1.
         11    1    1    2    0    0  0.60121986004E+01  0.37345800768E+02  0.42172462586E+02  0.56651319204E+02  0.00000000000E+00 0. -1.
</event>
<event>
 7    1  0.2690635E-009  0.1064123E+03  0.7561462E-02  0.1267362E+00
          2   -1    0    0  501    0  0.00000000000E+00  0.00000000000E+00  0.43022925667E+03  0.43022925667E+03  0.00000000000E+00 0. -1.
         -2   -1    0    0    0  501 -0.00000000000E+00 -0.00000000000E+00 -0.49260832378E+02  0.49260832378E+02  0.00000000000E+00 0.  1.
         25    2    1    2    0    0  0.38032306134E+02  0.75081018146E+02  0.28736490531E+03  0.32451554011E+03  0.12509249128E+03 0.  0.
          5    1    3    3  502    0  0.94578864327E+01 -0.22945226116E+02  0.15633125712E+03  0.15834414852E+03  0.41800000000E+01 0. -1.
         -5    1    3    3    0  502  0.28574419702E+02  0.98026244263E+02  0.13103364819E+03  0.16617139159E+03  0.41800000000E+01 0. -1.
        -11    1    1    2    0    0 -0.12333155457E+02 -0.40786816479E+02 -0.92033477743E+01  0.43593264758E+02  0.00000000000E+00 0.  1.
         11    1    1    2    0    0 -0.25699150678E+02 -0.34294201668E+02  0.10280686675E+03  0.11138128418E+03  0.00000000000E+00 0. -1.
</event>
<event>
 7    1  0.3860323E-009  0.1564592E+03  0.7561462E-02  0.1192753E+00
         -2   -1    0    0    0  501 -0.00000000000E+00  0.00000000000E+00  0.21380566447E+02  0.21380566447E+02  0.00000000000E+00 0.  1.
          2   -1    0    0  501    0  0.00000000000E+00 -0.00000000000E+00 -0.11618806413E+04  0.11618806413E+04  0.00000000000E+00 0. -1.
         25    2    1    2    0    0  0.22554052748E+02 -0.11200516380E+03 -0.60993525286E+03  0.63302634202E+03  0.12508994761E+03 0.  0.
          5    1    3    3  502    0  0.72649986831E+02 -0.50828574431E+02 -0.36360143192E+03  0.37427935858E+03  0.41800000000E+01 0. -1.
         -5    1    3    3    0  502 -0.50095934082E+02 -0.61176589364E+02 -0.24633382094E+03  0.25874698344E+03  0.41800000000E+01 0. -1.
        -11    1    1    2    0    0  0.32057455596E+02  0.66745037449E+02 -0.24156455538E+03  0.25265790092E+03  0.00000000000E+00 0. -1.
         11    1    1    2    0    0 -0.54611508344E+02  0.45260126346E+02 -0.28900026657E+03  0.29757696476E+03  0.00000000000E+00 0.  1.
</event>
<event>
 7    1  0.2690635E-009  0.1506106E+03  0.7561462E-02  0.1199725E+00
          2   -1    0    0  501    0  0.00000000000E+00  0.00000000000E+00  0.42624426780E+03  0.42624426780E+03  0.00000000000E+00 0. -1.
         -2   -1    0    0    0  501 -0.00000000000E+00 -0.00000000000E+00 -0.65730434554E+02  0.65730434554E+02  0.00000000000E+00 0.  1.
         25    2    1    2    0    0  0.81019835606E+02 -0.83766770145E+02  0.26580722591E+03  0.31604259730E+03  0.12509339078E+03 0.  0.
          5    1    3    3  502    0  0.19089189023E+01 -0.91111041758E+02  0.13476298808E+03  0.16273721534E+03  0.41800000000E+01 0. -1.
         -5    1    3    3    0  502  0.79110916704E+02  0.73442716128E+01  0.13104423784E+03  0.15330538196E+03  0.41800000000E+01 0. -1.
        -11    1    1    2    0    0 -0.50529078551E+02  0.11248633200E+02 -0.13369605834E+01  0.51783269419E+02  0.00000000000E+00 0.  1.
         11    1    1    2    0    0 -0.30490757055E+02  0.72518136945E+02  0.96043567919E+02  0.12414883564E+03  0.00000000000E+00 0. -1.
</event>
<event>
 7    1  0.2690635E-009  0.1073083E+03  0.7561462E-02  0.1265637E+00
         -1   -1    0    0    0  501 -0.00000000000E+00  0.00000000000E+00  0.49631697066E+02  0.49631697066E+02  0.00000000000E+00 0.  1.
          1   -1    0    0  501    0  0.00000000000E+00 -0.00000000000E+00 -0.45276347719E+03  0.45276347719E+03  0.00000000000E+00 0. -1.
         25    2    1    2    0    0 -0.40341935248E+01 -0.94644614141E+02 -0.15197593098E+03  0.21844514521E+03  0.12509084766E+03 0.  0.
          5    1    3    3  502    0  0.24215402615E+02 -0.85021440286E+02 -0.31002004072E+02  0.93774344512E+02  0.41800000000E+01 0. -1.
         -5    1    3    3    0  502 -0.28249596140E+02 -0.96231738547E+01 -0.12097392690E+03  0.12467080070E+03  0.41800000000E+01 0. -1.
        -11    1    1    2    0    0 -0.49041582520E+01  0.13848077297E+02  0.47530282872E+01  0.15440572881E+02  0.00000000000E+00 0.  1.
         11    1    1    2    0    0  0.89383517768E+01  0.80796536844E+02 -0.25590887744E+03  0.26850945616E+03  0.00000000000E+00 0. -1.
</event>
<event>
 7    1  0.2690635E-009  0.7700165E+02  0.7561462E-02  0.1337782E+00
         -1   -1    0    0    0  501 -0.00000000000E+00  0.00000000000E+00  0.23379559302E+03  0.23379559302E+03  0.00000000000E+00 0.  1.
          1   -1    0    0  501    0  0.00000000000E+00 -0.00000000000E+00 -0.53714247564E+02  0.53714247564E+02  0.00000000000E+00 0. -1.
         25    2    1    2    0    0  0.92145225712E+01 -0.19586042630E+02  0.12175435420E+03  0.17591074303E+03  0.12510773858E+03 0.  0.
          5    1    3    3  502    0 -0.32567717446E+02 -0.12364666260E+01  0.12569290105E+03  0.12991675351E+03  0.41800000000E+01 0.  1.
         -5    1    3    3    0  502  0.41782240017E+02 -0.18349576004E+02 -0.39385468443E+01  0.45993989516E+02  0.41800000000E+01 0.  1.
        -11    1    1    2    0    0 -0.88981532982E+01  0.47035023623E+02  0.82008500886E+00  0.47876331509E+02  0.00000000000E+00 0. -1.
         11    1    1    2    0    0 -0.31636927301E+00 -0.27448980993E+02  0.57506906246E+02  0.63722766050E+02  0.00000000000E+00 0.  1.
</event>
<event>
 7    1  0.2690635E-009  0.1027187E+03  0.7561462E-02  0.1274681E+00
          2   -1    0    0  501    0  0.00000000000E+00  0.00000000000E+00  0.82503217574E+03  0.82503217574E+03  0.00000000000E+00 0. -1.
         -2   -1    0    0    0  501 -0.00000000000E+00 -0.00000000000E+00 -0.49387910927E+02  0.49387910927E+02  0.00000000000E+00 0.  1.
         25    2    1    2    0    0  0.42273094056E+02 -0.73036684190E+01  0.76876564676E+03  0.78005702292E+03  0.12509189144E+03 0.  0.
          5    1    3    3  502    0  0.74271033519E+02 -0.40974709582E+02  0.45732745863E+03  0.46514620289E+03  0.41800000000E+01 0.  1.
         -5    1    3    3    0  502 -0.31997939462E+02  0.33671041163E+02  0.31143818813E+03  0.31491082003E+03  0.41800000000E+01 0.  1.
        -11    1    1    2    0    0 -0.32075959977E+02 -0.24571766360E+02 -0.25514153095E+02  0.47787141771E+02  0.00000000000E+00 0.  1.
         11    1    1    2    0    0 -0.10197134079E+02  0.31875434779E+02  0.32392771147E+02  0.46575921981E+02  0.00000000000E+00 0. -1.
</event>
<event>
 7    1  0.2690635E-009  0.8987285E+02  0.7561462E-02  0.1303160E+00
          2   -1    0    0  501    0  0.00000000000E+00  0.00000000000E+00  0.12073328008E+03  0.12073328008E+03  0.00000000000E+00 0. -1.
         -2   -1    0    0    0  501 -0.00000000000E+00 -0.00000000000E+00 -0.15663877163E+03  0.15663877163E+03  0.00000000000E+00 0.  1.
         25    2    1    2    0    0 -0.34954382467E+02 -0.33834005400E+02 -0.87747860872E+02  0.16035551413E+03  0.12509058737E+03 0.  0.
          5    1    3    3  502    0  0.27527696801E+01 -0.41492115055E+02  0.19660783728E+02  0.46186493366E+02  0.41800000000E+01 0.  1.
         -5    1    3    3    0  502 -0.37707152147E+02  0.76581096550E+01 -0.10740864460E+03  0.11416902076E+03  0.41800000000E+01 0.  1.
        -11    1    1    2    0    0  0.63218159437E+02  0.14081257562E+02  0.14855314745E+02  0.66449212736E+02  0.00000000000E+00 0.  1.
         11    1    1    2    0    0 -0.28263776970E+02  0.19752747838E+02  0.36987054572E+02  0.50567324842E+02  0.00000000000E+00 0. -1.
</event>
<event>
 7    1  0.2690635E-009  0.1339502E+03  0.7561462E-02  0.1221709E+00
          1   -1    0    0  501    0  0.00000000000E+00  0.00000000000E+00  0.36316016870E+03  0.36316016870E+03  0.00000000000E+00 0. -1.
         -1   -1    0    0    0  501 -0.00000000000E+00 -0.00000000000E+00 -0.54486574800E+02  0.54486574800E+02  0.00000000000E+00 0.  1.
         25    2    1    2    0    0  0.57768057661E+02  0.70925964224E+02  0.17221592026E+03  0.23167224846E+03  0.12508423813E+03 0.  0.
          5    1    3    3  502    0  0.64100627790E+02 -0.15328397516E+02  0.55003258760E+02  0.85945803433E+02  0.41800000000E+01 0.  1.
         -5    1    3    3    0  502 -0.63325701290E+01  0.86254361740E+02  0.11721266150E+03  0.14572644502E+03  0.41800000000E+01 0.  1.
        -11    1    1    2    0    0 -0.59800296890E+02 -0.18201356812E+02  0.11099932432E+03  0.12739001098E+03  0.00000000000E+00 0. -1.
         11    1    1    2    0    0  0.20322392282E+01 -0.52724607411E+02  0.25458349325E+02  0.58584484066E+02  0.00000000000E+00 0.  1.
</event>
<event>
 7    1  0.2690635E-009  0.1350489E+03  0.7561462E-02  0.1220151E+00
         -1   -1    0    0    0  501 -0.00000000000E+00  0.00000000000E+00  0.18093260968E+03  0.18093260968E+03  0.00000000000E+00 0.  1.
          1   -1    0    0  501    0  0.00000000000E+00 -0.00000000000E+00 -0.12385033700E+03  0.12385033700E+03  0.00000000000E+00 0. -1.
         25    2    1    2    0    0  0.67084593060E+01  0.98584802555E+02  0.61812753563E+02  0.17097761838E+03  0.12509421554E+03 0.  0.
          5    1    3    3  502    0 -0.40380898767E+02  0.95434527956E+01 -0.14912090350E+02  0.44289246043E+02  0.41800000000E+01 0.  1.
         -5    1    3    3    0  502  0.47089358073E+02  0.89041349759E+02  0.76724843913E+02  0.12668837233E+03  0.41800000000E+01 0.  1.
        -11    1    1    2    0    0 -0.42028574658E+02 -0.34364588085E+02  0.17792407159E+02  0.57130515091E+02  0.00000000000E+00 0.  1.
         11    1    1    2    0    0  0.35320115353E+02 -0.64220214470E+02 -0.22522888037E+02  0.76674813209E+02  0.00000000000E+00 0. -1.
</event>
<event>
 7    1  0.2690635E-009  0.1389617E+03  0.7561462E-02  0.1214733E+00
          1   -1    0    0  501    0  0.00000000000E+00  0.00000000000E+00  0.33797043890E+03  0.33797043890E+03  0.00000000000E+00 0. -1.
         -1   -1    0    0    0  501 -0.00000000000E+00 -0.00000000000E+00 -0.10744662235E+03  0.10744662235E+03  0.00000000000E+00 0.  1.
         25    2    1    2    0    0  0.65840107096E+02  0.84477914598E+02  0.25620029891E+03  0.30456073459E+03  0.12508880899E+03 0.  0.
          5    1    3    3  502    0  0.15430679464E+02  0.10414009273E+03  0.20219280749E+03  0.22799708021E+03  0.41800000000E+01 0. -1.
         -5    1    3    3    0  502  0.50409427632E+02 -0.19662178128E+02  0.54007491415E+02  0.76563654379E+02  0.41800000000E+01 0. -1.
        -11    1    1    2    0    0 -0.38815782005E+02 -0.11516233292E+02 -0.45155837053E+02  0.60649304876E+02  0.00000000000E+00 0.  1.
         11    1    1    2    0    0 -0.27024325091E+02 -0.72961681306E+02  0.19479354693E+02  0.80207021793E+02  0.00000000000E+00 0. -1.
</event>
<event>
 7    1  0.2690635E-009  0.1329884E+03  0.7561462E-02  0.1223088E+00
          1   -1    0    0  501    0  0.00000000000E+00  0.00000000000E+00  0.78542651936E+03  0.78542651936E+03  0.00000000000E+00 0. -1.
         -1   -1    0    0    0  501 -0.00000000000E+00 -0.00000000000E+00 -0.27833847068E+02  0.27833847068E+02  0.00000000000E+00 0.  1.
         25    2    1    2    0    0  0.40367622573E+02  0.90933316435E+02  0.43074853489E+03  0.45944530674E+03  0.12508907459E+03 0.  0.
          5    1    3    3  502    0  0.52758731335E+02 -0.46092791912E+01  0.23876152397E+03  0.24460021855E+03  0.41800000000E+01 0. -1.
         -5    1    3    3    0  502 -0.12391108763E+02  0.95542595626E+02  0.19198701092E+03  0.21484508819E+03  0.41800000000E+01 0. -1.
        -11    1    1    2    0    0  0.16144285587E+02 -0.21810662769E+02  0.18593951095E+02  0.32894953790E+02  0.00000000000E+00 0.  1.
         11    1    1    2    0    0 -0.56511908160E+02 -0.69122653666E+02  0.30825018630E+03  0.32092010589E+03  0.00000000000E+00 0. -1.
</event>
<event>
 7    1  0.2770104E-009  0.1054621E+03  0.7561462E-02  0.1269212E+00
          1   -1    0    0  501    0  0.00000000000E+00  0.00000000000E+00  0.13498435109E+03  0.13498435109E+03  0.00000000000E+00 0. -1.
         -1   -1    0    0    0  501 -0.00000000000E+00 -0.00000000000E+00 -0.12436200256E+03  0.12436200256E+03  0.00000000000E+00 0.  1.
         25    2    1    2    0    0 -0.67511607394E+02 -0.18854649000E+01  0.25359997573E+02  0.14439277493E+03  0.12507906245E+03 0.  0.
          5    1    3    3  502    0 -0.60285664954E+02 -0.58871934307E+02  0.18700469180E+02  0.86414385351E+02  0.41800000000E+01 0.  1.
         -5    1    3    3    0  502 -0.72259424397E+01  0.56986469407E+02  0.66595283936E+01  0.57978389578E+02  0.41800000000E+01 0.  1.
        -11    1    1    2    0    0  0.29510256162E+02  0.77519058142E+01  0.38598824420E+02  0.49201793759E+02  0.00000000000E+00 0. -1.
         11    1    1    2    0    0  0.38001351232E+02 -0.58664409141E+01 -0.53336473463E+02  0.65751784964E+02  0.00000000000E+00 0.  1.
</event>
<event>
 7    1  0.2690635E-009  0.1028951E+03  0.7561462E-02  0.1274323E+00
          1   -1    0    0  501    0  0.00000000000E+00  0.00000000000E+00  0.28572005219E+03  0.28572005219E+03  0.00000000000E+00 0. -1.
         -1   -1    0    0    0  501 -0.00000000000E+00 -0.00000000000E+00 -0.43420355835E+02  0.43420355835E+02  0.00000000000E+00 0.  1.
         25    2    1    2    0    0  0.25155412398E+01  0.32172048524E+00  0.92567012604E+02  0.15563538017E+03  0.12508912137E+03 0.  0.
          5    1    3    3  502    0  0.55812240008E+02 -0.26678481740E+02  0.29501950226E+02  0.68662835579E+02  0.41800000000E+01 0. -1.
         -5    1    3    3    0  502 -0.53296698768E+02  0.27000202225E+02  0.63065062378E+02  0.86972544590E+02  0.41800000000E+01 0. -1.
        -11    1    1    2    0    0 -0.97308647571E+01 -0.41227018258E+02  0.50396814293E+02  0.65834608332E+02  0.00000000000E+00 0.  1.
         11    1    1    2    0    0  0.72153235173E+01  0.40905297772E+02  0.99335869457E+02  0.10767041952E+03  0.00000000000E+00 0. -1.
</event>
<event>
 7    1  0.2690635E-009  0.8772073E+02  0.7561462E-02  0.1308467E+00
          1   -1    0    0  501    0  0.00000000000E+00  0.00000000000E+00  0.57233777809E+02  0.57233777809E+02  0.00000000000E+00 0. -1.
         -1   -1    0    0    0  501 -0.00000000000E+00 -0.00000000000E+00 -0.26738180191E+03  0.26738180191E+03  0.00000000000E+00 0.  1.
         25    2    1    2    0    0 -0.41648096943E+02 -0.32069844112E+02 -0.83500384674E+02  0.15931916944E+03  0.12508894687E+03 0.  0.
          5    1    3    3  502    0 -0.55432889015E+02 -0.33333412689E+02 -0.11083416231E+03  0.12839628313E+03  0.41800000000E+01 0.  1.
         -5    1    3    3    0  502  0.13784792072E+02  0.12635685774E+01  0.27333777635E+02  0.30922886312E+02  0.41800000000E+01 0.  1.
        -11    1    1    2    0    0  0.23730244866E+02 -0.26112590909E+02 -0.83583345128E+02  0.90725781938E+02  0.00000000000E+00 0.  1.
         11    1    1    2    0    0  0.17917852077E+02  0.58182435021E+02 -0.43064294300E+02  0.74570628344E+02  0.00000000000E+00 0. -1.
</event>
<event>
 7    1  0.2690635E-009  0.7394294E+02  0.7561462E-02  0.1347176E+00
          1   -1    0    0  501    0  0.00000000000E+00  0.00000000000E+00  0.37513228369E+02  0.37513228369E+02  0.00000000000E+00 0. -1.
         -1   -1    0    0    0  501 -0.00000000000E+00 -0.00000000000E+00 -0.39363096316E+03  0.39363096316E+03  0.00000000000E+00 0.  1.
         25    2    1    2    0    0 -0.36412230936E+02 -0.36860754496E+02 -0.23044481855E+03  0.26727163564E+03  0.12507896320E+03 0.  0.
          5    1    3    3  502    0 -0.53578255587E+02 -0.36373539233E+02 -0.23898740211E+03  0.24764110037E+03  0.41800000000E+01 0.  1.
         -5    1    3    3    0  502  0.17166024651E+02 -0.48721526237E+00  0.85425835542E+01  0.19630535265E+02  0.41800000000E+01 0.  1.
        -11    1    1    2    0    0  0.44228021240E+02  0.24136725661E+02 -0.13645098027E+03  0.14545641754E+03  0.00000000000E+00 0.  1.
         11    1    1    2    0    0 -0.78157903038E+01  0.12724028835E+02  0.10778064022E+02  0.18416138355E+02  0.00000000000E+00 0. -1.
</event>
<event>
 7    1  0.2690635E-009  0.1371839E+03  0.7561462E-02  0.1217169E+00
         -2   -1    0    0    0  501 -0.00000000000E+00  0.00000000000E+00  0.23295275062E+02  0.23295275062E+02  0.00000000000E+00 0.  1.
          2   -1    0    0  501    0  0.00000000000E+00 -0.00000000000E+00 -0.13898207238E+04  0.13898207238E+04  0.00000000000E+00 0. -1.
         25    2    1    2    0    0 -0.86433322560E+02 -0.66113561839E+02 -0.10860140061E+04  0.10985968425E+04  0.12508748431E+03 0.  0.
          5    1    3    3  502    0 -0.87582655601E+02  0.98273521928E+01 -0.50894744165E+03  0.51653873928E+03  0.41800000000E+01 0.  1.
         -5    1    3    3    0  502  0.11493330407E+01 -0.75940914032E+02 -0.57706656443E+03  0.58205810326E+03  0.41800000000E+01 0.  1.
        -11    1    1    2    0    0  0.30827057310E+02  0.13980273586E+02 -0.12833423457E+02  0.36200169469E+02  0.00000000000E+00 0.  1.
         11    1    1    2    0    0  0.55606265250E+02  0.52133288253E+02 -0.26767801921E+03  0.27831898686E+03  0.00000000000E+00 0. -1.
</event>
<event>
 7    1  0.2690635E-009  0.9173965E+02  0.7561462E-02  0.1298693E+00
          4   -1    0    0  501    0  0.00000000000E+00  0.00000000000E+00  0.49247673053E+03  0.49247673053E+03  0.00000000000E+00 0. -1.
         -4   -1    0    0    0  501 -0.00000000000E+00 -0.00000000000E+00 -0.27872604614E+02  0.27872604614E+02  0.00000000000E+00 0.  1.
         25    2    1    2    0    0 -0.17074557323E+02  0.17234773798E+02  0.34635987289E+03  0.36905446397E+03  0.12508979933E+03 0.  0.
          5    1    3    3  502    0  0.54270574029E+02  0.11925605002E+02  0.14729710575E+03  0.15748468187E+03  0.41800000000E+01 0. -1.
         -5    1    3    3    0  502 -0.71345131352E+02  0.53091687961E+01  0.19906276713E+03  0.21156978210E+03  0.41800000000E+01 0. -1.
        -11    1    1    2    0    0 -0.16609075987E+02 -0.14925014141E+02 -0.55250834621E+01  0.23003130211E+02  0.00000000000E+00 0.  1.
         11    1    1    2    0    0  0.33683633310E+02 -0.23097596570E+01  0.12376933649E+03  0.12829174096E+03  0.00000000000E+00 0. -1.
</event>
<event>
 7    1  0.2690635E-009  0.9584587E+02  0.7561462E-02  0.1289282E+00
         -1   -1    0    0    0  501 -0.00000000000E+00  0.00000000000E+00  0.77739339809E+02  0.77739339809E+02  0.00000000000E+00 0.  1.
          1   -1    0    0  501    0  0.00000000000E+00 -0.00000000000E+00 -0.20677925957E+03  0.20677925957E+03  0.00000000000E+00 0. -1.
         25    2    1    2    0    0  0.44200749081E+02 -0.26654896651E+02 -0.11671458269E+03  0.17869906888E+03  0.12508746408E+03 0.  0.
          5    1    3    3  502    0 -0.20420594460E+02 -0.13282579407E+02  0.16678159409E+02  0.29817125869E+02  0.41800000000E+01 0.  1.
         -5    1    3    3    0  502  0.64621343541E+02 -0.13372317244E+02 -0.13339274210E+03  0.14888194301E+03  0.41800000000E+01 0.  1.
        -11    1    1    2    0    0 -0.12878362131E+02  0.56282954414E+02 -0.21728789794E+02  0.61690870270E+02  0.00000000000E+00 0.  1.
         11    1    1    2    0    0 -0.31322386950E+02 -0.29628057763E+02  0.94034527199E+01  0.44128660234E+02  0.00000000000E+00 0. -1.
</event>
<event>
 7    1  0.2690635E-009  0.8808130E+02  0.7561462E-02  0.1307566E+00
         -2   -1    0    0    0  501 -0.00000000000E+00  0.00000000000E+00  0.27313305072E+02  0.27313305072E+02  0.00000000000E+00 0.  1.
          2   -1    0    0  501    0  0.00000000000E+00 -0.00000000000E+00 -0.67336007269E+03  0.67336007269E+03  0.00000000000E+00 0. -1.
         25    2    1    2    0    0 -0.49859025536E+02 -0.27921511499E+02 -0.49872036750E+03  0.51733525610E+03  0.12509288155E+03 0.  0.
          5    1    3    3  502    0 -0.23094718782E+02 -0.44062693353E+02 -0.62567878111E+02  0.80044354907E+02  0.41800000000E+01 0.  1.
         -5    1    3    3    0  502 -0.26764306754E+02  0.16141181854E+02 -0.43615248939E+03  0.43729090120E+03  0.41800000000E+01 0.  1.
        -11    1    1    2    0    0  0.25460905362E+02 -0.25464040484E+02 -0.15828430896E+02  0.39334644834E+02  0.00000000000E+00 0.  1.
         11    1    1    2    0    0  0.24398120174E+02  0.53385551983E+02 -0.13149796922E+03  0.14400347682E+03  0.00000000000E+00 0. -1.
</event>
<event>
 7    1  0.2690635E-009  0.2274515E+03  0.7561462E-02  0.1128446E+00
         -1   -1    0    0    0  501 -0.00000000000E+00  0.00000000000E+00  0.53081667876E+02  0.53081667876E+02  0.00000000000E+00 0.  1.
          1   -1    0    0  501    0  0.00000000000E+00 -0.00000000000E+00 -0.13454319253E+04  0.13454319253E+04  0.00000000000E+00 0. -1.
         25    2    1    2    0    0  0.16515241355E+03  0.15353808413E+03 -0.91551676893E+03  0.95114030384E+03  0.12509060883E+03 0.  0.
          5    1    3    3  502    0  0.13110455565E+03  0.98425330734E+02 -0.81604578522E+03  0.83236058666E+03  0.41800000000E+01 0.  1.
         -5    1    3    3    0  502  0.34047857900E+02  0.55112753392E+02 -0.99470983708E+02  0.11877971718E+03  0.41800000000E+01 0.  1.
        -11    1    1    2    0    0 -0.10435404163E+03 -0.10669475362E+03 -0.16713633892E+03  0.22407162302E+03  0.00000000000E+00 0.  1.
         11    1    1    2    0    0 -0.60798371923E+02 -0.46843330506E+02 -0.20969714957E+03  0.22330166631E+03  0.00000000000E+00 0. -1.
</event>
<event>
 7    1  0.2690635E-009  0.1076713E+03  0.7561462E-02  0.1264944E+00
          2   -1    0    0  501    0  0.00000000000E+00  0.00000000000E+00  0.47647585986E+02  0.47647585986E+02  0.00000000000E+00 0. -1.
         -2   -1    0    0    0  501 -0.00000000000E+00 -0.00000000000E+00 -0.29758188724E+03  0.29758188724E+03  0.00000000000E+00 0.  1.
         25    2    1    2    0    0 -0.16940361015E+02  0.14549445701E+02 -0.20192506805E+03  0.23857868087E+03  0.12508953457E+03 0.  0.
          5    1    3    3  502    0  0.36339105256E+02  0.50247339050E+02 -0.11130608814E+03  0.12748271769E+03  0.41800000000E+01 0. -1.
         -5    1    3    3    0  502 -0.53279466271E+02 -0.35697893349E+02 -0.90618979913E+02  0.11109596319E+03  0.41800000000E+01 0. -1.
        -11    1    1    2    0    0  0.40367415994E+02  0.21647508204E+02 -0.43720096424E+02  0.63321321187E+02  0.00000000000E+00 0.  1.
         11    1    1    2    0    0 -0.23427054980E+02 -0.36196953905E+02 -0.42891367769E+01  0.43329471164E+02  0.00000000000E+00 0. -1.
</event>
<event>
 7    1  0.2690635E-009  0.9630576E+02  0.7561462E-02  0.1288262E+00
          2   -1    0    0  501    0  0.00000000000E+00  0.00000000000E+00  0.17085237649E+03  0.17085237649E+03  0.00000000000E+00 0. -1.
         -2   -1    0    0    0  501 -0.00000000000E+00 -0.00000000000E+00 -0.82007658090E+02  0.82007658090E+02  0.00000000000E+00 0.  1.
         25    2    1    2    0    0  0.25459023206E+02 -0.26183711740E+01  0.53681998446E+01  0.12780956683E+03  0.12510575556E+03 0.  0.
          5    1    3    3  502    0  0.38730884675E+02 -0.44686230109E+02 -0.34169419116E+02  0.68424865304E+02  0.41800000000E+01 0. -1.
         -5    1    3    3    0  502 -0.13271861470E+02  0.42067858935E+02  0.39537618961E+02  0.59384701526E+02  0.41800000000E+01 0. -1.
        -11    1    1    2    0    0 -0.21211846553E+02 -0.40486186769E+02  0.24443455586E+02  0.51832000485E+02  0.00000000000E+00 0.  1.
         11    1    1    2    0    0 -0.42471766533E+01  0.43104557943E+02  0.59033062970E+02  0.73218467265E+02  0.00000000000E+00 0. -1.
</event>
<event>
 7    1  0.2690635E-009  0.1366424E+03  0.7561462E-02  0.1217920E+00
          3   -1    0    0  501    0  0.00000000000E+00  0.00000000000E+00  0.29811951259E+03  0.29811951259E+03  0.00000000000E+00 0. -1.
         -3   -1    0    0    0  501 -0.00000000000E+00 -0.00000000000E+00 -0.78869006477E+02  0.78869006477E+02  0.00000000000E+00 0.  1.
         25    2    1    2    0    0  0.10468015709E+03  0.27610062476E+02  0.11191560610E+03  0.19974235290E+03  0.12510656984E+03 0.  0.
          5    1    3    3  502    0 -0.56124401308E+01  0.22124225454E+02  0.82052286338E+02  0.85270340269E+02  0.41800000000E+01 0.  1.
         -5    1    3    3    0  502  0.11029259722E+03  0.54858370215E+01  0.29863319759E+02  0.11447201264E+03  0.41800000000E+01 0.  1.
        -11    1    1    2    0    0 -0.11013885217E+03 -0.46764130023E+02  0.82167787951E+02  0.14515163103E+03  0.00000000000E+00 0.  1.
         11    1    1    2    0    0  0.54586950809E+01  0.19154067547E+02  0.25167112066E+02  0.32094535132E+02  0.00000000000E+00 0. -1.
</event>
<event>
 7    1  0.2690635E-009  0.9982931E+02  0.7561462E-02  0.1280655E+00
          1   -1    0    0  501    0  0.00000000000E+00  0.00000000000E+00  0.56801688432E+02  0.56801688432E+02  0.00000000000E+00 0. -1.
         -1   -1    0    0    0  501 -0.00000000000E+00 -0.00000000000E+00 -0.30362761333E+03  0.30362761333E+03  0.00000000000E+00 0.  1.
         25    2    1    2    0    0  0.25001999149E+02  0.67445941241E+01 -0.23025645425E+03  0.26331514607E+03  0.12508493880E+03 0.  0.
          5    1    3    3  502    0  0.54292702899E+01 -0.49615840687E+02 -0.17450781385E+03  0.18155345801E+03  0.41800000000E+01 0.  1.
         -5    1    3    3    0  502  0.19572728859E+02  0.56360434811E+02 -0.55748640404E+02  0.81761688057E+02  0.41800000000E+01 0.  1.
        -11    1    1    2    0    0  0.11166155106E+02  0.33702289768E+02  0.97356343372E+01  0.36814534241E+02  0.00000000000E+00 0. -1.
         11    1    1    2    0    0 -0.36168154256E+02 -0.40446883892E+02 -0.26305104985E+02  0.60299621451E+02  0.00000000000E+00 0.  1.
</event>
<event>
 7    1  0.2690635E-009  0.8211386E+02  0.7561462E-02  0.1323157E+00
          2   -1    0    0  501    0  0.00000000000E+00  0.00000000000E+00  0.54637307058E+03  0.54637307058E+03  0.00000000000E+00 0. -1.
         -2   -1    0    0    0  501 -0.00000000000E+00 -0.00000000000E+00 -0.31551872347E+02  0.31551872347E+02  0.00000000000E+00 0.  1.
         25    2    1    2    0    0  0.16122413079E+01  0.49074208084E+02  0.16359756741E+03  0.21170267443E+03  0.12507190362E+03 0.  0.
          5    1    3    3  502    0  0.20000370001E+02 -0.19322000423E+01 -0.14733433271E+02  0.25264493921E+02  0.41800000000E+01 0. -1.
         -5    1    3    3    0  502 -0.18388128693E+02  0.51006408126E+02  0.17833100068E+03  0.18643818050E+03  0.41800000000E+01 0. -1.
        -11    1    1    2    0    0 -0.33653251995E+02 -0.38124714436E+01  0.53077264812E+02  0.62962467774E+02  0.00000000000E+00 0.  1.
         11    1    1    2    0    0  0.32041010687E+02 -0.45261736640E+02  0.29814636601E+03  0.30325980072E+03  0.00000000000E+00 0. -1.
</event>
<event>
 7    1  0.2690635E-009  0.1030994E+03  0.7561462E-02  0.1273910E+00
         -2   -1    0    0    0  501 -0.00000000000E+00  0.00000000000E+00  0.14717543726E+03  0.14717543726E+03  0.00000000000E+00 0.  1.
          2   -1    0    0  501    0  0.00000000000E+00 -0.00000000000E+00 -0.11483614246E+03  0.11483614246E+03  0.00000000000E+00 0. -1.
         25    2    1    2    0    0  0.21970230647E+01  0.37429800449E+02 -0.43867487222E+02  0.13775874101E+03  0.12508915787E+03 0.  0.
          5    1    3    3  502    0  0.23581541206E+02 -0.41912877933E+02 -0.17756410489E+02  0.51434822209E+02  0.41800000000E+01 0.  1.
         -5    1    3    3    0  502 -0.21384518141E+02  0.79342678381E+02 -0.26111076733E+02  0.86323918800E+02  0.41800000000E+01 0.  1.
        -11    1    1    2    0    0 -0.29379353283E+01  0.18992646792E+02  0.63592024624E+02  0.66432655313E+02  0.00000000000E+00 0.  1.
         11    1    1    2    0    0  0.74091226366E+00 -0.56422447241E+02  0.12614757406E+02  0.57820183397E+02  0.00000000000E+00 0. -1.
</event>
<event>
 7    1  0.2690635E-009  0.1188417E+03  0.7561462E-02  0.1245020E+00
          2   -1    0    0  501    0  0.00000000000E+00  0.00000000000E+00  0.91773328137E+02  0.91773328137E+02  0.00000000000E+00 0. -1.
         -2   -1    0    0    0  501 -0.00000000000E+00 -0.00000000000E+00 -0.25089896744E+03  0.25089896744E+03  0.00000000000E+00 0.  1.
         25    2    1    2    0    0 -0.36152926492E+02  0.71511804656E+02 -0.16141630445E+03  0.21936932886E+03  0.12508679709E+03 0.  0.
          5    1    3    3  502    0  0.46621197596E+01  0.93624210804E+02 -0.13885734513E+03  0.16758897012E+03  0.41800000000E+01 0. -1.
         -5    1    3    3    0  502 -0.40815046251E+02 -0.22112406148E+02 -0.22558959315E+02  0.51780358743E+02  0.41800000000E+01 0. -1.
        -11    1    1    2    0    0  0.48660498477E+02 -0.69083802358E+02 -0.29142986424E+02  0.89385286921E+02  0.00000000000E+00 0.  1.
         11    1    1    2    0    0 -0.12507571986E+02 -0.24280022982E+01  0.31433651564E+02  0.33917679796E+02  0.00000000000E+00 0. -1.
</event>
<event>
 7    1  0.2690635E-009  0.1237320E+03  0.7561462E-02  0.1237064E+00
         -1   -1    0    0    0  501 -0.00000000000E+00  0.00000000000E+00  0.29680984460E+02  0.29680984460E+02  0.00000000000E+00 0.  1.
          1   -1    0    0  501    0  0.00000000000E+00 -0.00000000000E+00 -0.66579531784E+03  0.66579531784E+03  0.00000000000E+00 0. -1.
         25    2    1    2    0    0  0.38223550091E+02 -0.58998427966E+02 -0.48277076825E+03  0.50364445093E+03  0.12509302137E+03 0.  0.
          5    1    3    3  502    0  0.14198583860E+02  0.34041574182E+02 -0.64143967358E+02  0.74110387294E+02  0.41800000000E+01 0. -1.
         -5    1    3    3    0  502  0.24024966231E+02 -0.93040002148E+02 -0.41862680089E+03  0.42953406364E+03  0.41800000000E+01 0. -1.
        -11    1    1    2    0    0  0.40180690787E+01 -0.22238243327E+02 -0.20640768207E+02  0.30605974213E+02  0.00000000000E+00 0.  1.
         11    1    1    2    0    0 -0.42241619170E+02  0.81236671293E+02 -0.13270279693E+03  0.16122587716E+03  0.00000000000E+00 0. -1.
</event>
<event>
 7    1  0.2690635E-009  0.1630324E+03  0.7561462E-02  0.1185315E+00
         -1   -1    0    0    0  501 -0.00000000000E+00  0.00000000000E+00  0.62821560475E+03  0.62821560475E+03  0.00000000000E+00 0. -1.
          1   -1    0    0  501    0  0.00000000000E+00 -0.00000000000E+00 -0.51317784247E+02  0.51317784247E+02  0.00000000000E+00 0.  1.
         25    2    1    2    0    0  0.16623930810E+02 -0.12565668824E+03  0.18084527608E+03  0.25380951439E+03  0.12509315464E+03 0.  0.
          5    1    3    3  502    0 -0.51957896006E+02 -0.78326365299E+02  0.85721756424E+02  0.12728053419E+03  0.41800000000E+01 0. -1.
         -5    1    3    3    0  502  0.68581826816E+02 -0.47330322941E+02  0.95123519657E+02  0.12652898020E+03  0.41800000000E+01 0. -1.
        -11    1    1    2    0    0  0.30562593691E+02  0.35947369553E+02  0.71119841289E+02  0.85348212259E+02  0.00000000000E+00 0.  1.
         11    1    1    2    0    0 -0.47186524501E+02  0.89709318687E+02  0.32493270313E+03  0.34037566235E+03  0.00000000000E+00 0. -1.
</event>
<event>
 7    1  0.2690635E-009  0.1160196E+03  0.7561462E-02  0.1249812E+00
          2   -1    0    0  501    0  0.00000000000E+00  0.00000000000E+00  0.10777138230E+04  0.10777138230E+04  0.00000000000E+00 0. -1.
         -2   -1    0    0    0  501 -0.00000000000E+00 -0.00000000000E+00 -0.14670240117E+02  0.14670240117E+02  0.00000000000E+00 0.  1.
         25    2    1    2    0    0 -0.17636953768E+02 -0.56880163335E+02  0.70787143821E+03  0.72130056279E+03  0.12508442639E+03 0.  0.
          5    1    3    3  502    0 -0.62923378392E+02 -0.20519073413E+02  0.21483203050E+03  0.22483473409E+03  0.41800000000E+01 0. -1.
         -5    1    3    3    0  502  0.45286424624E+02 -0.36361089922E+02  0.49303940771E+03  0.49646582870E+03  0.41800000000E+01 0. -1.
        -11    1    1    2    0    0  0.41394782489E+02 -0.45374193381E+01  0.13642004761E+03  0.14263430717E+03  0.00000000000E+00 0.  1.
         11    1    1    2    0    0 -0.23757828722E+02  0.61417582673E+02  0.21875209708E+03  0.22844919317E+03  0.00000000000E+00 0. -1.
</event>
<event>
 7    1  0.2976695E-009  0.1018727E+03  0.7561462E-02  0.1276407E+00
         -3   -1    0    0    0  501 -0.00000000000E+00  0.00000000000E+00  0.12785115086E+03  0.12785115086E+03  0.00000000000E+00 0.  1.
          3   -1    0    0  501    0  0.00000000000E+00 -0.00000000000E+00 -0.11702555242E+03  0.11702555242E+03  0.00000000000E+00 0. -1.
         25    2    1    2    0    0  0.50773009705E+02 -0.26303595413E+02  0.12913701073E+02  0.13814576334E+03  0.12509080944E+03 0.  0.
          5    1    3    3  502    0  0.18421226166E+02  0.49035898093E+02 -0.86669912768E+01  0.53258332804E+02  0.41800000000E+01 0.  1.
         -5    1    3    3    0  502  0.32351783539E+02 -0.75339493507E+02  0.21580692349E+02  0.84887430532E+02  0.41800000000E+01 0.  1.
        -11    1    1    2    0    0 -0.41813408407E+02  0.53509105855E+00  0.39151354980E+02  0.57284169208E+02  0.00000000000E+00 0.  1.
         11    1    1    2    0    0 -0.89596012977E+01  0.25768504355E+02 -0.41239457616E+02  0.49446770739E+02  0.00000000000E+00 0. -1.
</event>
<event>
 7    1  0.2690635E-009  0.8606533E+02  0.7561462E-02  0.1312670E+00
          2   -1    0    0  501    0  0.00000000000E+00  0.00000000000E+00  0.64894956380E+02  0.64894956380E+02  0.00000000000E+00 0. -1.
         -2   -1    0    0    0  501 -0.00000000000E+00 -0.00000000000E+00 -0.22639129556E+03  0.22639129556E+03  0.00000000000E+00 0.  1.
         25    2    1    2    0    0 -0.20673703145E+02 -0.13826940060E+02 -0.15786147870E+03  0.20294755536E+03  0.12509547353E+03 0.  0.
          5    1    3    3  502    0 -0.68422253604E+02 -0.13686610237E+02 -0.53238760012E+02  0.87867889787E+02  0.41800000000E+01 0. -1.
         -5    1    3    3    0  502  0.47748550459E+02 -0.14032982234E+00 -0.10462271868E+03  0.11507966557E+03  0.41800000000E+01 0. -1.
        -11    1    1    2    0    0  0.36556395065E+02  0.83686340417E+01 -0.35930979957E+02  0.51936878772E+02  0.00000000000E+00 0.  1.
         11    1    1    2    0    0 -0.15882691920E+02  0.54583060178E+01  0.32296119470E+02  0.36401817812E+02  0.00000000000E+00 0. -1.
</event>
<event>
 7    1  0.2690635E-009  0.1535263E+03  0.7561462E-02  0.1196206E+00
          1   -1    0    0  501    0  0.00000000000E+00  0.00000000000E+00  0.35610749704E+03  0.35610749704E+03  0.00000000000E+00 0. -1.
         -1   -1    0    0    0  501 -0.00000000000E+00 -0.00000000000E+00 -0.10202603499E+03  0.10202603499E+03  0.00000000000E+00 0.  1.
         25    2    1    2    0    0  0.10882033174E+03 -0.10334045185E+03  0.18719951446E+03  0.27057752588E+03  0.12508967066E+03 0.  0.
          5    1    3    3  502    0  0.62895790301E+02 -0.59181745157E+02  0.18777729663E+03  0.20672722348E+03  0.41800000000E+01 0. -1.
         -5    1    3    3    0  502  0.45924541443E+02 -0.44158706695E+02 -0.57778217397E+00  0.63850302395E+02  0.41800000000E+01 0. -1.
        -11    1    1    2    0    0 -0.52289135388E+02  0.19885657914E+02 -0.14742149256E+02  0.57852606121E+02  0.00000000000E+00 0.  1.
         11    1    1    2    0    0 -0.56531196356E+02  0.83454793938E+02  0.81624096842E+02  0.12970340002E+03  0.00000000000E+00 0. -1.
</event>
<event>
 7    1  0.2690635E-009  0.1328992E+03  0.7561462E-02  0.1223216E+00
          3   -1    0    0  501    0  0.00000000000E+00  0.00000000000E+00  0.15730545322E+03  0.15730545322E+03  0.00000000000E+00 0. -1.
         -3   -1    0    0    0  501 -0.00000000000E+00 -0.00000000000E+00 -0.13527996091E+03  0.13527996091E+03  0.00000000000E+00 0.  1.
         25    2    1    2    0    0 -0.68640700147E+02  0.68996367851E+02 -0.45380797632E+01  0.15856066760E+03  0.12509535023E+03 0.  0.
          5    1    3    3  502    0 -0.14586863018E+02 -0.36568018706E+02 -0.48553228151E+01  0.39887881924E+02  0.41800000000E+01 0.  1.
         -5    1    3    3    0  502 -0.54053837129E+02  0.10556438656E+03  0.31724305185E+00  0.11867278568E+03  0.41800000000E+01 0.  1.
        -11    1    1    2    0    0  0.68836648584E+02 -0.42209807758E+02  0.52841177973E+02  0.96500477454E+02  0.00000000000E+00 0. -1.
         11    1    1    2    0    0 -0.19594843733E+00 -0.26786560093E+02 -0.26277605904E+02  0.37524269073E+02  0.00000000000E+00 0.  1.
</event>
<event>
 7    1  0.2690635E-009  0.1180779E+03  0.7561462E-02  0.1246302E+00
          1   -1    0    0  501    0  0.00000000000E+00  0.00000000000E+00  0.37854143814E+03  0.37854143814E+03  0.00000000000E+00 0. -1.
         -1   -1    0    0    0  501 -0.00000000000E+00 -0.00000000000E+00 -0.48418483666E+02  0.48418483666E+02  0.00000000000E+00 0.  1.
         25    2    1    2    0    0 -0.25050057145E+02 -0.55117454001E+02  0.11196824212E+03  0.17845555315E+03  0.12507620919E+03 0.  0.
          5    1    3    3  502    0  0.10260351562E+02  0.32386644822E+02  0.63864725872E+02  0.72459265713E+02  0.41800000000E+01 0.  1.
         -5    1    3    3    0  502 -0.35310408707E+02 -0.87504098823E+02  0.48103516248E+02  0.10599628743E+03  0.41800000000E+01 0.  1.
        -11    1    1    2    0    0  0.22050983972E+02  0.79707697250E+02  0.20364045311E+03  0.21979307777E+03  0.00000000000E+00 0. -1.
         11    1    1    2    0    0  0.29990731730E+01 -0.24590243249E+02  0.14514259244E+02  0.28711290886E+02  0.00000000000E+00 0.  1.
</event>
<event>
 7    1  0.2690635E-009  0.1021332E+03  0.7561462E-02  0.1275873E+00
         -3   -1    0    0    0  501 -0.00000000000E+00  0.00000000000E+00  0.34553379930E+03  0.34553379930E+03  0.00000000000E+00 0.  1.
          3   -1    0    0  501    0  0.00000000000E+00 -0.00000000000E+00 -0.46572358909E+02  0.46572358909E+02  0.00000000000E+00 0. -1.
         25    2    1    2    0    0 -0.63389272110E+02  0.20415076582E+01  0.18852005233E+03  0.23496804099E+03  0.12509117708E+03 0.  0.
          5    1    3    3  502    0 -0.85607304991E+02 -0.17849489602E+02  0.18497555631E+03  0.20464760878E+03  0.41800000000E+01 0.  1.
         -5    1    3    3    0  502  0.22218032881E+02  0.19890997260E+02  0.35444960184E+01  0.30320432205E+02  0.41800000000E+01 0.  1.
        -11    1    1    2    0    0 -0.11523917309E+02 -0.19784991852E+01 -0.99427336760E+01  0.15348390213E+02  0.00000000000E+00 0. -1.
         11    1    1    2    0    0  0.74913189420E+02 -0.63008472985E-01  0.12038412173E+03  0.14178972701E+03  0.00000000000E+00 0.  1.
</event>
<event>
 7    1  0.2690635E-009  0.9132347E+02  0.7561462E-02  0.1299678E+00
          1   -1    0    0  501    0  0.00000000000E+00  0.00000000000E+00  0.35468362028E+03  0.35468362028E+03  0.00000000000E+00 0. -1.
         -1   -1    0    0    0  501 -0.00000000000E+00 -0.00000000000E+00 -0.40467711022E+02  0.40467711022E+02  0.00000000000E+00 0.  1.
         25    2    1    2    0    0  0.44139045358E+02  0.27531645561E+02  0.18574707258E+03  0.22990399752E+03  0.12509047235E+03 0.  0.
          5    1    3    3  502    0  0.45999480537E+02 -0.21593103348E+02  0.17095566414E+03  0.17839710150E+03  0.41800000000E+01 0.  1.
         -5    1    3    3    0  502 -0.18604351790E+01  0.49124748909E+02  0.14791408443E+02  0.51506896025E+02  0.41800000000E+01 0.  1.
        -11    1    1    2    0    0 -0.13156759230E+02  0.20978368438E+02  0.96040086186E+02  0.99181099058E+02  0.00000000000E+00 0. -1.
         11    1    1    2    0    0 -0.30982286128E+02 -0.48510013999E+02  0.32428750493E+02  0.66066234722E+02  0.00000000000E+00 0.  1.
</event>
<event>
 7    1  0.2690635E-009  0.2219114E+03  0.7561462E-02  0.1132466E+00
         -2   -1    0    0    0  501 -0.00000000000E+00  0.00000000000E+00  0.48167062120E+02  0.48167062120E+02  0.00000000000E+00 0.  1.
          2   -1    0    0  501    0  0.00000000000E+00 -0.00000000000E+00 -0.11283244924E+04  0.11283244924E+04  0.00000000000E+00 0. -1.
         25    2    1    2    0    0  0.15530632833E+03  0.13538964307E+03 -0.53130659275E+03  0.58342516161E+03  0.12509121722E+03 0.  0.
          5    1    3    3  502    0 -0.13067437326E+02 -0.85575219979E+01 -0.67601390418E+02  0.69508341136E+02  0.41800000000E+01 0.  1.
         -5    1    3    3    0  502  0.16837376566E+03  0.14394716507E+03 -0.46370520233E+03  0.51391682047E+03  0.41800000000E+01 0.  1.
        -11    1    1    2    0    0 -0.82275322432E+02 -0.75010594407E+02 -0.41082279716E+03  0.42564208982E+03  0.00000000000E+00 0.  1.
         11    1    1    2    0    0 -0.73031005899E+02 -0.60379048664E+02 -0.13802804038E+03  0.16742430310E+03  0.00000000000E+00 0. -1.
</event>
<event>
 7    1  0.2690635E-009  0.2204093E+03  0.7561462E-02  0.1133578E+00
         -3   -1    0    0    0  501 -0.00000000000E+00  0.00000000000E+00  0.10522673250E+03  0.10522673250E+03  0.00000000000E+00 0.  1.
          3   -1    0    0  501    0  0.00000000000E+00 -0.00000000000E+00 -0.48671084251E+03  0.48671084251E+03  0.00000000000E+00 0. -1.
         25    2    1    2    0    0 -0.60053396366E+02 -0.18365510055E+03 -0.25831484784E+03  0.34599138995E+03  0.12509146625E+03 0.  0.
          5    1    3    3  502    0  0.67487982294E+01 -0.15510816849E+03 -0.19683537426E+03  0.25073038741E+03  0.41800000000E+01 0. -1.
         -5    1    3    3    0  502 -0.66802194596E+02 -0.28546932063E+02 -0.61479473581E+02  0.95261002539E+02  0.41800000000E+01 0. -1.
        -11    1    1    2    0    0  0.16708921090E+02  0.16451065975E+03 -0.99417191913E+02  0.19294227961E+03  0.00000000000E+00 0.  1.
         11    1    1    2    0    0  0.43344475277E+02  0.19144440806E+02 -0.23752070265E+02  0.53003905447E+02  0.00000000000E+00 0. -1.
</event>
<event>
 7    1  0.2690635E-009  0.9256870E+02  0.7561462E-02  0.1296748E+00
          2   -1    0    0  501    0  0.00000000000E+00  0.00000000000E+00  0.18796054484E+03  0.18796054484E+03  0.00000000000E+00 0. -1.
         -2   -1    0    0    0  501 -0.00000000000E+00 -0.00000000000E+00 -0.14964322771E+03  0.14964322771E+03  0.00000000000E+00 0.  1.
         25    2    1    2    0    0  0.57764196544E+02  0.44176103829E+02  0.12619593130E+03  0.19199198907E+03  0.12508908921E+03 0.  0.
          5    1    3    3  502    0 -0.12668402058E+02  0.31562762718E+02 -0.12006608765E+02  0.36308779312E+02  0.41800000000E+01 0. -1.
         -5    1    3    3    0  502  0.70432598602E+02  0.12613341111E+02  0.13820254007E+03  0.15568320976E+03  0.41800000000E+01 0. -1.
        -11    1    1    2    0    0 -0.31141755601E+02 -0.45717782357E+01 -0.92461034274E+02  0.97671658925E+02  0.00000000000E+00 0.  1.
         11    1    1    2    0    0 -0.26622440943E+02 -0.39604325593E+02  0.45824201027E+01  0.47940124545E+02  0.00000000000E+00 0. -1.
</event>
<event>
 7    1  0.2690635E-009  0.1362042E+03  0.7561462E-02  0.1218530E+00
         -2   -1    0    0    0  501 -0.00000000000E+00  0.00000000000E+00  0.95021632370E+02  0.95021632370E+02  0.00000000000E+00 0.  1.
          2   -1    0    0  501    0  0.00000000000E+00 -0.00000000000E+00 -0.25280269135E+03  0.25280269135E+03  0.00000000000E+00 0. -1.
         25    2    1    2    0    0  0.36325944307E+02  0.88314853859E+02 -0.14926779000E+03  0.21690585144E+03  0.12509271608E+03 0.  0.
          5    1    3    3  502    0 -0.32350369508E+02 -0.11054116082E+02 -0.19533204130E+02  0.39594928378E+02  0.41800000000E+01 0. -1.
         -5    1    3    3    0  502  0.68676313815E+02  0.99368969941E+02 -0.12973458587E+03  0.17731092306E+03  0.41800000000E+01 0. -1.
        -11    1    1    2    0    0 -0.28910270366E+02 -0.43775215191E+00  0.23334117308E+02  0.37154762684E+02  0.00000000000E+00 0.  1.
         11    1    1    2    0    0 -0.74156739410E+01 -0.87877101707E+02 -0.31847386294E+02  0.93763709601E+02  0.00000000000E+00 0. -1.
</event>
<event>
 7    1  0.2690635E-009  0.2672046E+03  0.7561462E-02  0.1102890E+00
          2   -1    0    0  501    0  0.00000000000E+00  0.00000000000E+00  0.69420653951E+03  0.69420653951E+03  0.00000000000E+00 0. -1.
         -2   -1    0    0    0  501 -0.00000000000E+00 -0.00000000000E+00 -0.18894752041E+03  0.18894752041E+03  0.00000000000E+00 0.  1.
         25    2    1    2    0    0 -0.16669318862E+03  0.20486400598E+03  0.52751692557E+03  0.60305619649E+03  0.12508712681E+03 0.  0.
          5    1    3    3  502    0 -0.18981181095E+01  0.28908285903E+01  0.11457098325E+03  0.11469935634E+03  0.41800000000E+01 0.  1.
         -5    1    3    3    0  502 -0.16479507051E+03  0.20197317739E+03  0.41294594231E+03  0.48835684015E+03  0.41800000000E+01 0.  1.
        -11    1    1    2    0    0  0.27752678801E+01 -0.24100353958E+02 -0.26653373725E+02  0.36040692330E+02  0.00000000000E+00 0.  1.
         11    1    1    2    0    0  0.16391792074E+03 -0.18076365202E+03  0.43954672634E+01  0.24405717110E+03  0.00000000000E+00 0. -1.
</event>
<event>
 7    1  0.2690635E-009  0.1951283E+03  0.7561462E-02  0.1153916E+00
          2   -1    0    0  501    0  0.00000000000E+00  0.00000000000E+00  0.87927877879E+03  0.87927877879E+03  0.00000000000E+00 0.  1.
         -2   -1    0    0    0  501 -0.00000000000E+00 -0.00000000000E+00 -0.83351971811E+02  0.83351971811E+02  0.00000000000E+00 0. -1.
         25    2    1    2    0    0 -0.27372352413E+02  0.19032203119E+03  0.69001258482E+03  0.72714463373E+03  0.12510087897E+03 0.  0.
          5    1    3    3  502    0 -0.26956377836E+02  0.14935495230E+03  0.65714208563E+03  0.67445291992E+03  0.41800000000E+01 0. -1.
         -5    1    3    3    0  502 -0.41597457664E+00  0.40967078886E+02  0.32870499195E+02  0.52691713814E+02  0.41800000000E+01 0. -1.
        -11    1    1    2    0    0 -0.97750975222E+01 -0.85153568971E+02  0.63027636430E+01  0.85944212543E+02  0.00000000000E+00 0. -1.
         11    1    1    2    0    0  0.37147449935E+02 -0.10516846222E+03  0.99611458515E+02  0.14954190433E+03  0.00000000000E+00 0.  1.
</event>
<event>
 7    1  0.2690635E-009  0.9693166E+02  0.7561462E-02  0.1286884E+00
         -2   -1    0    0    0  501 -0.00000000000E+00  0.00000000000E+00  0.14254083631E+03  0.14254083631E+03  0.00000000000E+00 0.  1.
          2   -1    0    0  501    0  0.00000000000E+00 -0.00000000000E+00 -0.12379531404E+03  0.12379531404E+03  0.00000000000E+00 0. -1.
         25    2    1    2    0    0 -0.17218414394E+02 -0.51389452953E+01 -0.63653321857E+02  0.14150363627E+03  0.12509456879E+03 0.  0.
          5    1    3    3  502    0 -0.60939496951E+02 -0.64285644510E+01  0.32000830407E+01  0.61503346747E+02  0.41800000000E+01 0. -1.
         -5    1    3    3    0  502  0.43721082558E+02  0.12896191557E+01 -0.66853404898E+02  0.80000289525E+02  0.41800000000E+01 0. -1.
        -11    1    1    2    0    0 -0.21544784703E+02  0.33947963048E+02  0.58398244832E+02  0.70901318341E+02  0.00000000000E+00 0.  1.
         11    1    1    2    0    0  0.38763199097E+02 -0.28809017753E+02  0.24000599295E+02  0.53931195746E+02  0.00000000000E+00 0. -1.
</event>
<event>
 7    1  0.2690635E-009  0.1160134E+03  0.7561462E-02  0.1249822E+00
         -2   -1    0    0    0  501 -0.00000000000E+00  0.00000000000E+00  0.98179133778E+02  0.98179133778E+02  0.00000000000E+00 0. -1.
          2   -1    0    0  501    0  0.00000000000E+00 -0.00000000000E+00 -0.30648200331E+03  0.30648200331E+03  0.00000000000E+00 0.  1.
         25    2    1    2    0    0  0.18271449604E+02 -0.10309178971E+03 -0.20891465306E+03  0.26505518453E+03  0.12508859104E+03 0.  0.
          5    1    3    3  502    0 -0.52332583107E+01  0.45688445112E+01 -0.12805339763E+03  0.12830980624E+03  0.41800000000E+01 0.  1.
         -5    1    3    3    0  502  0.23504707914E+02 -0.10766063422E+03 -0.80861255426E+02  0.13674537829E+03  0.41800000000E+01 0.  1.
        -11    1    1    2    0    0 -0.12783179775E+02  0.26540415456E+01  0.31733174290E+02  0.34313961768E+02  0.00000000000E+00 0. -1.
         11    1    1    2    0    0 -0.54882698282E+01  0.10043774816E+03 -0.31121390761E+02  0.10529199079E+03  0.00000000000E+00 0.  1.
</event>
<event>
 7    1  0.2690635E-009  0.9699583E+02  0.7561462E-02  0.1286743E+00
          1   -1    0    0  501    0  0.00000000000E+00  0.00000000000E+00  0.28881092912E+03  0.28881092912E+03  0.00000000000E+00 0. -1.
         -1   -1    0    0    0  501 -0.00000000000E+00 -0.00000000000E+00 -0.54752815227E+02  0.54752815227E+02  0.00000000000E+00 0.  1.
         25    2    1    2    0    0 -0.31284426279E+02  0.40910788937E+02  0.16104726417E+03  0.21032424630E+03  0.12509060438E+03 0.  0.
          5    1    3    3  502    0 -0.74434884323E+02  0.53844887369E+01  0.64696848718E+02  0.98856964131E+02  0.41800000000E+01 0. -1.
         -5    1    3    3    0  502  0.43150458044E+02  0.35526300200E+02  0.96350415454E+02  0.11146728217E+03  0.41800000000E+01 0. -1.
        -11    1    1    2    0    0  0.24819800926E+01 -0.33316667651E+02  0.92024654030E+02  0.97901468415E+02  0.00000000000E+00 0. -1.
         11    1    1    2    0    0  0.28802446187E+02 -0.75941212858E+01 -0.19013804307E+02  0.35338029638E+02  0.00000000000E+00 0.  1.
</event>
<event>
 7    1  0.2690635E-009  0.1385968E+03  0.7561462E-02  0.1215230E+00
         -2   -1    0    0    0  501 -0.00000000000E+00  0.00000000000E+00  0.11799611756E+04  0.11799611756E+04  0.00000000000E+00 0.  1.
          2   -1    0    0  501    0  0.00000000000E+00 -0.00000000000E+00 -0.18282726859E+02  0.18282726859E+02  0.00000000000E+00 0. -1.
         25    2    1    2    0    0  0.30536586168E+02  0.88253678176E+02  0.76064996540E+03  0.77650246638E+03  0.12508603292E+03 0.  0.
          5    1    3    3  502    0 -0.28489362484E+02  0.88002843130E+02  0.37074779980E+03  0.38213550951E+03  0.41800000000E+01 0. -1.
         -5    1    3    3    0  502  0.59025948652E+02  0.25083504634E+00  0.38990216560E+03  0.39436695687E+03  0.41800000000E+01 0. -1.
        -11    1    1    2    0    0 -0.46089733103E+02 -0.12033716029E+02  0.99118926803E+02  0.10997106651E+03  0.00000000000E+00 0. -1.
         11    1    1    2    0    0  0.15553146935E+02 -0.76219962147E+02  0.30190955652E+03  0.31177036954E+03  0.00000000000E+00 0.  1.
</event>
<event>
 7    1  0.2690635E-009  0.1594260E+03  0.7561462E-02  0.1189346E+00
          1   -1    0    0  501    0  0.00000000000E+00  0.00000000000E+00  0.14598179036E+04  0.14598179036E+04  0.00000000000E+00 0. -1.
         -1   -1    0    0    0  501 -0.00000000000E+00 -0.00000000000E+00 -0.33515119075E+02  0.33515119075E+02  0.00000000000E+00 0.  1.
         25    2    1    2    0    0  0.12752309763E+03 -0.31174910554E+02  0.12153890443E+04  0.12288419271E+04  0.12509171607E+03 0.  0.
          5    1    3    3  502    0  0.10934012357E+03  0.25211584612E+02  0.96471934508E+03  0.97123209059E+03  0.41800000000E+01 0.  1.
         -5    1    3    3    0  502  0.18182974066E+02 -0.56386495166E+02  0.25066969921E+03  0.25760983654E+03  0.41800000000E+01 0.  1.
        -11    1    1    2    0    0 -0.80255846028E+02 -0.14370411681E+02  0.16604264441E+03  0.18498018628E+03  0.00000000000E+00 0. -1.
         11    1    1    2    0    0 -0.47267251607E+02  0.45545322236E+02  0.44871095847E+02  0.79510909280E+02  0.00000000000E+00 0.  1.
</event>
<event>
 7    1  0.2690635E-009  0.1732598E+03  0.7561462E-02  0.1174490E+00
         -1   -1    0    0    0  501 -0.00000000000E+00  0.00000000000E+00  0.59457528335E+02  0.59457528335E+02  0.00000000000E+00 0.  1.
          1   -1    0    0  501    0  0.00000000000E+00 -0.00000000000E+00 -0.10973783034E+04  0.10973783034E+04  0.00000000000E+00 0. -1.
         25    2    1    2    0    0  0.51954762597E+00 -0.17270370619E+03 -0.88068971308E+03  0.90613971606E+03  0.12509186316E+03 0.  0.
          5    1    3    3  502    0 -0.33510167567E+01 -0.16550192208E+02 -0.72718482715E+01  0.18854451801E+02  0.41800000000E+01 0.  1.
         -5    1    3    3    0  502  0.38705643827E+01 -0.15615351398E+03 -0.87341786481E+03  0.88728526426E+03  0.41800000000E+01 0.  1.
        -11    1    1    2    0    0 -0.31362687154E+01  0.35621272526E+02  0.73301836566E+01  0.36502641415E+02  0.00000000000E+00 0.  1.
         11    1    1    2    0    0  0.26167210894E+01  0.13708243366E+03 -0.16456124562E+03  0.21419347424E+03  0.00000000000E+00 0. -1.
</event>
<event>
 7    1  0.2690635E-009  0.1043390E+03  0.7561462E-02  0.1271427E+00
          1   -1    0    0  501    0  0.00000000000E+00  0.00000000000E+00  0.15755797292E+02  0.15755797292E+02  0.00000000000E+00 0. -1.
         -1   -1    0    0    0  501 -0.00000000000E+00 -0.00000000000E+00 -0.95429925253E+03  0.95429925253E+03  0.00000000000E+00 0.  1.
         25    2    1    2    0    0 -0.17400458703E+02  0.47009951740E+02 -0.43848138842E+03  0.45872211812E+03  0.12508933661E+03 0.  0.
          5    1    3    3  502    0 -0.27152847612E+02 -0.20056758558E+02 -0.32310448784E+02  0.46914690640E+02  0.41800000000E+01 0. -1.
         -5    1    3    3    0  502  0.97523889088E+01  0.67066710298E+02 -0.40617093964E+03  0.41180742748E+03  0.41800000000E+01 0. -1.
        -11    1    1    2    0    0 -0.28533245060E+02  0.12863427960E+02 -0.14892743430E+03  0.15218079557E+03  0.00000000000E+00 0. -1.
         11    1    1    2    0    0  0.45933703763E+02 -0.59873379700E+02 -0.35113463252E+03  0.35915213614E+03  0.00000000000E+00 0.  1.
</event>
<event>
 7    1  0.2690635E-009  0.9952185E+02  0.7561462E-02  0.1281305E+00
          2   -1    0    0  501    0  0.00000000000E+00  0.00000000000E+00  0.69061041221E+02  0.69061041221E+02  0.00000000000E+00 0. -1.
         -2   -1    0    0    0  501 -0.00000000000E+00 -0.00000000000E+00 -0.32967031445E+03  0.32967031445E+03  0.00000000000E+00 0.  1.
         25    2    1    2    0    0 -0.77205095634E+02  0.37401017958E+02 -0.62099837304E+02  0.16390227346E+03  0.12509237593E+03 0.  0.
          5    1    3    3  502    0 -0.33184565819E+02  0.26534048884E+02 -0.97361569203E+02  0.10631095295E+03  0.41800000000E+01 0. -1.
         -5    1    3    3    0  502 -0.44020529815E+02  0.10866969074E+02  0.35261731899E+02  0.57591320514E+02  0.41800000000E+01 0. -1.
        -11    1    1    2    0    0  0.31247327268E+02 -0.53636409069E+02 -0.16330183741E+03  0.17470188877E+03  0.00000000000E+00 0.  1.
         11    1    1    2    0    0  0.45957768366E+02  0.16235391111E+02 -0.35207598518E+02  0.60127193441E+02  0.00000000000E+00 0. -1.
</event>
<event>
 7    1  0.2690635E-009  0.1640400E+03  0.7561462E-02  0.1184210E+00
          2   -1    0    0  501    0  0.00000000000E+00  0.00000000000E+00  0.13383633257E+04  0.13383633257E+04  0.00000000000E+00 0. -1.
         -2   -1    0    0    0  501 -0.00000000000E+00 -0.00000000000E+00 -0.27703310902E+02  0.27703310902E+02  0.00000000000E+00 0.  1.
         25    2    1    2    0    0  0.14775513205E+03  0.37818761197E+02  0.84207561431E+03  0.86486986529E+03  0.12508679354E+03 0.  0.
          5    1    3    3  502    0 -0.75509112956E+00  0.47575023058E+00 -0.35033321841E+01  0.55265031700E+01  0.41800000000E+01 0.  1.
         -5    1    3    3    0  502  0.14851022318E+03  0.37343010966E+02  0.84557894650E+03  0.85934336212E+03  0.41800000000E+01 0.  1.
        -11    1    1    2    0    0 -0.13726279578E+03 -0.57098914359E+02  0.34484473635E+03  0.37552530316E+03  0.00000000000E+00 0.  1.
         11    1    1    2    0    0 -0.10492336270E+02  0.19280153162E+02  0.12373966409E+03  0.12567146811E+03  0.00000000000E+00 0. -1.
</event>
<event>
 7    1  0.3421143E-009  0.9633249E+02  0.7561462E-02  0.1288203E+00
          1   -1    0    0  501    0  0.00000000000E+00  0.00000000000E+00  0.66187868225E+02  0.66187868225E+02  0.00000000000E+00 0. -1.
         -1   -1    0    0    0  501 -0.00000000000E+00 -0.00000000000E+00 -0.23133024773E+03  0.23133024773E+03  0.00000000000E+00 0.  1.
         25    2    1    2    0    0  0.12046771756E+02  0.58677033012E+02 -0.91579020232E+02  0.16619694141E+03  0.12508632009E+03 0.  0.
          5    1    3    3  502    0 -0.47370930043E+02  0.50776225017E+02 -0.19282478975E+02  0.72190833459E+02  0.41800000000E+01 0. -1.
         -5    1    3    3    0  502  0.59417701799E+02  0.79008079955E+01 -0.72296541257E+02  0.94006107950E+02  0.41800000000E+01 0. -1.
        -11    1    1    2    0    0  0.54490320917E+01 -0.12856131850E+02 -0.80574194252E+02  0.81775135929E+02  0.00000000000E+00 0.  1.
         11    1    1    2    0    0 -0.17495803848E+02 -0.45820901162E+02  0.70108349781E+01  0.49546038618E+02  0.00000000000E+00 0. -1.
</event>
<event>
 7    1  0.2690635E-009  0.1237554E+03  0.7561462E-02  0.1237027E+00
         -2   -1    0    0    0  501 -0.00000000000E+00  0.00000000000E+00  0.83923199727E+02  0.83923199727E+02  0.00000000000E+00 0.  1.
          2   -1    0    0  501    0  0.00000000000E+00 -0.00000000000E+00 -0.44290774714E+03  0.44290774714E+03  0.00000000000E+00 0. -1.
         25    2    1    2    0    0  0.91233334620E+01 -0.88521521067E+02 -0.36902043905E+03  0.39967881308E+03  0.12509106398E+03 0.  0.
          5    1    3    3  502    0  0.37883060124E+02 -0.10060383417E+03 -0.34090176806E+03  0.35747411873E+03  0.41800000000E+01 0.  1.
         -5    1    3    3    0  502 -0.28759726662E+02  0.12082313103E+02 -0.28118670987E+02  0.42204694356E+02  0.41800000000E+01 0.  1.
        -11    1    1    2    0    0  0.24613213430E+02  0.18699576266E+02 -0.27159651792E+02  0.41147674458E+02  0.00000000000E+00 0. -1.
         11    1    1    2    0    0 -0.33736546892E+02  0.69821944801E+02  0.37195543430E+02  0.86004459321E+02  0.00000000000E+00 0.  1.
</event>
<event>
 7    1  0.2690635E-009  0.1987221E+03  0.7561462E-02  0.1150822E+00
         -2   -1    0    0    0  501 -0.00000000000E+00  0.00000000000E+00  0.14080899504E+03  0.14080899504E+03  0.00000000000E+00 0.  1.
          2   -1    0    0  501    0  0.00000000000E+00 -0.00000000000E+00 -0.37526666571E+03  0.37526666571E+03  0.00000000000E+00 0. -1.
         25    2    1    2    0    0  0.63511453196E+02  0.16818453158E+03 -0.18405182501E+02  0.21978528530E+03  0.12508828699E+03 0.  0.
          5    1    3    3  502    0  0.56028612796E+02  0.16271874030E+02 -0.32610456347E+02  0.66969348209E+02  0.41800000000E+01 0.  1.
         -5    1    3    3    0  502  0.74828403999E+01  0.15191265755E+03  0.14205273847E+02  0.15281593709E+03  0.41800000000E+01 0.  1.
        -11    1    1    2    0    0 -0.62098033841E+02 -0.94368103362E+02 -0.18376155010E+03  0.21570770045E+03  0.00000000000E+00 0. -1.
         11    1    1    2    0    0 -0.14134193556E+01 -0.73816428214E+02 -0.32290938079E+02  0.80582675003E+02  0.00000000000E+00 0.  1.
</event>
<event>
 7    1  0.2690635E-009  0.1320318E+03  0.7561462E-02  0.1224472E+00
         -1   -1    0    0    0  501 -0.00000000000E+00  0.00000000000E+00  0.14976180293E+02  0.14976180293E+02  0.00000000000E+00 0.  1.
          1   -1    0    0  501    0  0.00000000000E+00 -0.00000000000E+00 -0.12918511399E+04  0.12918511399E+04  0.00000000000E+00 0. -1.
         25    2    1    2    0    0 -0.91271183785E+02 -0.16637712229E+02 -0.60538237417E+03  0.62509411721E+03  0.12509034318E+03 0.  0.
          5    1    3    3  502    0 -0.22324925169E+02  0.47316565870E+02 -0.12493811813E+03  0.13551481635E+03  0.41800000000E+01 0.  1.
         -5    1    3    3    0  502 -0.68946258616E+02 -0.63954278099E+02 -0.48044425604E+03  0.48957930085E+03  0.41800000000E+01 0.  1.
        -11    1    1    2    0    0  0.67266538143E+02  0.44510318470E+02 -0.48221086383E+03  0.48891029116E+03  0.00000000000E+00 0.  1.
         11    1    1    2    0    0  0.24004645642E+02 -0.27872606241E+02 -0.18928172165E+03  0.19282291187E+03  0.00000000000E+00 0. -1.
</event>
<event>
 7    1  0.2690635E-009  0.1079781E+03  0.7561462E-02  0.1264361E+00
          1   -1    0    0  501    0  0.00000000000E+00  0.00000000000E+00  0.37114234799E+03  0.37114234799E+03  0.00000000000E+00 0. -1.
         -1   -1    0    0    0  501 -0.00000000000E+00 -0.00000000000E+00 -0.44393263626E+02  0.44393263626E+02  0.00000000000E+00 0.  1.
         25    2    1    2    0    0  0.12966284285E+02  0.66725469796E+02  0.19314725969E+03  0.23994687197E+03  0.12509286389E+03 0.  0.
          5    1    3    3  502    0  0.49292555071E+02  0.76071979029E+02  0.17698229880E+03  0.19888918640E+03  0.41800000000E+01 0.  1.
         -5    1    3    3    0  502 -0.36326270787E+02 -0.93465092331E+01  0.16164960898E+02  0.41057685577E+02  0.41800000000E+01 0.  1.
        -11    1    1    2    0    0  0.10392821122E+02 -0.62959519138E+02  0.32223867667E+02  0.71486288394E+02  0.00000000000E+00 0.  1.
         11    1    1    2    0    0 -0.23359105406E+02 -0.37659506585E+01  0.10137795701E+03  0.10410245125E+03  0.00000000000E+00 0. -1.
</event>
<event>
 7    1  0.2690635E-009  0.9040014E+02  0.7561462E-02  0.1301886E+00
          2   -1    0    0  501    0  0.00000000000E+00  0.00000000000E+00  0.16450647479E+03  0.16450647479E+03  0.00000000000E+00 0. -1.
         -2   -1    0    0    0  501 -0.00000000000E+00 -0.00000000000E+00 -0.78157514732E+02  0.78157514732E+02  0.00000000000E+00 0.  1.
         25    2    1    2    0    0 -0.21132368799E+02 -0.15385576454E+01  0.81598537006E+02  0.15084292820E+03  0.12508526522E+03 0.  0.
          5    1    3    3  502    0 -0.68889034296E+02  0.17476695538E+01  0.75662722094E+02  0.10242594061E+03  0.41800000000E+01 0.  1.
         -5    1    3    3    0  502  0.47756665496E+02 -0.32862271992E+01  0.59358149124E+01  0.48416987589E+02  0.41800000000E+01 0.  1.
        -11    1    1    2    0    0  0.34281719509E+02 -0.19096782186E+02 -0.29947151874E+02  0.49363501575E+02  0.00000000000E+00 0.  1.
         11    1    1    2    0    0 -0.13149350710E+02  0.20635339832E+02  0.34697574921E+02  0.42457559744E+02  0.00000000000E+00 0. -1.
</event>
<event>
 7    1  0.2690635E-009  0.1455097E+03  0.7561462E-02  0.1206102E+00
          3   -1    0    0  501    0  0.00000000000E+00  0.00000000000E+00  0.29434787475E+03  0.29434787475E+03  0.00000000000E+00 0. -1.
         -3   -1    0    0    0  501 -0.00000000000E+00 -0.00000000000E+00 -0.13406603311E+03  0.13406603311E+03  0.00000000000E+00 0.  1.
         25    2    1    2    0    0 -0.99549504157E+02  0.81827458147E+02  0.19537537438E+03  0.26537612854E+03  0.12508843271E+03 0.  0.
          5    1    3    3  502    0 -0.41440694564E+02  0.86314446984E+02  0.18160787918E+03  0.20534461060E+03  0.41800000000E+01 0.  1.
         -5    1    3    3    0  502 -0.58108809593E+02 -0.44869888371E+01  0.13767495204E+02  0.60031517933E+02  0.41800000000E+01 0.  1.
        -11    1    1    2    0    0  0.54312790678E+02 -0.15530319284E+02  0.25985650951E+02  0.62179772464E+02  0.00000000000E+00 0. -1.
         11    1    1    2    0    0  0.45236713479E+02 -0.66297138863E+02 -0.61079183694E+02  0.10085800686E+03  0.00000000000E+00 0.  1.
</event>
<event>
 7    1  0.2690635E-009  0.9583683E+02  0.7561462E-02  0.1289302E+00
          2   -1    0    0  501    0  0.00000000000E+00  0.00000000000E+00  0.30365542736E+03  0.30365542736E+03  0.00000000000E+00 0. -1.
         -2   -1    0    0    0  501 -0.00000000000E+00 -0.00000000000E+00 -0.47491468053E+02  0.47491468053E+02  0.00000000000E+00 0.  1.
         25    2    1    2    0    0  0.45533296055E+02 -0.23192532217E+02  0.15512874413E+03  0.20572007518E+03  0.12507856521E+03 0.  0.
          5    1    3    3  502    0  0.72015077035E+02 -0.32538031194E+02  0.43021282349E+02  0.90073291987E+02  0.41800000000E+01 0.  1.
         -5    1    3    3    0  502 -0.26481780980E+02  0.93454989770E+01  0.11210746178E+03  0.11564678319E+03  0.41800000000E+01 0.  1.
        -11    1    1    2    0    0  0.13601143663E+02  0.20939905991E+02 -0.35892117830E+01  0.25226042359E+02  0.00000000000E+00 0.  1.
         11    1    1    2    0    0 -0.59134439718E+02  0.22526262260E+01  0.10462442695E+03  0.12020077787E+03  0.00000000000E+00 0. -1.
</event>
<event>
 7    1  0.2690635E-009  0.1992847E+03  0.7561462E-02  0.1150344E+00
          4   -1    0    0  501    0  0.00000000000E+00  0.00000000000E+00  0.12333291051E+04  0.12333291051E+04  0.00000000000E+00 0. -1.
         -4   -1    0    0    0  501 -0.00000000000E+00 -0.00000000000E+00 -0.38896553794E+02  0.38896553794E+02  0.00000000000E+00 0.  1.
         25    2    1    2    0    0  0.69345715637E+02  0.17529359626E+03  0.68261049150E+03  0.71912523418E+03  0.12508935271E+03 0.  0.
          5    1    3    3  502    0  0.18553070125E+02  0.14934117199E+03  0.60034139775E+03  0.61892993813E+03  0.41800000000E+01 0.  1.
         -5    1    3    3    0  502  0.50792645513E+02  0.25952424274E+02  0.82269093744E+02  0.10019529604E+03  0.41800000000E+01 0.  1.
        -11    1    1    2    0    0 -0.20288399131E+02 -0.22224982720E+02  0.21177468177E+02  0.36797474840E+02  0.00000000000E+00 0.  1.
         11    1    1    2    0    0 -0.49057316506E+02 -0.15306861354E+03  0.49064459163E+03  0.51630294987E+03  0.00000000000E+00 0. -1.
</event>
<event>
 7    1  0.2690635E-009  0.1736074E+03  0.7561462E-02  0.1174137E+00
          2   -1    0    0  501    0  0.00000000000E+00  0.00000000000E+00  0.35152648059E+03  0.35152648059E+03  0.00000000000E+00 0.  1.
         -2   -1    0    0    0  501 -0.00000000000E+00 -0.00000000000E+00 -0.10311241409E+03  0.10311241409E+03  0.00000000000E+00 0. -1.
         25    2    1    2    0    0 -0.97582204971E+01  0.13607673547E+03  0.22025955973E+03  0.28770809321E+03  0.12509825115E+03 0.  0.
          5    1    3    3  502    0 -0.56889646649E+02  0.12270440810E+03  0.17157576311E+03  0.21851434404E+03  0.41800000000E+01 0.  1.
         -5    1    3    3    0  502  0.47131426152E+02  0.13372327364E+02  0.48683796620E+02  0.69193749166E+02  0.41800000000E+01 0.  1.
        -11    1    1    2    0    0 -0.39204768405E+02 -0.73196485366E+02  0.26702639121E+02  0.87222533050E+02  0.00000000000E+00 0.  1.
         11    1    1    2    0    0  0.48962988902E+02 -0.62880250103E+02  0.14518676442E+01  0.79708268422E+02  0.00000000000E+00 0. -1.
</event>
<event>
 7    1  0.2690635E-009  0.1043091E+03  0.7561462E-02  0.1271487E+00
          1   -1    0    0  501    0  0.00000000000E+00  0.00000000000E+00  0.21957291265E+03  0.21957291265E+03  0.00000000000E+00 0. -1.
         -1   -1    0    0    0  501 -0.00000000000E+00 -0.00000000000E+00 -0.11705536864E+03  0.11705536864E+03  0.00000000000E+00 0.  1.
         25    2    1    2    0    0  0.97581037754E+01 -0.57111766128E+02 -0.57227826215E+02  0.14925994734E+03  0.12508610381E+03 0.  0.
          5    1    3    3  502    0 -0.42136209528E+02 -0.71098504006E+02 -0.44127593646E+02  0.93782590849E+02  0.41800000000E+01 0.  1.
         -5    1    3    3    0  502  0.51894313303E+02  0.13986737878E+02 -0.13100232569E+02  0.55477356489E+02  0.41800000000E+01 0.  1.
        -11    1    1    2    0    0 -0.23212466188E+02  0.53045559184E+02  0.16296768525E+03  0.17294830549E+03  0.00000000000E+00 0. -1.
         11    1    1    2    0    0  0.13454362413E+02  0.40662069436E+01 -0.32223150269E+01  0.14420028467E+02  0.00000000000E+00 0.  1.
</event>
<event>
 7    1  0.2690635E-009  0.1338772E+03  0.7561462E-02  0.1221813E+00
         -2   -1    0    0    0  501 -0.00000000000E+00  0.00000000000E+00  0.25849297676E+02  0.25849297676E+02  0.00000000000E+00 0.  1.
          2   -1    0    0  501    0  0.00000000000E+00 -0.00000000000E+00 -0.73095774968E+03  0.73095774968E+03  0.00000000000E+00 0. -1.
         25    2    1    2    0    0  0.77089006495E+02  0.18534682819E+02 -0.46021539968E+03  0.48345867675E+03  0.12509128122E+03 0.  0.
          5    1    3    3  502    0  0.66455021631E+02  0.68230857327E+02 -0.26261571325E+03  0.27938540591E+03  0.41800000000E+01 0. -1.
         -5    1    3    3    0  502  0.10633984863E+02 -0.49696174508E+02 -0.19759968643E+03  0.20407327084E+03  0.41800000000E+01 0. -1.
        -11    1    1    2    0    0 -0.44973509422E+02 -0.56165359431E+02 -0.14325250318E+03  0.16030734174E+03  0.00000000000E+00 0.  1.
         11    1    1    2    0    0 -0.32115497073E+02  0.37630676613E+02 -0.10164054915E+03  0.11304102886E+03  0.00000000000E+00 0. -1.
</event>
<event>
 7    1  0.2690635E-009  0.1096234E+03  0.7561462E-02  0.1261269E+00
          1   -1    0    0  501    0  0.00000000000E+00  0.00000000000E+00  0.14507955965E+03  0.14507955965E+03  0.00000000000E+00 0. -1.
         -1   -1    0    0    0  501 -0.00000000000E+00 -0.00000000000E+00 -0.86316473432E+02  0.86316473432E+02  0.00000000000E+00 0.  1.
         25    2    1    2    0    0  0.15819144360E+02  0.25004033516E+02  0.26981439770E+02  0.13134234632E+03  0.12508943531E+03 0.  0.
          5    1    3    3  502    0 -0.47454870321E+00  0.74652824660E+02  0.25156031870E+02  0.78889592252E+02  0.41800000000E+01 0. -1.
         -5    1    3    3    0  502  0.16293693063E+02 -0.49648791145E+02  0.18254079000E+01  0.52452754072E+02  0.41800000000E+01 0. -1.
        -11    1    1    2    0    0 -0.45910366547E+02  0.88550353969E+01  0.40285769812E+01  0.46929764978E+02  0.00000000000E+00 0. -1.
         11    1    1    2    0    0  0.30091222187E+02 -0.33859068913E+02  0.27753069467E+02  0.53123921779E+02  0.00000000000E+00 0.  1.
</event>
<event>
 7    1  0.2690635E-009  0.1912228E+03  0.7561462E-02  0.1157363E+00
         -1   -1    0    0    0  501 -0.00000000000E+00  0.00000000000E+00  0.46729008276E+03  0.46729008276E+03  0.00000000000E+00 0.  1.
          1   -1    0    0  501    0  0.00000000000E+00 -0.00000000000E+00 -0.80421177883E+02  0.80421177883E+02  0.00000000000E+00 0. -1.
         25    2    1    2    0    0 -0.41853157789E+02  0.95232784526E+02  0.13157796763E+03  0.20924338955E+03  0.12509622072E+03 0.  0.
          5    1    3    3  502    0 -0.54346019101E+02 -0.89200429332E+01  0.63310620911E+02  0.84016451236E+02  0.41800000000E+01 0.  1.
         -5    1    3    3    0  502  0.12492861312E+02  0.10415282746E+03  0.68267346722E+02  0.12522693832E+03  0.41800000000E+01 0.  1.
        -11    1    1    2    0    0 -0.47591537803E+02 -0.12027399530E+03  0.14894775954E+03  0.19727195312E+03  0.00000000000E+00 0.  1.
         11    1    1    2    0    0  0.89444695592E+02  0.25041210778E+02  0.10634317770E+03  0.14119591797E+03  0.00000000000E+00 0. -1.
</event>
<event>
 7    1  0.2690635E-009  0.1226428E+03  0.7561462E-02  0.1238800E+00
          3   -1    0    0  501    0  0.00000000000E+00  0.00000000000E+00  0.25756430192E+03  0.25756430192E+03  0.00000000000E+00 0.  1.
         -3   -1    0    0    0  501 -0.00000000000E+00 -0.00000000000E+00 -0.64951647124E+02  0.64951647124E+02  0.00000000000E+00 0. -1.
         25    2    1    2    0    0 -0.41726405726E+01 -0.70540634934E+02  0.10136205034E+03  0.17581646515E+03  0.12507506571E+03 0.  0.
          5    1    3    3  502    0  0.55455015867E+02 -0.38998725208E+02  0.79976799386E+02  0.10492816682E+03  0.41800000000E+01 0.  1.
         -5    1    3    3    0  502 -0.59627656439E+02 -0.31541909726E+02  0.21385250952E+02  0.70888298328E+02  0.41800000000E+01 0.  1.
        -11    1    1    2    0    0 -0.38630425199E+02  0.47300625908E+02  0.28853473742E+02  0.67543925776E+02  0.00000000000E+00 0. -1.
         11    1    1    2    0    0  0.42803065771E+02  0.23240009027E+02  0.62397130713E+02  0.79155558113E+02  0.00000000000E+00 0.  1.
</event>
<event>
 7    1  0.2690635E-009  0.2411007E+03  0.7561462E-02  0.1119062E+00
          1   -1    0    0  501    0  0.00000000000E+00  0.00000000000E+00  0.19454906969E+03  0.19454906969E+03  0.00000000000E+00 0. -1.
         -1   -1    0    0    0  501 -0.00000000000E+00 -0.00000000000E+00 -0.33153668317E+03  0.33153668317E+03  0.00000000000E+00 0.  1.
         25    2    1    2    0    0 -0.21159984205E+03  0.86585330787E+02 -0.54052268736E+02  0.26615804063E+03  0.12508773790E+03 0.  0.
          5    1    3    3  502    0 -0.20683626097E+03  0.67999810395E+02 -0.10080163955E+02  0.21800067699E+03  0.41800000000E+01 0.  1.
         -5    1    3    3    0  502 -0.47635810776E+01  0.18585520393E+02 -0.43972104781E+02  0.48157363631E+02  0.41800000000E+01 0.  1.
        -11    1    1    2    0    0  0.13190411978E+03 -0.68792578932E+01 -0.30224361331E+02  0.13549735430E+03  0.00000000000E+00 0. -1.
         11    1    1    2    0    0  0.79695722263E+02 -0.79706072894E+02 -0.52710983410E+02  0.12443035793E+03  0.00000000000E+00 0.  1.
</event>
<event>
 7    1  0.2690635E-009  0.1103165E+03  0.7561462E-02  0.1259985E+00
         -2   -1    0    0    0  501 -0.00000000000E+00  0.00000000000E+00  0.10766149298E+03  0.10766149298E+03  0.00000000000E+00 0.  1.
          2   -1    0    0  501    0  0.00000000000E+00 -0.00000000000E+00 -0.16249478581E+03  0.16249478581E+03  0.00000000000E+00 0. -1.
         25    2    1    2    0    0 -0.11851629818E+02 -0.56788491092E+02 -0.39107631116E+00  0.13788924751E+03  0.12509155762E+03 0.  0.
          5    1    3    3  502    0 -0.32596968946E+02  0.85526533355E+01  0.44395822532E+02  0.55894290601E+02  0.41800000000E+01 0. -1.
         -5    1    3    3    0  502  0.20745339128E+02 -0.65341144428E+02 -0.44786898843E+02  0.81994956910E+02  0.41800000000E+01 0. -1.
        -11    1    1    2    0    0 -0.25503301748E+02  0.72958366148E+02 -0.48202941043E+02  0.91087129257E+02  0.00000000000E+00 0. -1.
         11    1    1    2    0    0  0.37354931567E+02 -0.16169875056E+02 -0.62392754773E+01  0.41179902017E+02  0.00000000000E+00 0.  1.
</event>
<event>
 7    1  0.2690635E-009  0.1209270E+03  0.7561462E-02  0.1241576E+00
          2   -1    0    0  501    0  0.00000000000E+00  0.00000000000E+00  0.22286680319E+03  0.22286680319E+03  0.00000000000E+00 0. -1.
         -2   -1    0    0    0  501 -0.00000000000E+00 -0.00000000000E+00 -0.81228936045E+02  0.81228936045E+02  0.00000000000E+00 0.  1.
         25    2    1    2    0    0  0.47900209811E+02 -0.63720875073E+02  0.86539275839E+02  0.17172875300E+03  0.12508772252E+03 0.  0.
          5    1    3    3  502    0  0.22292181988E+01 -0.77262293035E+02  0.95651301727E+02  0.12304907664E+03  0.41800000000E+01 0. -1.
         -5    1    3    3    0  502  0.45670991612E+02  0.13541417961E+02 -0.91120258885E+01  0.48679676365E+02  0.41800000000E+01 0. -1.
        -11    1    1    2    0    0 -0.58304171052E+01 -0.21130084635E+02 -0.16110886555E+01  0.21978849992E+02  0.00000000000E+00 0.  1.
         11    1    1    2    0    0 -0.42069792706E+02  0.84850959709E+02  0.56709679962E+02  0.11038813624E+03  0.00000000000E+00 0. -1.
</event>
<event>
 7    1  0.2690635E-009  0.1611393E+03  0.7561462E-02  0.1187416E+00
         -2   -1    0    0    0  501 -0.00000000000E+00  0.00000000000E+00  0.62084804683E+02  0.62084804683E+02  0.00000000000E+00 0.  1.
          2   -1    0    0  501    0  0.00000000000E+00 -0.00000000000E+00 -0.67808163217E+03  0.67808163217E+03  0.00000000000E+00 0. -1.
         25    2    1    2    0    0 -0.99922412267E+02 -0.93458651447E+02 -0.51376931829E+03  0.54619166800E+03  0.12508963896E+03 0.  0.
          5    1    3    3  502    0 -0.12265079798E+03 -0.44706082510E+02 -0.33930874176E+03  0.36357907901E+03  0.41800000000E+01 0.  1.
         -5    1    3    3    0  502  0.22728385715E+02 -0.48752568937E+02 -0.17446057653E+03  0.18261258899E+03  0.41800000000E+01 0.  1.
        -11    1    1    2    0    0  0.21003251784E+02  0.29057131493E+02 -0.82865595405E+02  0.90289314860E+02  0.00000000000E+00 0. -1.
         11    1    1    2    0    0  0.78919160483E+02  0.64401519954E+02 -0.19361913792E+02  0.10368545399E+03  0.00000000000E+00 0.  1.
</event>
<event>
 7    1  0.2690635E-009  0.1095345E+03  0.7561462E-02  0.1261434E+00
         -2   -1    0    0    0  501 -0.00000000000E+00  0.00000000000E+00  0.30802229749E+02  0.30802229749E+02  0.00000000000E+00 0.  1.
          2   -1    0    0  501    0  0.00000000000E+00 -0.00000000000E+00 -0.41759544100E+03  0.41759544100E+03  0.00000000000E+00 0. -1.
         25    2    1    2    0    0 -0.39006949829E+02  0.73093469178E+01 -0.25167469486E+03  0.28383539503E+03  0.12508961089E+03 0.  0.
          5    1    3    3  502    0  0.29808443975E+02  0.40451242891E+02 -0.13704470964E+03  0.14602592654E+03  0.41800000000E+01 0. -1.
         -5    1    3    3    0  502 -0.68815393804E+02 -0.33141895974E+02 -0.11462998522E+03  0.13780946849E+03  0.41800000000E+01 0. -1.
        -11    1    1    2    0    0  0.65431366296E+02 -0.57199985033E+01 -0.10971737784E+03  0.12787448955E+03  0.00000000000E+00 0. -1.
         11    1    1    2    0    0 -0.26424416467E+02 -0.15893484145E+01 -0.25401138557E+02  0.36687786169E+02  0.00000000000E+00 0.  1.
</event>
<event>
 7    1  0.2690635E-009  0.1899192E+03  0.7561462E-02  0.1158534E+00
          2   -1    0    0  501    0  0.00000000000E+00  0.00000000000E+00  0.14188475059E+04  0.14188475059E+04  0.00000000000E+00 0. -1.
         -2   -1    0    0    0  501 -0.00000000000E+00 -0.00000000000E+00 -0.27830409735E+02  0.27830409735E+02  0.00000000000E+00 0.  1.
         25    2    1    2    0    0 -0.15585204073E+03  0.30300720264E+02  0.88085007855E+03  0.90374380276E+03  0.12509199776E+03 0.  0.
          5    1    3    3  502    0 -0.39317227185E+02 -0.42539176816E+02  0.37802728804E+03  0.38246245413E+03  0.41800000000E+01 0.  1.
         -5    1    3    3    0  502 -0.11653481354E+03  0.72839897080E+02  0.50282279051E+03  0.52128134863E+03  0.41800000000E+01 0.  1.
        -11    1    1    2    0    0  0.13930942560E+03  0.11037965482E+02  0.35533713979E+03  0.38182906602E+03  0.00000000000E+00 0. -1.
         11    1    1    2    0    0  0.16542615129E+02 -0.41338685746E+02  0.15482987781E+03  0.16110504684E+03  0.00000000000E+00 0.  1.
</event>
<event>
 7    1  0.2690635E-009  0.2364036E+03  0.7561462E-02  0.1122212E+00
         -2   -1    0    0    0  501 -0.00000000000E+00  0.00000000000E+00  0.45522639787E+03  0.45522639787E+03  0.00000000000E+00 0.  1.
          2   -1    0    0  501    0  0.00000000000E+00 -0.00000000000E+00 -0.13815784292E+03  0.13815784292E+03  0.00000000000E+00 0. -1.
         25    2    1    2    0    0  0.20437254576E+03 -0.96698272871E+02  0.16367979808E+03  0.30587075853E+03  0.12508857337E+03 0.  0.
          5    1    3    3  502    0  0.58917751249E+02 -0.58172714592E+02 -0.80207963052E+00  0.82906464566E+02  0.41800000000E+01 0.  1.
         -5    1    3    3    0  502  0.14545479451E+03 -0.38525558279E+02  0.16448187771E+03  0.22296429396E+03  0.41800000000E+01 0.  1.
        -11    1    1    2    0    0 -0.18517528831E+03  0.11058534804E+03  0.12075572107E+03  0.24718606508E+03  0.00000000000E+00 0. -1.
         11    1    1    2    0    0 -0.19197257454E+02 -0.13887075174E+02  0.32633035797E+02  0.40327417175E+02  0.00000000000E+00 0.  1.
</event>
<event>
 7    1  0.2690635E-009  0.8937146E+02  0.7561462E-02  0.1304381E+00
         -2   -1    0    0    0  501 -0.00000000000E+00  0.00000000000E+00  0.13427959279E+03  0.13427959279E+03  0.00000000000E+00 0.  1.
          2   -1    0    0  501    0  0.00000000000E+00 -0.00000000000E+00 -0.11926999742E+03  0.11926999742E+03  0.00000000000E+00 0. -1.
         25    2    1    2    0    0 -0.62780616211E+02  0.12092467343E+02 -0.84069996394E+01  0.14073193904E+03  0.12508863851E+03 0.  0.
          5    1    3    3  502    0 -0.44464398453E+02  0.18839373061E+02  0.55554553933E+02  0.73727780177E+02  0.41800000000E+01 0.  1.
         -5    1    3    3    0  502 -0.18316217758E+02 -0.67469057181E+01 -0.63961553572E+02  0.67004158864E+02  0.41800000000E+01 0.  1.
        -11    1    1    2    0    0 -0.12468092697E+02  0.23853971958E+02  0.71935816837E+01  0.27860598183E+02  0.00000000000E+00 0.  1.
         11    1    1    2    0    0  0.75248708908E+02 -0.35946439301E+02  0.16223013328E+02  0.84957052987E+02  0.00000000000E+00 0. -1.
</event>
<event>
 7    1  0.2690635E-009  0.1647798E+03  0.7561462E-02  0.1183404E+00
         -2   -1    0    0    0  501 -0.00000000000E+00  0.00000000000E+00  0.91769585290E+02  0.91769585290E+02  0.00000000000E+00 0.  1.
          2   -1    0    0  501    0  0.00000000000E+00 -0.00000000000E+00 -0.39689416334E+03  0.39689416334E+03  0.00000000000E+00 0. -1.
         25    2    1    2    0    0 -0.39236872539E+01  0.13658457488E+03 -0.26908249980E+03  0.32668618182E+03  0.12509088008E+03 0.  0.
          5    1    3    3  502    0 -0.19570110791E+02 -0.12394951978E+02 -0.66158479422E+01  0.24451296794E+02  0.41800000000E+01 0. -1.
         -5    1    3    3    0  502  0.15646423537E+02  0.14897952686E+03 -0.26246665185E+03  0.30223488503E+03  0.41800000000E+01 0. -1.
        -11    1    1    2    0    0 -0.23571417787E+02 -0.83385086987E+01  0.28694409148E+01  0.25166965549E+02  0.00000000000E+00 0.  1.
         11    1    1    2    0    0  0.27495105041E+02 -0.12824606618E+03 -0.38911519166E+02  0.13681060126E+03  0.00000000000E+00 0. -1.
</event>
<event>
 7    1  0.2690635E-009  0.7629306E+02  0.7561462E-02  0.1339913E+00
         -3   -1    0    0    0  501 -0.00000000000E+00  0.00000000000E+00  0.12119911787E+03  0.12119911787E+03  0.00000000000E+00 0.  1.
          3   -1    0    0  501    0  0.00000000000E+00 -0.00000000000E+00 -0.10781888907E+03  0.10781888907E+03  0.00000000000E+00 0. -1.
         25    2    1    2    0    0 -0.28211642329E+02 -0.11526418713E+01 -0.19674093613E+02  0.12973007719E+03  0.12508236335E+03 0.  0.
          5    1    3    3  502    0 -0.41537755101E+02  0.15825801599E+02 -0.65288424724E+02  0.79094196361E+02  0.41800000000E+01 0. -1.
         -5    1    3    3    0  502  0.13326112772E+02 -0.16978443470E+02  0.45614331111E+02  0.50635880825E+02  0.41800000000E+01 0. -1.
        -11    1    1    2    0    0 -0.24488568363E+02  0.18260660868E+02  0.31469970519E+02  0.43857733187E+02  0.00000000000E+00 0.  1.
         11    1    1    2    0    0  0.52700210692E+02 -0.17108018996E+02  0.15843518985E+01  0.55430196571E+02  0.00000000000E+00 0. -1.
</event>
<event>
 7    1  0.2690635E-009  0.1011294E+03  0.7561462E-02  0.1277939E+00
          1   -1    0    0  501    0  0.00000000000E+00  0.00000000000E+00  0.77519405958E+02  0.77519405958E+02  0.00000000000E+00 0. -1.
         -1   -1    0    0    0  501 -0.00000000000E+00 -0.00000000000E+00 -0.33954714437E+03  0.33954714437E+03  0.00000000000E+00 0.  1.
         25    2    1    2    0    0  0.92016206155E+02 -0.33237190430E+02 -0.50782428523E+02  0.16672829808E+03  0.12509107606E+03 0.  0.
          5    1    3    3  502    0  0.71457967995E+02 -0.10841592507E+02  0.31468062645E+02  0.78939804184E+02  0.41800000000E+01 0. -1.
         -5    1    3    3    0  502  0.20558238160E+02 -0.22395597923E+02 -0.82250491168E+02  0.87788493892E+02  0.41800000000E+01 0. -1.
        -11    1    1    2    0    0 -0.18281338001E+02  0.13847805883E+02  0.28146728320E+01  0.23106090756E+02  0.00000000000E+00 0. -1.
         11    1    1    2    0    0 -0.73734868154E+02  0.19389384547E+02 -0.21405998272E+03  0.22723216149E+03  0.00000000000E+00 0.  1.
</event>
<event>
 7    1  0.2690635E-009  0.1148554E+03  0.7561462E-02  0.1251834E+00
         -2   -1    0    0    0  501 -0.00000000000E+00  0.00000000000E+00  0.30190577174E+02  0.30190577174E+02  0.00000000000E+00 0.  1.
          2   -1    0    0  501    0  0.00000000000E+00 -0.00000000000E+00 -0.47973704878E+03  0.47973704878E+03  0.00000000000E+00 0. -1.
         25    2    1    2    0    0  0.28353703474E+02  0.39273718769E+02 -0.21121814317E+03  0.25021394172E+03  0.12509018802E+03 0.  0.
          5    1    3    3  502    0  0.75296560514E+02  0.39838529471E+02 -0.15441383457E+03  0.17640233888E+03  0.41800000000E+01 0.  1.
         -5    1    3    3    0  502 -0.46942857039E+02 -0.56481070199E+00 -0.56804308600E+02  0.73811602839E+02  0.41800000000E+01 0.  1.
        -11    1    1    2    0    0  0.21633904595E+02 -0.41982894559E+02 -0.15938794039E+03  0.16623809673E+03  0.00000000000E+00 0. -1.
         11    1    1    2    0    0 -0.49987608069E+02  0.27091757905E+01 -0.78940388046E+02  0.93475587502E+02  0.00000000000E+00 0.  1.
</event>
<event>
 7    1  0.2690635E-009  0.7709574E+02  0.7561462E-02  0.1337501E+00
         -1   -1    0    0    0  501 -0.00000000000E+00  0.00000000000E+00  0.48308071922E+02  0.48308071922E+02  0.00000000000E+00 0.  1.
          1   -1    0    0  501    0  0.00000000000E+00 -0.00000000000E+00 -0.26953372398E+03  0.26953372398E+03  0.00000000000E+00 0. -1.
         25    2    1    2    0    0  0.91453063851E+01  0.34547117096E+02 -0.12848826974E+03  0.18284971982E+03  0.12509054580E+03 0.  0.
          5    1    3    3  502    0  0.92464059841E+01 -0.11613010303E+02  0.21162638206E+02  0.26185638960E+02  0.41800000000E+01 0. -1.
         -5    1    3    3    0  502 -0.10109959896E+00  0.46160127399E+02 -0.14965090794E+03  0.15666408086E+03  0.41800000000E+01 0. -1.
        -11    1    1    2    0    0 -0.46907355264E+02 -0.26268251253E+02 -0.75448327341E+02  0.92643246383E+02  0.00000000000E+00 0. -1.
         11    1    1    2    0    0  0.37762048879E+02 -0.82788658424E+01 -0.17289054986E+02  0.42348829706E+02  0.00000000000E+00 0.  1.
</event>
<event>
 7    1  0.2690635E-009  0.1030013E+03  0.7561462E-02  0.1274108E+00
         -1   -1    0    0    0  501 -0.00000000000E+00  0.00000000000E+00  0.64917696263E+03  0.64917696263E+03  0.00000000000E+00 0.  1.
          1   -1    0    0  501    0  0.00000000000E+00 -0.00000000000E+00 -0.33908444293E+02  0.33908444293E+02  0.00000000000E+00 0. -1.
         25    2    1    2    0    0  0.39055387161E+02  0.82760845306E+02  0.23499578662E+03  0.28150329611E+03  0.12508559155E+03 0.  0.
          5    1    3    3  502    0  0.53448258483E+02  0.34027946013E+02  0.21907183426E+03  0.22808892654E+03  0.41800000000E+01 0. -1.
         -5    1    3    3    0  502 -0.14392871322E+02  0.48732899293E+02  0.15923952357E+02  0.53414369574E+02  0.41800000000E+01 0. -1.
        -11    1    1    2    0    0 -0.30176381699E+02 -0.64873906016E+02  0.37380574225E+03  0.38059160610E+03  0.00000000000E+00 0.  1.
         11    1    1    2    0    0 -0.88790054623E+01 -0.17886939290E+02  0.64669894704E+01  0.20990504710E+02  0.00000000000E+00 0. -1.
</event>
<event>
 7    1  0.2690635E-009  0.1736372E+03  0.7561462E-02  0.1174107E+00
          2   -1    0    0  501    0  0.00000000000E+00  0.00000000000E+00  0.22674313472E+03  0.22674313472E+03  0.00000000000E+00 0.  1.
         -2   -1    0    0    0  501 -0.00000000000E+00 -0.00000000000E+00 -0.20700860491E+03  0.20700860491E+03  0.00000000000E+00 0. -1.
         25    2    1    2    0    0 -0.70959506256E+02 -0.13736906306E+03 -0.95645868045E+02  0.22068343743E+03  0.12509011339E+03 0.  0.
          5    1    3    3  502    0 -0.14585534612E+02 -0.11718007886E+03 -0.13476372741E+02  0.11892431931E+03  0.41800000000E+01 0. -1.
         -5    1    3    3    0  502 -0.56373971644E+02 -0.20188984200E+02 -0.82169495304E+02  0.10175911812E+03  0.41800000000E+01 0. -1.
        -11    1    1    2    0    0  0.30289687996E+02  0.12185318538E+03  0.51378342828E+02  0.13566649585E+03  0.00000000000E+00 0.  1.
         11    1    1    2    0    0  0.40669818260E+02  0.15515877680E+02  0.64002055036E+02  0.77401806350E+02  0.00000000000E+00 0. -1.
</event>
<event>
 7    1  0.3378450E-009  0.1041871E+03  0.7561462E-02  0.1271730E+00
          1   -1    0    0  501    0  0.00000000000E+00  0.00000000000E+00  0.20131891839E+03  0.20131891839E+03  0.00000000000E+00 0. -1.
         -1   -1    0    0    0  501 -0.00000000000E+00 -0.00000000000E+00 -0.11105957977E+03  0.11105957977E+03  0.00000000000E+00 0.  1.
         25    2    1    2    0    0  0.10152009739E+03  0.47192817435E+01  0.36422746046E+02  0.16523171150E+03  0.12508517202E+03 0.  0.
          5    1    3    3  502    0  0.66415770059E+02  0.17478663045E+02  0.81422834042E+02  0.10660069642E+03  0.41800000000E+01 0. -1.
         -5    1    3    3    0  502  0.35104327336E+02 -0.12759381302E+02 -0.45000087996E+02  0.58631015073E+02  0.41800000000E+01 0. -1.
        -11    1    1    2    0    0 -0.54236576449E+02 -0.67703823955E+01 -0.21039470933E+02  0.58567086660E+02  0.00000000000E+00 0.  1.
         11    1    1    2    0    0 -0.47283520946E+02  0.20511006521E+01  0.74876063506E+02  0.88579700006E+02  0.00000000000E+00 0. -1.
</event>
<event>
 7    1  0.2690635E-009  0.4039439E+03  0.7561462E-02  0.1042423E+00
         -3   -1    0    0    0  501 -0.00000000000E+00  0.00000000000E+00  0.25236185848E+03  0.25236185848E+03  0.00000000000E+00 0.  1.
          3   -1    0    0  501    0  0.00000000000E+00 -0.00000000000E+00 -0.80529955945E+03  0.80529955945E+03  0.00000000000E+00 0. -1.
         25    2    1    2    0    0 -0.36138003163E+02  0.39380702399E+03 -0.59530602192E+02  0.41902563556E+03  0.12509461716E+03 0.  0.
          5    1    3    3  502    0  0.24901791820E+02  0.29341935230E+03 -0.20759189158E+02  0.29523453706E+03  0.41800000000E+01 0. -1.
         -5    1    3    3    0  502 -0.61039794982E+02  0.10038767169E+03 -0.38771413034E+02  0.12379109850E+03  0.41800000000E+01 0. -1.
        -11    1    1    2    0    0  0.18879178092E+02 -0.12052351670E+03 -0.92314543402E+02  0.15298469324E+03  0.00000000000E+00 0.  1.
         11    1    1    2    0    0  0.17258825070E+02 -0.27328350729E+03 -0.40109255537E+03  0.48565108913E+03  0.00000000000E+00 0. -1.
</event>
<event>
 7    1  0.2690635E-009  0.1128426E+03  0.7561462E-02  0.1255395E+00
         -1   -1    0    0    0  501 -0.00000000000E+00  0.00000000000E+00  0.99347845007E+01  0.99347845007E+01  0.00000000000E+00 0.  1.
          1   -1    0    0  501    0  0.00000000000E+00 -0.00000000000E+00 -0.17426428438E+04  0.17426428438E+04  0.00000000000E+00 0. -1.
         25    2    1    2    0    0 -0.29980337472E+02 -0.38420485076E+02 -0.13273721492E+04  0.13341435679E+04  0.12508910040E+03 0.  0.
          5    1    3    3  502    0  0.14479523998E+02 -0.75012429302E+02 -0.75262426273E+03  0.75650332083E+03  0.41800000000E+01 0.  1.
         -5    1    3    3    0  502 -0.44459861471E+02  0.36591944226E+02 -0.57474788643E+03  0.57764024706E+03  0.41800000000E+01 0.  1.
        -11    1    1    2    0    0  0.56283141145E+02  0.21982203944E+02 -0.34837056462E+03  0.35357185912E+03  0.00000000000E+00 0. -1.
         11    1    1    2    0    0 -0.26302803672E+02  0.16438281132E+02 -0.56965345515E+02  0.64862201298E+02  0.00000000000E+00 0.  1.
</event>
<event>
 7    1  0.2690635E-009  0.1425027E+03  0.7561462E-02  0.1210001E+00
          1   -1    0    0  501    0  0.00000000000E+00  0.00000000000E+00  0.14435796078E+03  0.14435796078E+03  0.00000000000E+00 0. -1.
         -1   -1    0    0    0  501 -0.00000000000E+00 -0.00000000000E+00 -0.20001280170E+03  0.20001280170E+03  0.00000000000E+00 0.  1.
         25    2    1    2    0    0 -0.89827654195E+02  0.91185298167E+02 -0.57302644639E+02  0.18792392024E+03  0.12509212867E+03 0.  0.
          5    1    3    3  502    0 -0.53008958153E+02  0.45086810161E+02  0.35224134158E+02  0.78108783899E+02  0.41800000000E+01 0. -1.
         -5    1    3    3    0  502 -0.36818696042E+02  0.46098488006E+02 -0.92526778797E+02  0.10981513634E+03  0.41800000000E+01 0. -1.
        -11    1    1    2    0    0  0.77554844880E+02 -0.10944859193E+03  0.47530211055E+01  0.13422495837E+03  0.00000000000E+00 0. -1.
         11    1    1    2    0    0  0.12272809316E+02  0.18263293765E+02 -0.31052173901E+01  0.22221883869E+02  0.00000000000E+00 0.  1.
</event>
<event>
 7    1  0.2690635E-009  0.9296654E+02  0.7561462E-02  0.1295823E+00
          2   -1    0    0  501    0  0.00000000000E+00  0.00000000000E+00  0.67331019468E+03  0.67331019468E+03  0.00000000000E+00 0. -1.
         -2   -1    0    0    0  501 -0.00000000000E+00 -0.00000000000E+00 -0.27855130473E+02  0.27855130473E+02  0.00000000000E+00 0.  1.
         25    2    1    2    0    0  0.60299735106E+02 -0.12763898506E+02  0.20784817509E+03  0.25029383464E+03  0.12508862702E+03 0.  0.
          5    1    3    3  502    0  0.15497552377E+02  0.17209063365E+02 -0.10195926747E+02  0.25646740803E+02  0.41800000000E+01 0. -1.
         -5    1    3    3    0  502  0.44802182729E+02 -0.29972961871E+02  0.21804410184E+03  0.22464709383E+03  0.41800000000E+01 0. -1.
        -11    1    1    2    0    0 -0.73273863352E+02 -0.17562739433E+02  0.31738447336E+03  0.32620608946E+03  0.00000000000E+00 0. -1.
         11    1    1    2    0    0  0.12974128246E+02  0.30326637939E+02  0.12022241575E+03  0.12466540106E+03  0.00000000000E+00 0.  1.
</event>
<event>
 7    1  0.2690635E-009  0.1634644E+03  0.7561462E-02  0.1184840E+00
         -1   -1    0    0    0  501 -0.00000000000E+00  0.00000000000E+00  0.22040417421E+03  0.22040417421E+03  0.00000000000E+00 0.  1.
          1   -1    0    0  501    0  0.00000000000E+00 -0.00000000000E+00 -0.12494230787E+03  0.12494230787E+03  0.00000000000E+00 0. -1.
         25    2    1    2    0    0  0.11850583803E+03 -0.38314462688E+02  0.57989040200E+02  0.18580054228E+03  0.12508989180E+03 0.  0.
          5    1    3    3  502    0  0.44010153859E+02  0.43773257715E+02  0.38526251516E+02  0.73176062954E+02  0.41800000000E+01 0.  1.
         -5    1    3    3    0  502  0.74495684168E+02 -0.82087720403E+02  0.19462788684E+02  0.11262447933E+03  0.41800000000E+01 0.  1.
        -11    1    1    2    0    0 -0.10514258743E+03  0.65231443965E+02  0.21754553049E+02  0.12563186519E+03  0.00000000000E+00 0. -1.
         11    1    1    2    0    0 -0.13363250594E+02 -0.26916981277E+02  0.15718273086E+02  0.33914074605E+02  0.00000000000E+00 0.  1.
</event>
<event>
 7    1  0.2690635E-009  0.9605393E+02  0.7561462E-02  0.1288820E+00
         -2   -1    0    0    0  501 -0.00000000000E+00  0.00000000000E+00  0.37022431379E+02  0.37022431379E+02  0.00000000000E+00 0.  1.
          2   -1    0    0  501    0  0.00000000000E+00 -0.00000000000E+00 -0.42774466169E+03  0.42774466169E+03  0.00000000000E+00 0. -1.
         25    2    1    2    0    0  0.10562149901E+02  0.29898285683E+02 -0.32007340345E+03  0.34510832656E+03  0.12508919603E+03 0.  0.
          5    1    3    3  502    0  0.54124953192E+02  0.35728963233E+02 -0.91026750680E+02  0.11184547873E+03  0.41800000000E+01 0. -1.
         -5    1    3    3    0  502 -0.43562803291E+02 -0.58306775508E+01 -0.22904665277E+03  0.23326284783E+03  0.41800000000E+01 0. -1.
        -11    1    1    2    0    0 -0.27195639523E+02 -0.49976197910E+02 -0.74029047071E+02  0.93367676296E+02  0.00000000000E+00 0. -1.
         11    1    1    2    0    0  0.16633489622E+02  0.20077912227E+02  0.33802202095E+01  0.26291090222E+02  0.00000000000E+00 0.  1.
</event>
<event>
 7    1  0.2690635E-009  0.9281091E+02  0.7561462E-02  0.1296184E+00
          2   -1    0    0  501    0  0.00000000000E+00  0.00000000000E+00  0.61316951842E+03  0.61316951842E+03  0.00000000000E+00 0. -1.
         -2   -1    0    0    0  501 -0.00000000000E+00 -0.00000000000E+00 -0.31151450709E+02  0.31151450709E+02  0.00000000000E+00 0.  1.
         25    2    1    2    0    0  0.10276416914E+02  0.81218497910E+02  0.26039162466E+03  0.30025178261E+03  0.12508111617E+03 0.  0.
          5    1    3    3  502    0  0.28040832268E+00 -0.10047039355E+02  0.17327977883E+03  0.17362135750E+03  0.41800000000E+01 0.  1.
         -5    1    3    3    0  502  0.99960085909E+01  0.91265537265E+02  0.87111845825E+02  0.12663042511E+03  0.41800000000E+01 0.  1.
        -11    1    1    2    0    0  0.28606971504E+01 -0.21080743960E+02  0.54562831688E+01  0.21962522171E+02  0.00000000000E+00 0.  1.
         11    1    1    2    0    0 -0.13137114064E+02 -0.60137753949E+02  0.31617015988E+03  0.32210666434E+03  0.00000000000E+00 0. -1.
</event>
<event>
 7    1  0.2690635E-009  0.1751623E+03  0.7561462E-02  0.1172569E+00
          1   -1    0    0  501    0  0.00000000000E+00  0.00000000000E+00  0.76487561319E+03  0.76487561319E+03  0.00000000000E+00 0. -1.
         -1   -1    0    0    0  501 -0.00000000000E+00 -0.00000000000E+00 -0.41284997090E+02  0.41284997090E+02  0.00000000000E+00 0.  1.
         25    2    1    2    0    0  0.13998564846E+03  0.20867873712E+02  0.36827742829E+03  0.41389232290E+03  0.12508853202E+03 0.  0.
          5    1    3    3  502    0  0.15823918497E+03  0.35670041753E+02  0.34105024971E+03  0.37768338164E+03  0.41800000000E+01 0. -1.
         -5    1    3    3    0  502 -0.18253536513E+02 -0.14802168041E+02  0.27227178582E+02  0.36208941264E+02  0.41800000000E+01 0. -1.
        -11    1    1    2    0    0 -0.14408144676E+03 -0.11845021845E+01  0.28824564182E+03  0.32225210065E+03  0.00000000000E+00 0.  1.
         11    1    1    2    0    0  0.40957983005E+01 -0.19683371527E+02  0.67067545998E+02  0.70016186733E+02  0.00000000000E+00 0. -1.
</event>
<event>
 7    1  0.2690635E-009  0.9176947E+02  0.7561462E-02  0.1298622E+00
         -1   -1    0    0    0  501 -0.00000000000E+00  0.00000000000E+00  0.62965778428E+02  0.62965778428E+02  0.00000000000E+00 0.  1.
          1   -1    0    0  501    0  0.00000000000E+00 -0.00000000000E+00 -0.25235732060E+03  0.25235732060E+03  0.00000000000E+00 0. -1.
         25    2    1    2    0    0  0.42606871906E+02  0.41182342141E+02 -0.13018966161E+03  0.19002190084E+03  0.12509054309E+03 0.  0.
          5    1    3    3  502    0  0.63956159962E+02  0.32265614116E+02 -0.14531481475E+03  0.16206581391E+03  0.41800000000E+01 0. -1.
         -5    1    3    3    0  502 -0.21349288057E+02  0.89167280249E+01  0.15125153137E+02  0.27956086933E+02  0.41800000000E+01 0. -1.
        -11    1    1    2    0    0 -0.70537944703E+01 -0.50922408293E+02  0.46016283290E+01  0.51614171175E+02  0.00000000000E+00 0.  1.
         11    1    1    2    0    0 -0.35553077435E+02  0.97400661519E+01 -0.63803508890E+02  0.73687027016E+02  0.00000000000E+00 0. -1.
</event>
<event>
 7    1  0.2690635E-009  0.1219992E+03  0.7561462E-02  0.1239835E+00
          4   -1    0    0  501    0  0.00000000000E+00  0.00000000000E+00  0.29156847834E+03  0.29156847834E+03  0.00000000000E+00 0. -1.
         -4   -1    0    0    0  501 -0.00000000000E+00 -0.00000000000E+00 -0.53647274352E+02  0.53647274352E+02  0.00000000000E+00 0.  1.
         25    2    1    2    0    0 -0.54918318724E+02  0.30200981000E+02  0.15691749928E+03  0.21023528141E+03  0.12509057112E+03 0.  0.
          5    1    3    3  502    0  0.21262876438E+02  0.53483539180E+02  0.85593831232E+02  0.10322972064E+03  0.41800000000E+01 0. -1.
         -5    1    3    3    0  502 -0.76181195162E+02 -0.23282558180E+02  0.71323668053E+02  0.10700556077E+03  0.41800000000E+01 0. -1.
        -11    1    1    2    0    0  0.41475552022E+02 -0.60513515225E+02  0.65612184028E+02  0.98422891816E+02  0.00000000000E+00 0. -1.
         11    1    1    2    0    0  0.13442766702E+02  0.30312534225E+02  0.15391520674E+02  0.36557579466E+02  0.00000000000E+00 0.  1.
</event>
<event>
 7    1  0.2690635E-009  0.1239240E+03  0.7561462E-02  0.1236760E+00
          1   -1    0    0  501    0  0.00000000000E+00  0.00000000000E+00  0.12650779129E+04  0.12650779129E+04  0.00000000000E+00 0. -1.
         -1   -1    0    0    0  501 -0.00000000000E+00 -0.00000000000E+00 -0.26503575726E+02  0.26503575726E+02  0.00000000000E+00 0.  1.
         25    2    1    2    0    0  0.51346481483E+02  0.68701026456E+02  0.10690337371E+04  0.10797400097E+04  0.12509622438E+03 0.  0.
          5    1    3    3  502    0  0.16961450241E+02 -0.20475967049E+02  0.62209718611E+03  0.62267916087E+03  0.41800000000E+01 0.  1.
         -5    1    3    3    0  502  0.34385031242E+02  0.89176993506E+02  0.44693655095E+03  0.45706084881E+03  0.41800000000E+01 0.  1.
        -11    1    1    2    0    0 -0.48308989448E+02 -0.90857078363E+02  0.12423256381E+03  0.16131490030E+03  0.00000000000E+00 0.  1.
         11    1    1    2    0    0 -0.30374920348E+01  0.22156051906E+02  0.45308036268E+02  0.50526578594E+02  0.00000000000E+00 0. -1.
</event>
<event>
 7    1  0.2690635E-009  0.1173431E+03  0.7561462E-02  0.1247546E+00
          3   -1    0    0  501    0  0.00000000000E+00  0.00000000000E+00  0.17821417711E+03  0.17821417711E+03  0.00000000000E+00 0. -1.
         -3   -1    0    0    0  501 -0.00000000000E+00 -0.00000000000E+00 -0.12025301596E+03  0.12025301596E+03  0.00000000000E+00 0.  1.
         25    2    1    2    0    0 -0.82942741590E+02 -0.27025858981E+02 -0.12807700518E+02  0.15303988795E+03  0.12508906697E+03 0.  0.
          5    1    3    3  502    0 -0.59968229731E+02  0.17667353918E+02 -0.57959902599E+02  0.85353070717E+02  0.41800000000E+01 0.  1.
         -5    1    3    3    0  502 -0.22974511859E+02 -0.44693212899E+02  0.45152202082E+02  0.67686817233E+02  0.41800000000E+01 0.  1.
        -11    1    1    2    0    0  0.13832906978E+02  0.47541665373E+02  0.50085691556E+02  0.70428231275E+02  0.00000000000E+00 0.  1.
         11    1    1    2    0    0  0.69109834611E+02 -0.20515806392E+02  0.20683170111E+02  0.74999073846E+02  0.00000000000E+00 0. -1.
</event>
<event>
 7    1  0.2690635E-009  0.1747918E+03  0.7561462E-02  0.1172941E+00
          1   -1    0    0  501    0  0.00000000000E+00  0.00000000000E+00  0.20992529447E+03  0.20992529447E+03  0.00000000000E+00 0.  1.
         -1   -1    0    0    0  501 -0.00000000000E+00 -0.00000000000E+00 -0.15123390653E+03  0.15123390653E+03  0.00000000000E+00 0. -1.
         25    2    1    2    0    0 -0.67441697195E+02  0.11909684280E+03  0.64343567736E+02  0.19626548486E+03  0.12509038873E+03 0.  0.
          5    1    3    3  502    0  0.36246015226E+02  0.42598726749E+02  0.13568468637E+02  0.57706159824E+02  0.41800000000E+01 0. -1.
         -5    1    3    3    0  502 -0.10368771242E+03  0.76498116052E+02  0.50775099099E+02  0.13855932504E+03  0.41800000000E+01 0. -1.
        -11    1    1    2    0    0  0.89920989668E+02 -0.85015693470E+02 -0.54674482240E+00  0.12374874322E+03  0.00000000000E+00 0.  1.
         11    1    1    2    0    0 -0.22479292473E+02 -0.34081149331E+02 -0.51054349703E+01  0.41144972913E+02  0.00000000000E+00 0. -1.
</event>
<event>
 7    1  0.2690635E-009  0.1120177E+03  0.7561462E-02  0.1256878E+00
          2   -1    0    0  501    0  0.00000000000E+00  0.00000000000E+00  0.42555142005E+03  0.42555142005E+03  0.00000000000E+00 0. -1.
         -2   -1    0    0    0  501 -0.00000000000E+00 -0.00000000000E+00 -0.61012022124E+02  0.61012022124E+02  0.00000000000E+00 0.  1.
         25    2    1    2    0    0 -0.34754598808E+02  0.20182198861E+02  0.29597536939E+02  0.13467899838E+03  0.12508882892E+03 0.  0.
          5    1    3    3  502    0 -0.72320773826E+02  0.30517613764E+02  0.47234652798E+02  0.91707163851E+02  0.41800000000E+01 0. -1.
         -5    1    3    3    0  502  0.37566175017E+02 -0.10335414902E+02 -0.17637115859E+02  0.42971834525E+02  0.41800000000E+01 0. -1.
        -11    1    1    2    0    0 -0.20103979632E+02 -0.42502323257E+02  0.17908336137E+03  0.18515255277E+03  0.00000000000E+00 0. -1.
         11    1    1    2    0    0  0.54858578440E+02  0.22320124396E+02  0.15585849962E+03  0.16673189102E+03  0.00000000000E+00 0.  1.
</event>
<event>
 7    1  0.2690635E-009  0.7162435E+02  0.7561462E-02  0.1354655E+00
          1   -1    0    0  501    0  0.00000000000E+00  0.00000000000E+00  0.20208850942E+03  0.20208850942E+03  0.00000000000E+00 0. -1.
         -1   -1    0    0    0  501 -0.00000000000E+00 -0.00000000000E+00 -0.46430789003E+02  0.46430789003E+02  0.00000000000E+00 0.  1.
         25    2    1    2    0    0 -0.65142238765E+01  0.14817721826E+01  0.91016062652E+02  0.15484382701E+03  0.12509219136E+03 0.  0.
          5    1    3    3  502    0 -0.19679242698E+02  0.42671742339E+02 -0.69416924297E+01  0.47684480507E+02  0.41800000000E+01 0. -1.
         -5    1    3    3    0  502  0.13165018822E+02 -0.41189970156E+02  0.97957755081E+02  0.10715934650E+03  0.41800000000E+01 0. -1.
        -11    1    1    2    0    0 -0.23007411623E+02 -0.20708803831E+01  0.54760585670E+00  0.23106912544E+02  0.00000000000E+00 0.  1.
         11    1    1    2    0    0  0.29521635500E+02  0.58910820051E+00  0.64094051909E+02  0.70568558871E+02  0.00000000000E+00 0. -1.
</event>
<event>
 7    1  0.2690635E-009  0.1515709E+03  0.7561462E-02  0.1198556E+00
         -1   -1    0    0    0  501 -0.00000000000E+00  0.00000000000E+00  0.12732706527E+03  0.12732706527E+03  0.00000000000E+00 0.  1.
          1   -1    0    0  501    0  0.00000000000E+00 -0.00000000000E+00 -0.32673484404E+03  0.32673484404E+03  0.00000000000E+00 0. -1.
         25    2    1    2    0    0  0.33649876297E+02 -0.14752938339E+03 -0.13516285536E+02  0.19678827424E+03  0.12508277965E+03 0.  0.
          5    1    3    3  502    0  0.20257156014E+02 -0.83012539675E+02 -0.69500331007E+02  0.11022342094E+03  0.41800000000E+01 0.  1.
         -5    1    3    3    0  502  0.13392720283E+02 -0.64516843720E+02  0.55984045471E+02  0.86564853303E+02  0.41800000000E+01 0.  1.
        -11    1    1    2    0    0 -0.79805948314E+01  0.53676320787E+02 -0.84702458030E+01  0.54923422791E+02  0.00000000000E+00 0.  1.
         11    1    1    2    0    0 -0.25669281466E+02  0.93853062607E+02 -0.17742124743E+03  0.20235021228E+03  0.00000000000E+00 0. -1.
</event>
<event>
 7    1  0.2690635E-009  0.1396249E+03  0.7561462E-02  0.1213835E+00
          2   -1    0    0  501    0  0.00000000000E+00  0.00000000000E+00  0.12549661048E+04  0.12549661048E+04  0.00000000000E+00 0. -1.
         -2   -1    0    0    0  501 -0.00000000000E+00 -0.00000000000E+00 -0.18854618304E+02  0.18854618304E+02  0.00000000000E+00 0.  1.
         25    2    1    2    0    0  0.60464658092E+02 -0.75505586967E+02  0.67884642428E+03  0.69701982141E+03  0.12508834932E+03 0.  0.
          5    1    3    3  502    0  0.27848610111E+02 -0.95737223642E+02  0.60980626644E+03  0.61791772596E+03  0.41800000000E+01 0.  1.
         -5    1    3    3    0  502  0.32616047981E+02  0.20231636675E+02  0.69040157847E+02  0.79102095447E+02  0.41800000000E+01 0.  1.
        -11    1    1    2    0    0  0.11254323411E+02  0.67787560111E+02  0.36581252860E+03  0.37221045012E+03  0.00000000000E+00 0. -1.
         11    1    1    2    0    0 -0.71718981503E+02  0.77180268557E+01  0.19145253361E+03  0.20459045157E+03  0.00000000000E+00 0.  1.
</event>
<event>
 7    1  0.2690635E-009  0.1284401E+03  0.7561462E-02  0.1229789E+00
         -2   -1    0    0    0  501 -0.00000000000E+00  0.00000000000E+00  0.13890496766E+03  0.13890496766E+03  0.00000000000E+00 0.  1.
          2   -1    0    0  501    0  0.00000000000E+00 -0.00000000000E+00 -0.16947478226E+03  0.16947478226E+03  0.00000000000E+00 0. -1.
         25    2    1    2    0    0  0.53623378217E+02 -0.67001076196E+02  0.49624515291E+02  0.15960631303E+03  0.12508785608E+03 0.  0.
          5    1    3    3  502    0  0.69538189393E+02 -0.86671641803E+02  0.65874799563E+02  0.12924586993E+03  0.41800000000E+01 0. -1.
         -5    1    3    3    0  502 -0.15914811176E+02  0.19670565607E+02 -0.16250284271E+02  0.30360443096E+02  0.41800000000E+01 0. -1.
        -11    1    1    2    0    0  0.95829173560E+00 -0.18540353078E+02 -0.30694068907E+02  0.35871839671E+02  0.00000000000E+00 0. -1.
         11    1    1    2    0    0 -0.54581669953E+02  0.85541429274E+02 -0.49500260991E+02  0.11290159722E+03  0.00000000000E+00 0.  1.
</event>
<event>
 7    1  0.2690635E-009  0.9564565E+02  0.7561462E-02  0.1289729E+00
          1   -1    0    0  501    0  0.00000000000E+00  0.00000000000E+00  0.17550955648E+03  0.17550955648E+03  0.00000000000E+00 0. -1.
         -1   -1    0    0    0  501 -0.00000000000E+00 -0.00000000000E+00 -0.12819440772E+03  0.12819440772E+03  0.00000000000E+00 0.  1.
         25    2    1    2    0    0  0.29906057092E+02 -0.63331721210E+01  0.12496271149E+03  0.17943648761E+03  0.12508913823E+03 0.  0.
          5    1    3    3  502    0  0.31128698128E+02 -0.59115816302E+02  0.10132028383E+03  0.12143701207E+03  0.41800000000E+01 0. -1.
         -5    1    3    3    0  502 -0.12226410355E+01  0.52782644181E+02  0.23642427660E+02  0.57999475545E+02  0.41800000000E+01 0. -1.
        -11    1    1    2    0    0 -0.22941043904E+02  0.35021373051E+02 -0.84193950100E+02  0.94028768466E+02  0.00000000000E+00 0.  1.
         11    1    1    2    0    0 -0.69650131879E+01 -0.28688200930E+02  0.65463873677E+01  0.30238708122E+02  0.00000000000E+00 0. -1.
</event>
<event>
 7    1  0.2690635E-009  0.1583520E+03  0.7561462E-02  0.1190570E+00
          2   -1    0    0  501    0  0.00000000000E+00  0.00000000000E+00  0.43234507949E+02  0.43234507949E+02  0.00000000000E+00 0. -1.
         -2   -1    0    0    0  501 -0.00000000000E+00 -0.00000000000E+00 -0.61937171170E+03  0.61937171170E+03  0.00000000000E+00 0.  1.
         25    2    1    2    0    0 -0.37255934988E+02 -0.11591012378E+03 -0.28346193942E+03  0.33289908812E+03  0.12509184740E+03 0.  0.
          5    1    3    3  502    0  0.45888147818E+02 -0.32866802370E+02 -0.82109045515E+02  0.99726208007E+02  0.41800000000E+01 0. -1.
         -5    1    3    3    0  502 -0.83144082805E+02 -0.83043321413E+02 -0.20135289391E+03  0.23317288011E+03  0.41800000000E+01 0. -1.
        -11    1    1    2    0    0  0.17614150514E+02  0.12096194332E+03 -0.28068408930E+03  0.30614638331E+03  0.00000000000E+00 0.  1.
         11    1    1    2    0    0  0.19641784473E+02 -0.50518195362E+01 -0.11991175037E+02  0.23560748220E+02  0.00000000000E+00 0. -1.
</event>
<event>
 7    1  0.2690635E-009  0.7967523E+02  0.7561462E-02  0.1329976E+00
         -1   -1    0    0    0  501 -0.00000000000E+00  0.00000000000E+00  0.48679772229E+02  0.48679772229E+02  0.00000000000E+00 0.  1.
          1   -1    0    0  501    0  0.00000000000E+00 -0.00000000000E+00 -0.37190920904E+03  0.37190920904E+03  0.00000000000E+00 0. -1.
         25    2    1    2    0    0  0.14422761793E+02  0.50171060541E+02 -0.27169006351E+03  0.30362544363E+03  0.12509103898E+03 0.  0.
          5    1    3    3  502    0  0.16382333679E+02 -0.13918999615E+02  0.24677980735E+01  0.22038190361E+02  0.41800000000E+01 0.  1.
         -5    1    3    3    0  502 -0.19595718861E+01  0.64090060156E+02 -0.27415786159E+03  0.28158725327E+03  0.41800000000E+01 0.  1.
        -11    1    1    2    0    0  0.11781410182E+02  0.44654882340E+01  0.19733935678E+02  0.23413039709E+02  0.00000000000E+00 0.  1.
         11    1    1    2    0    0 -0.26204171975E+02 -0.54636548775E+02 -0.71273308975E+02  0.93550497931E+02  0.00000000000E+00 0. -1.
</event>
<event>
 7    1  0.2690635E-009  0.1127227E+03  0.7561462E-02  0.1255609E+00
          4   -1    0    0  501    0  0.00000000000E+00  0.00000000000E+00  0.51839849664E+02  0.51839849664E+02  0.00000000000E+00 0. -1.
         -4   -1    0    0    0  501 -0.00000000000E+00 -0.00000000000E+00 -0.27001528646E+03  0.27001528646E+03  0.00000000000E+00 0.  1.
         25    2    1    2    0    0  0.49166229626E+01 -0.27573920122E+02 -0.80886353696E+02  0.15157100320E+03  0.12508666014E+03 0.  0.
          5    1    3    3  502    0 -0.56425445805E+02 -0.28629555658E+02 -0.24000996175E+02  0.67801199170E+02  0.41800000000E+01 0. -1.
         -5    1    3    3    0  502  0.61342068768E+02  0.10556355358E+01 -0.56885357522E+02  0.83769804031E+02  0.41800000000E+01 0. -1.
        -11    1    1    2    0    0  0.29853026473E+02 -0.24025603728E+02 -0.57576334484E+02  0.69162613576E+02  0.00000000000E+00 0.  1.
         11    1    1    2    0    0 -0.34769649435E+02  0.51599523850E+02 -0.79712748618E+02  0.10112151935E+03  0.00000000000E+00 0. -1.
</event>
<event>
 7    1  0.2690635E-009  0.1003520E+03  0.7561462E-02  0.1279557E+00
         -2   -1    0    0    0  501 -0.00000000000E+00  0.00000000000E+00  0.84807065612E+02  0.84807065612E+02  0.00000000000E+00 0.  1.
          2   -1    0    0  501    0  0.00000000000E+00 -0.00000000000E+00 -0.22732531662E+03  0.22732531662E+03  0.00000000000E+00 0. -1.
         25    2    1    2    0    0 -0.41712793821E+01 -0.47541831390E+02  0.35889553083E+01  0.13393266529E+03  0.12508977947E+03 0.  0.
          5    1    3    3  502    0 -0.50607569138E+02 -0.55344650697E+02 -0.24425795126E+02  0.78982582146E+02  0.41800000000E+01 0. -1.
         -5    1    3    3    0  502  0.46436289756E+02  0.78028193078E+01  0.28014750435E+02  0.54950083142E+02  0.41800000000E+01 0. -1.
        -11    1    1    2    0    0  0.33159406405E+02  0.23223152553E+02 -0.13158341025E+03  0.13767009443E+03  0.00000000000E+00 0. -1.
         11    1    1    2    0    0 -0.28988127023E+02  0.24318678836E+02 -0.14523796063E+02  0.40529622509E+02  0.00000000000E+00 0.  1.
</event>
<event>
 7    1  0.2690635E-009  0.1179781E+03  0.7561462E-02  0.1246470E+00
          1   -1    0    0  501    0  0.00000000000E+00  0.00000000000E+00  0.10434510442E+04  0.10434510442E+04  0.00000000000E+00 0. -1.
         -1   -1    0    0    0  501 -0.00000000000E+00 -0.00000000000E+00 -0.16749514613E+02  0.16749514613E+02  0.00000000000E+00 0.  1.
         25    2    1    2    0    0  0.49092872907E+02  0.60874165616E+02  0.57007770207E+03  0.58885722126E+03  0.12509383049E+03 0.  0.
          5    1    3    3  502    0  0.15559586823E+02  0.81425769697E+02  0.19815564431E+03  0.21483805176E+03  0.41800000000E+01 0.  1.
         -5    1    3    3    0  502  0.33533286084E+02 -0.20551604080E+02  0.37192205775E+03  0.37401916950E+03  0.41800000000E+01 0.  1.
        -11    1    1    2    0    0  0.18848829006E+02  0.42119279176E+01  0.42758511715E+02  0.46918109678E+02  0.00000000000E+00 0.  1.
         11    1    1    2    0    0 -0.67941701913E+02 -0.65086093534E+02  0.41386531582E+03  0.42442522789E+03  0.00000000000E+00 0. -1.
</event>
<event>
 7    1  0.2690635E-009  0.1267747E+03  0.7561462E-02  0.1232321E+00
         -1   -1    0    0    0  501 -0.00000000000E+00  0.00000000000E+00  0.61100723183E+02  0.61100723183E+02  0.00000000000E+00 0.  1.
          1   -1    0    0  501    0  0.00000000000E+00 -0.00000000000E+00 -0.32445144633E+03  0.32445144633E+03  0.00000000000E+00 0. -1.
         25    2    1    2    0    0 -0.38470097529E+02 -0.77555981420E+02 -0.12044108680E+03  0.19403298555E+03  0.12509142830E+03 0.  0.
          5    1    3    3  502    0 -0.81848426229E+02 -0.54135926895E+02 -0.56931766261E+02  0.11352780217E+03  0.41800000000E+01 0. -1.
         -5    1    3    3    0  502  0.43378328700E+02 -0.23420054525E+02 -0.63509320541E+02  0.80505183375E+02  0.41800000000E+01 0. -1.
        -11    1    1    2    0    0  0.92894870910E+01 -0.99495640193E+01  0.71498240315E+01  0.15375577331E+02  0.00000000000E+00 0.  1.
         11    1    1    2    0    0  0.29180610438E+02  0.87505545440E+02 -0.15005946037E+03  0.17614360663E+03  0.00000000000E+00 0. -1.
</event>
<event>
 7    1  0.2690635E-009  0.1070081E+03  0.7561462E-02  0.1266213E+00
         -1   -1    0    0    0  501 -0.00000000000E+00  0.00000000000E+00  0.23010748277E+03  0.23010748277E+03  0.00000000000E+00 0.  1.
          1   -1    0    0  501    0  0.00000000000E+00 -0.00000000000E+00 -0.53469299485E+02  0.53469299485E+02  0.00000000000E+00 0. -1.
         25    2    1    2    0    0 -0.10348433113E+02  0.20207570086E+01  0.76952090456E+02  0.14724117912E+03  0.12508863688E+03 0.  0.
          5    1    3    3  502    0 -0.49535091900E+02  0.42991014241E+02  0.25272198645E+02  0.70413841391E+02  0.41800000000E+01 0.  1.
         -5    1    3    3    0  502  0.39186658787E+02 -0.40970257233E+02  0.51679891810E+02  0.76827337727E+02  0.41800000000E+01 0.  1.
        -11    1    1    2    0    0 -0.38942856035E+02  0.10995660149E+02  0.31951212586E+02  0.51559000805E+02  0.00000000000E+00 0. -1.
         11    1    1    2    0    0  0.49291289148E+02 -0.13016417158E+02  0.67734880248E+02  0.84776602337E+02  0.00000000000E+00 0.  1.
</event>
<event>
 7    1  0.2690635E-009  0.1077818E+03  0.7561462E-02  0.1264734E+00
          2   -1    0    0  501    0  0.00000000000E+00  0.00000000000E+00  0.35434516116E+03  0.35434516116E+03  0.00000000000E+00 0. -1.
         -2   -1    0    0    0  501 -0.00000000000E+00 -0.00000000000E+00 -0.68251432772E+02  0.68251432772E+02  0.00000000000E+00 0.  1.
         25    2    1    2    0    0  0.15127167588E+02 -0.40098237336E+02  0.29375351749E+03  0.32214164359E+03  0.12508960651E+03 0.  0.
          5    1    3    3  502    0 -0.19647949494E+02 -0.78042987549E+02  0.17984311396E+03  0.19707300135E+03  0.41800000000E+01 0.  1.
         -5    1    3    3    0  502  0.34775117082E+02  0.37944750213E+02  0.11391040353E+03  0.12506864223E+03  0.41800000000E+01 0.  1.
        -11    1    1    2    0    0 -0.42022153380E+02  0.10437138719E+02 -0.31781788117E+02  0.53711053753E+02  0.00000000000E+00 0.  1.
         11    1    1    2    0    0  0.26894985792E+02  0.29661098618E+02  0.24121999009E+02  0.46743896588E+02  0.00000000000E+00 0. -1.
</event>
<event>
 7    1  0.2690635E-009  0.1742448E+03  0.7561462E-02  0.1173492E+00
          1   -1    0    0  501    0  0.00000000000E+00  0.00000000000E+00  0.56206084474E+02  0.56206084474E+02  0.00000000000E+00 0. -1.
         -1   -1    0    0    0  501 -0.00000000000E+00 -0.00000000000E+00 -0.73932835939E+03  0.73932835939E+03  0.00000000000E+00 0.  1.
         25    2    1    2    0    0  0.24451631210E+02  0.13381902202E+03 -0.56017618459E+03  0.58987308160E+03  0.12508989442E+03 0.  0.
          5    1    3    3  502    0 -0.42225768083E+02  0.10058951918E+03 -0.36251420975E+03  0.37859647585E+03  0.41800000000E+01 0. -1.
         -5    1    3    3    0  502  0.66677399292E+02  0.33229502844E+02 -0.19766197485E+03  0.21127660575E+03  0.41800000000E+01 0. -1.
        -11    1    1    2    0    0  0.93877545742E+01  0.11869753306E+02 -0.14065085528E+02  0.20660290666E+02  0.00000000000E+00 0. -1.
         11    1    1    2    0    0 -0.33839385784E+02 -0.14568877533E+03 -0.10888100480E+03  0.18500107160E+03  0.00000000000E+00 0.  1.
</event>
<event>
 7    1  0.2690635E-009  0.1490990E+03  0.7561462E-02  0.1201585E+00
         -2   -1    0    0    0  501 -0.00000000000E+00  0.00000000000E+00  0.39673796591E+02  0.39673796591E+02  0.00000000000E+00 0.  1.
          2   -1    0    0  501    0  0.00000000000E+00 -0.00000000000E+00 -0.73654852069E+03  0.73654852069E+03  0.00000000000E+00 0. -1.
         25    2    1    2    0    0 -0.19435829817E+01 -0.10945434429E+03 -0.20291669986E+03  0.26230860665E+03  0.12508631837E+03 0.  0.
          5    1    3    3  502    0 -0.52037160957E+02 -0.18122922994E+02 -0.37507769357E+02  0.66787810419E+02  0.41800000000E+01 0.  1.
         -5    1    3    3    0  502  0.50093577976E+02 -0.91331421294E+02 -0.16540893050E+03  0.19552079623E+03  0.41800000000E+01 0.  1.
        -11    1    1    2    0    0  0.38358611570E+02  0.22635252274E+02 -0.11217215208E+03  0.12069104950E+03  0.00000000000E+00 0. -1.
         11    1    1    2    0    0 -0.36415028588E+02  0.86819092013E+02 -0.38178587216E+03  0.39322266113E+03  0.00000000000E+00 0.  1.
</event>
<event>
 7    1  0.2690635E-009  0.1350147E+03  0.7561462E-02  0.1220199E+00
         -3   -1    0    0    0  501 -0.00000000000E+00  0.00000000000E+00  0.22464307648E+03  0.22464307648E+03  0.00000000000E+00 0.  1.
          3   -1    0    0  501    0  0.00000000000E+00 -0.00000000000E+00 -0.10025604060E+03  0.10025604060E+03  0.00000000000E+00 0. -1.
         25    2    1    2    0    0  0.10026793249E+03 -0.31584974877E+02  0.73163230901E+02  0.17903029303E+03  0.12509084117E+03 0.  0.
          5    1    3    3  502    0  0.97837172636E+01 -0.50907581501E+02  0.68884863322E+02  0.86312801905E+02  0.41800000000E+01 0.  1.
         -5    1    3    3    0  502  0.90484215224E+02  0.19322606624E+02  0.42783675788E+01  0.92717491125E+02  0.41800000000E+01 0.  1.
        -11    1    1    2    0    0 -0.56426381944E+02  0.52279821990E+02  0.58770617696E+02  0.96804451710E+02  0.00000000000E+00 0.  1.
         11    1    1    2    0    0 -0.43841550544E+02 -0.20694847113E+02 -0.75468127117E+01  0.49064372341E+02  0.00000000000E+00 0. -1.
</event>
<event>
 7    1  0.2690635E-009  0.1286121E+03  0.7561462E-02  0.1229530E+00
         -2   -1    0    0    0  501 -0.00000000000E+00  0.00000000000E+00  0.25100237578E+02  0.25100237578E+02  0.00000000000E+00 0.  1.
          2   -1    0    0  501    0  0.00000000000E+00 -0.00000000000E+00 -0.72408818323E+03  0.72408818323E+03  0.00000000000E+00 0. -1.
         25    2    1    2    0    0  0.58693354332E+02  0.37174504997E+02 -0.28760778454E+03  0.32123524792E+03  0.12508794152E+03 0.  0.
          5    1    3    3  502    0  0.90803892159E+01 -0.44884372417E+02 -0.75150834500E+02  0.88103238769E+02  0.41800000000E+01 0.  1.
         -5    1    3    3    0  502  0.49612965117E+02  0.82058877413E+02 -0.21245695004E+03  0.23313200915E+03  0.41800000000E+01 0.  1.
        -11    1    1    2    0    0  0.15753749214E+01  0.27100775869E+02 -0.14064105572E+03  0.14323700783E+03  0.00000000000E+00 0.  1.
         11    1    1    2    0    0 -0.60268729254E+02 -0.64275280866E+02 -0.27073910540E+03  0.28471616506E+03  0.00000000000E+00 0. -1.
</event>
<event>
 7    1  0.2690635E-009  0.1715900E+03  0.7561462E-02  0.1176200E+00
         -1   -1    0    0    0  501 -0.00000000000E+00  0.00000000000E+00  0.63108846484E+02  0.63108846484E+02  0.00000000000E+00 0.  1.
          1   -1    0    0  501    0  0.00000000000E+00 -0.00000000000E+00 -0.67696564809E+03  0.67696564809E+03  0.00000000000E+00 0. -1.
         25    2    1    2    0    0 -0.70029402101E+01  0.14560735501E+03 -0.49620406001E+03  0.53208705746E+03  0.12509046541E+03 0.  0.
          5    1    3    3  502    0 -0.45836910363E+02  0.11657532054E+03 -0.44114237333E+03  0.45860101794E+03  0.41800000000E+01 0. -1.
         -5    1    3    3    0  502  0.38833970153E+02  0.29032034469E+02 -0.55061686680E+02  0.73486039512E+02  0.41800000000E+01 0. -1.
        -11    1    1    2    0    0 -0.39517739907E+02 -0.71055539522E+02 -0.39526406430E+02  0.90403972641E+02  0.00000000000E+00 0. -1.
         11    1    1    2    0    0  0.46520680117E+02 -0.74551815491E+02 -0.78126335162E+02  0.11758346447E+03  0.00000000000E+00 0.  1.
</event>
<event>
 7    1  0.2690635E-009  0.9735554E+02  0.7561462E-02  0.1285957E+00
         -1   -1    0    0    0  501 -0.00000000000E+00  0.00000000000E+00  0.60279507705E+02  0.60279507705E+02  0.00000000000E+00 0.  1.
          1   -1    0    0  501    0  0.00000000000E+00 -0.00000000000E+00 -0.37781776340E+03  0.37781776340E+03  0.00000000000E+00 0. -1.
         25    2    1    2    0    0 -0.47723603345E+02  0.65157294660E+02 -0.75948579452E+02  0.16714929816E+03  0.12509071025E+03 0.  0.
          5    1    3    3  502    0 -0.35495349028E+01  0.95866260298E+01 -0.93299672404E+02  0.93951071667E+02  0.41800000000E+01 0. -1.
         -5    1    3    3    0  502 -0.44174068442E+02  0.55570668630E+02  0.17351092952E+02  0.73198226490E+02  0.41800000000E+01 0. -1.
        -11    1    1    2    0    0  0.67326613657E+02 -0.64041113292E+02 -0.14381834647E+03  0.17122457148E+03  0.00000000000E+00 0.  1.
         11    1    1    2    0    0 -0.19603010312E+02 -0.11161813675E+01 -0.97771329777E+02  0.99723401469E+02  0.00000000000E+00 0. -1.
</event>
<event>
 7    1  0.2690635E-009  0.7186974E+02  0.7561462E-02  0.1353848E+00
          2   -1    0    0  501    0  0.00000000000E+00  0.00000000000E+00  0.13858208457E+03  0.13858208457E+03  0.00000000000E+00 0. -1.
         -2   -1    0    0    0  501 -0.00000000000E+00 -0.00000000000E+00 -0.12629224173E+03  0.12629224173E+03  0.00000000000E+00 0.  1.
         25    2    1    2    0    0 -0.37216356507E+02 -0.60507722837E+02  0.25881829125E+02  0.14616275026E+03  0.12508972288E+03 0.  0.
          5    1    3    3  502    0 -0.77336908517E+01 -0.62408940326E+01  0.69568688687E+02  0.70399102111E+02  0.41800000000E+01 0.  1.
         -5    1    3    3    0  502 -0.29482665655E+02 -0.54266828804E+02 -0.43686859561E+02  0.75763648149E+02  0.41800000000E+01 0.  1.
        -11    1    1    2    0    0  0.19209846447E+02  0.29556452446E+02 -0.54147093137E+02  0.64610446345E+02  0.00000000000E+00 0.  1.
         11    1    1    2    0    0  0.18006510060E+02  0.30951270391E+02  0.40555106846E+02  0.54101129698E+02  0.00000000000E+00 0. -1.
</event>
<event>
 7    1  0.2690635E-009  0.1156592E+03  0.7561462E-02  0.1250435E+00
          2   -1    0    0  501    0  0.00000000000E+00  0.00000000000E+00  0.29606029711E+03  0.29606029711E+03  0.00000000000E+00 0.  1.
         -2   -1    0    0    0  501 -0.00000000000E+00 -0.00000000000E+00 -0.53831691866E+02  0.53831691866E+02  0.00000000000E+00 0. -1.
         25    2    1    2    0    0  0.58308849049E+02 -0.27308992693E+02  0.13976984167E+03  0.19831677413E+03  0.12509289070E+03 0.  0.
          5    1    3    3  502    0 -0.20852983343E+02  0.27080406290E+02  0.74627525549E+02  0.82188413349E+02  0.41800000000E+01 0.  1.
         -5    1    3    3    0  502  0.79161832392E+02 -0.54389398983E+02  0.65142316118E+02  0.11612836079E+03  0.41800000000E+01 0.  1.
        -11    1    1    2    0    0 -0.20196738423E+02  0.51696136497E+02  0.88062882981E+02  0.10409356431E+03  0.00000000000E+00 0.  1.
         11    1    1    2    0    0 -0.38112110626E+02 -0.24387143804E+02  0.14395880596E+02  0.47481650534E+02  0.00000000000E+00 0. -1.
</event>
<event>
 7    1  0.2690635E-009  0.1081117E+03  0.7561462E-02  0.1264107E+00
         -1   -1    0    0    0  501 -0.00000000000E+00  0.00000000000E+00  0.14638630094E+02  0.14638630094E+02  0.00000000000E+00 0.  1.
          1   -1    0    0  501    0  0.00000000000E+00 -0.00000000000E+00 -0.90452036692E+03  0.90452036692E+03  0.00000000000E+00 0. -1.
         25    2    1    2    0    0 -0.96971777224E+01 -0.74560462017E+01 -0.62874539746E+03  0.64118532683E+03  0.12509284806E+03 0.  0.
          5    1    3    3  502    0  0.51546741758E+02  0.20606283671E+02 -0.34901366412E+03  0.35342565789E+03  0.41800000000E+01 0.  1.
         -5    1    3    3    0  502 -0.61243919481E+02 -0.28062329873E+02 -0.27973173333E+03  0.28775966893E+03  0.41800000000E+01 0.  1.
        -11    1    1    2    0    0 -0.35189483074E+02  0.26746669995E+02 -0.94560543016E+02  0.10438093873E+03  0.00000000000E+00 0.  1.
         11    1    1    2    0    0  0.44886660796E+02 -0.19290623793E+02 -0.16657579636E+03  0.17359273146E+03  0.00000000000E+00 0. -1.
</event>
<event>
 7    1  0.2690635E-009  0.1187296E+03  0.7561462E-02  0.1245208E+00
          1   -1    0    0  501    0  0.00000000000E+00  0.00000000000E+00  0.21808106093E+03  0.21808106093E+03  0.00000000000E+00 0. -1.
         -1   -1    0    0    0  501 -0.00000000000E+00 -0.00000000000E+00 -0.14325385340E+03  0.14325385340E+03  0.00000000000E+00 0.  1.
         25    2    1    2    0    0  0.36524888973E+02  0.86821299778E+02 -0.61301868644E+02  0.16816557258E+03  0.12509890124E+03 0.  0.
          5    1    3    3  502    0  0.30710155006E+02  0.11245079697E+03 -0.74556947327E+02  0.13843592797E+03  0.41800000000E+01 0. -1.
         -5    1    3    3    0  502  0.58147339675E+01 -0.25629497191E+02  0.13255078683E+02  0.29729644604E+02  0.41800000000E+01 0. -1.
        -11    1    1    2    0    0 -0.23121162505E+02 -0.52998705223E+02  0.60965361792E+01  0.58143087846E+02  0.00000000000E+00 0.  1.
         11    1    1    2    0    0 -0.13403726468E+02 -0.33822594555E+02  0.13003253999E+03  0.13502625390E+03  0.00000000000E+00 0. -1.
</event>
<event>
 7    1  0.2690635E-009  0.5832319E+02  0.7561462E-02  0.1405006E+00
         -2   -1    0    0    0  501 -0.00000000000E+00  0.00000000000E+00  0.13620958746E+03  0.13620958746E+03  0.00000000000E+00 0.  1.
          2   -1    0    0  501    0  0.00000000000E+00 -0.00000000000E+00 -0.13623477844E+03  0.13623477844E+03  0.00000000000E+00 0. -1.
         25    2    1    2    0    0  0.20952900055E+02 -0.36826453026E+02 -0.45084719007E+02  0.13955373572E+03  0.12508957431E+03 0.  0.
          5    1    3    3  502    0  0.94069094374E+01 -0.51660854970E+02  0.30965164963E+02  0.61103581912E+02  0.41800000000E+01 0.  1.
         -5    1    3    3    0  502  0.11545990618E+02  0.14834401944E+02 -0.76049883969E+02  0.78450153806E+02  0.41800000000E+01 0.  1.
        -11    1    1    2    0    0 -0.15748930437E+01  0.16698974321E+02 -0.39992288212E+02  0.43367258939E+02  0.00000000000E+00 0. -1.
         11    1    1    2    0    0 -0.19378007011E+02  0.20127478705E+02  0.85051816235E+02  0.89523371248E+02  0.00000000000E+00 0.  1.
</event>
<event>
 7    1  0.2690635E-009  0.8882397E+02  0.7561462E-02  0.1305725E+00
         -2   -1    0    0    0  501 -0.00000000000E+00  0.00000000000E+00  0.19479799100E+02  0.19479799100E+02  0.00000000000E+00 0.  1.
          2   -1    0    0  501    0  0.00000000000E+00 -0.00000000000E+00 -0.74977684629E+03  0.74977684629E+03  0.00000000000E+00 0. -1.
         25    2    1    2    0    0 -0.91659302587E+01 -0.39553982047E+02 -0.30119327776E+03  0.32865844270E+03  0.12510175707E+03 0.  0.
          5    1    3    3  502    0  0.17320847648E+02 -0.49258058712E+02 -0.39986381321E+02  0.65899553887E+02  0.41800000000E+01 0.  1.
         -5    1    3    3    0  502 -0.26486777906E+02  0.97040766643E+01 -0.26120689644E+03  0.26275888882E+03  0.41800000000E+01 0.  1.
        -11    1    1    2    0    0  0.33024022045E+02 -0.15699186887E+02 -0.11150629543E+03  0.11734864474E+03  0.00000000000E+00 0.  1.
         11    1    1    2    0    0 -0.23858091786E+02  0.55253168935E+02 -0.31759747401E+03  0.32324955795E+03  0.00000000000E+00 0. -1.
</event>
<event>
 7    1  0.2690635E-009  0.1124852E+03  0.7561462E-02  0.1256036E+00
         -2   -1    0    0    0  501 -0.00000000000E+00  0.00000000000E+00  0.48394457401E+02  0.48394457401E+02  0.00000000000E+00 0.  1.
          2   -1    0    0  501    0  0.00000000000E+00 -0.00000000000E+00 -0.37424982022E+03  0.37424982022E+03  0.00000000000E+00 0. -1.
         25    2    1    2    0    0  0.59348081633E+02 -0.44052799410E+02 -0.22169613473E+03  0.26506091941E+03  0.12508105738E+03 0.  0.
          5    1    3    3  502    0  0.92889667713E+02 -0.43727113688E+01 -0.14616506737E+03  0.17328967163E+03  0.41800000000E+01 0. -1.
         -5    1    3    3    0  502 -0.33541586080E+02 -0.39680088041E+02 -0.75531067351E+02  0.91771247779E+02  0.41800000000E+01 0. -1.
        -11    1    1    2    0    0 -0.19297815686E+02 -0.11919069014E+01  0.14672371851E+02  0.24271481785E+02  0.00000000000E+00 0.  1.
         11    1    1    2    0    0 -0.40050265947E+02  0.45244706311E+02 -0.11883159995E+03  0.13331187643E+03  0.00000000000E+00 0. -1.
</event>
<event>
 7    1  0.2690635E-009  0.6640448E+02  0.7561462E-02  0.1372765E+00
         -1   -1    0    0    0  501 -0.00000000000E+00  0.00000000000E+00  0.54490157753E+02  0.54490157753E+02  0.00000000000E+00 0.  1.
          1   -1    0    0  501    0  0.00000000000E+00 -0.00000000000E+00 -0.23687350450E+03  0.23687350450E+03  0.00000000000E+00 0. -1.
         25    2    1    2    0    0 -0.28333743295E+02 -0.92691588254E+01 -0.85552820996E+02  0.15445234662E+03  0.12509006308E+03 0.  0.
          5    1    3    3  502    0  0.18939086677E+01  0.17820337407E+02 -0.10685080313E+03  0.10842378818E+03  0.41800000000E+01 0. -1.
         -5    1    3    3    0  502 -0.30227651963E+02 -0.27089496232E+02  0.21297982130E+02  0.46028558440E+02  0.41800000000E+01 0. -1.
        -11    1    1    2    0    0  0.34095162156E+02  0.34035015237E+02 -0.10027953746E+03  0.11125128304E+03  0.00000000000E+00 0. -1.
         11    1    1    2    0    0 -0.57614188612E+01 -0.24765856412E+02  0.34490117031E+01  0.25660032596E+02  0.00000000000E+00 0.  1.
</event>
<event>
 7    1  0.2690635E-009  0.1000591E+03  0.7561462E-02  0.1280172E+00
          2   -1    0    0  501    0  0.00000000000E+00  0.00000000000E+00  0.36205040004E+02  0.36205040004E+02  0.00000000000E+00 0. -1.
         -2   -1    0    0    0  501 -0.00000000000E+00 -0.00000000000E+00 -0.57286803188E+03  0.57286803188E+03  0.00000000000E+00 0.  1.
         25    2    1    2    0    0 -0.77677824513E+02  0.19959786892E+02 -0.36031786348E+03  0.38975538597E+03  0.12509220853E+03 0.  0.
          5    1    3    3  502    0 -0.24505475904E+02 -0.12155827614E+02 -0.39059889470E+01  0.27946585550E+02  0.41800000000E+01 0. -1.
         -5    1    3    3    0  502 -0.53172348609E+02  0.32115614506E+02 -0.35641187454E+03  0.36180880042E+03  0.41800000000E+01 0. -1.
        -11    1    1    2    0    0  0.89181402165E+02 -0.30829926324E+02 -0.17985614193E+03  0.20310597884E+03  0.00000000000E+00 0.  1.
         11    1    1    2    0    0 -0.11503577652E+02  0.10870139432E+02  0.35110135424E+01  0.16211707071E+02  0.00000000000E+00 0. -1.
</event>
<event>
 7    1  0.2690635E-009  0.8847590E+02  0.7561462E-02  0.1306585E+00
         -1   -1    0    0    0  501 -0.00000000000E+00  0.00000000000E+00  0.19186639437E+03  0.19186639437E+03  0.00000000000E+00 0.  1.
          1   -1    0    0  501    0  0.00000000000E+00 -0.00000000000E+00 -0.73983420787E+02  0.73983420787E+02  0.00000000000E+00 0. -1.
         25    2    1    2    0    0  0.23241867295E+02 -0.23055593482E+02  0.10771526498E+03  0.16829085147E+03  0.12508991803E+03 0.  0.
          5    1    3    3  502    0 -0.26450023270E+02  0.13797645795E+02  0.10161264767E+03  0.10598387296E+03  0.41800000000E+01 0. -1.
         -5    1    3    3    0  502  0.49691890564E+02 -0.36853239277E+02  0.61026173080E+01  0.62306978510E+02  0.41800000000E+01 0. -1.
        -11    1    1    2    0    0  0.90812411842E+00  0.49211892534E+02  0.29159852287E+02  0.57209545021E+02  0.00000000000E+00 0.  1.
         11    1    1    2    0    0 -0.24149991413E+02 -0.26156299051E+02 -0.18992143681E+02  0.40349418669E+02  0.00000000000E+00 0. -1.
</event>
<event>
 7    1  0.2690635E-009  0.8958632E+02  0.7561462E-02  0.1303857E+00
          1   -1    0    0  501    0  0.00000000000E+00  0.00000000000E+00  0.42299611439E+03  0.42299611439E+03  0.00000000000E+00 0. -1.
         -1   -1    0    0    0  501 -0.00000000000E+00 -0.00000000000E+00 -0.30186471062E+02  0.30186471062E+02  0.00000000000E+00 0.  1.
         25    2    1    2    0    0  0.25429624658E+01  0.29618568208E+02  0.19029599425E+03  0.22966020505E+03  0.12509004003E+03 0.  0.
          5    1    3    3  502    0  0.42829043972E+01 -0.38200971482E+02  0.13962678691E+03  0.14488191576E+03  0.41800000000E+01 0. -1.
         -5    1    3    3    0  502 -0.17399419313E+01  0.67819539690E+02  0.50669207339E+02  0.84778289285E+02  0.41800000000E+01 0. -1.
        -11    1    1    2    0    0  0.27695127532E+02  0.32360973072E+01  0.15811228278E+03  0.16055212980E+03  0.00000000000E+00 0. -1.
         11    1    1    2    0    0 -0.30238089997E+02 -0.32854665515E+02  0.44401366292E+02  0.62970250606E+02  0.00000000000E+00 0.  1.
</event>
<event>
 7    1  0.2690635E-009  0.1037936E+03  0.7561462E-02  0.1272515E+00
         -2   -1    0    0    0  501 -0.00000000000E+00  0.00000000000E+00  0.20645533669E+02  0.20645533669E+02  0.00000000000E+00 0.  1.
          2   -1    0    0  501    0  0.00000000000E+00 -0.00000000000E+00 -0.67607493591E+03  0.67607493591E+03  0.00000000000E+00 0. -1.
         25    2    1    2    0    0  0.28722152693E+02 -0.19246442542E+02 -0.46430053765E+03  0.48209768400E+03  0.12509116696E+03 0.  0.
          5    1    3    3  502    0  0.77331266041E+02 -0.58001088101E+00 -0.26804535674E+03  0.27900940269E+03  0.41800000000E+01 0. -1.
         -5    1    3    3    0  502 -0.48609113348E+02 -0.18666431661E+02 -0.19625518091E+03  0.20308828131E+03  0.41800000000E+01 0. -1.
        -11    1    1    2    0    0 -0.88054462088E+01  0.44713922243E+02 -0.16999480207E+03  0.17599745299E+03  0.00000000000E+00 0. -1.
         11    1    1    2    0    0 -0.19916706484E+02 -0.25467479702E+02 -0.21134062518E+02  0.38625332595E+02  0.00000000000E+00 0.  1.
</event>
<event>
 7    1  0.2690635E-009  0.8660547E+02  0.7561462E-02  0.1311287E+00
         -2   -1    0    0    0  501 -0.00000000000E+00  0.00000000000E+00  0.18828431223E+02  0.18828431223E+02  0.00000000000E+00 0.  1.
          2   -1    0    0  501    0  0.00000000000E+00 -0.00000000000E+00 -0.70765358218E+03  0.70765358218E+03  0.00000000000E+00 0. -1.
         25    2    1    2    0    0 -0.13063043438E+02  0.36794872862E+02 -0.35602795102E+03  0.37938133364E+03  0.12509911524E+03 0.  0.
          5    1    3    3  502    0  0.26931379091E+01  0.60660484441E+02 -0.73722638834E+02  0.95600456281E+02  0.41800000000E+01 0. -1.
         -5    1    3    3    0  502 -0.15756181347E+02 -0.23865611579E+02 -0.28230531219E+03  0.28378087736E+03  0.41800000000E+01 0. -1.
        -11    1    1    2    0    0  0.24785764754E+02 -0.55833200644E+02 -0.30675135533E+03  0.31277479825E+03  0.00000000000E+00 0. -1.
         11    1    1    2    0    0 -0.11722721316E+02  0.19038327782E+02 -0.26045844611E+02  0.34325881507E+02  0.00000000000E+00 0.  1.
</event>
<event>
 7    1  0.2690635E-009  0.1380830E+03  0.7561462E-02  0.1215932E+00
         -3   -1    0    0    0  501 -0.00000000000E+00  0.00000000000E+00  0.18115930972E+03  0.18115930972E+03  0.00000000000E+00 0.  1.
          3   -1    0    0  501    0  0.00000000000E+00 -0.00000000000E+00 -0.16374546054E+03  0.16374546054E+03  0.00000000000E+00 0. -1.
         25    2    1    2    0    0 -0.11718183607E+03 -0.39637099100E+01  0.73010649424E+02  0.18633893702E+03  0.12507737933E+03 0.  0.
          5    1    3    3  502    0 -0.12590409931E+03 -0.27597049993E+02  0.24142735770E+02  0.13120130899E+03  0.41800000000E+01 0.  1.
         -5    1    3    3    0  502  0.87222632389E+01  0.23633340083E+02  0.48867913654E+02  0.55137628026E+02  0.41800000000E+01 0.  1.
        -11    1    1    2    0    0  0.84077690445E+02  0.17542700919E+02  0.73059613751E+01  0.86198500321E+02  0.00000000000E+00 0.  1.
         11    1    1    2    0    0  0.33104145622E+02 -0.13578991009E+02 -0.62902761624E+02  0.72367332921E+02  0.00000000000E+00 0. -1.
</event>
<event>
 7    1  0.2690635E-009  0.1303609E+03  0.7561462E-02  0.1226921E+00
          2   -1    0    0  501    0  0.00000000000E+00  0.00000000000E+00  0.10285069478E+04  0.10285069478E+04  0.00000000000E+00 0. -1.
         -2   -1    0    0    0  501 -0.00000000000E+00 -0.00000000000E+00 -0.31345064636E+02  0.31345064636E+02  0.00000000000E+00 0.  1.
         25    2    1    2    0    0  0.90907925023E+02 -0.71432681655E+02  0.77583714286E+03  0.79431599379E+03  0.12509095453E+03 0.  0.
          5    1    3    3  502    0 -0.77628133708E+01 -0.39492829578E+02  0.46181269067E+03  0.46358211627E+03  0.41800000000E+01 0. -1.
         -5    1    3    3    0  502  0.98670738394E+02 -0.31939852077E+02  0.31402445219E+03  0.33073387752E+03  0.41800000000E+01 0. -1.
        -11    1    1    2    0    0 -0.41240770270E+02  0.41315323845E+02  0.30090289255E+02  0.65674824890E+02  0.00000000000E+00 0.  1.
         11    1    1    2    0    0 -0.49667154753E+02  0.30117357810E+02  0.19123445108E+03  0.19986119379E+03  0.00000000000E+00 0. -1.
</event>
<event>
 7    1  0.3354050E-009  0.1517531E+03  0.7561462E-02  0.1198335E+00
          1   -1    0    0  501    0  0.00000000000E+00  0.00000000000E+00  0.59871655998E+03  0.59871655998E+03  0.00000000000E+00 0. -1.
         -1   -1    0    0    0  501 -0.00000000000E+00 -0.00000000000E+00 -0.44195527727E+02  0.44195527727E+02  0.00000000000E+00 0.  1.
         25    2    1    2    0    0 -0.12470270882E+02 -0.11880215593E+03  0.32989949258E+03  0.37249368859E+03  0.12509361664E+03 0.  0.
          5    1    3    3  502    0  0.55981107227E+02 -0.57477037446E+02  0.13807958926E+03  0.15975274511E+03  0.41800000000E+01 0.  1.
         -5    1    3    3    0  502 -0.68451378109E+02 -0.61325118485E+02  0.19181990332E+03  0.21274094348E+03  0.41800000000E+01 0.  1.
        -11    1    1    2    0    0 -0.12072174528E+02  0.98712721608E+02  0.21562121933E+03  0.23744988740E+03  0.00000000000E+00 0. -1.
         11    1    1    2    0    0  0.24542445410E+02  0.20089434323E+02  0.90003203429E+01  0.32968511710E+02  0.00000000000E+00 0.  1.
</event>
<event>
 7    1  0.2690635E-009  0.1366095E+03  0.7561462E-02  0.1217965E+00
         -4   -1    0    0    0  501 -0.00000000000E+00  0.00000000000E+00  0.16205173709E+02  0.16205173709E+02  0.00000000000E+00 0.  1.
          4   -1    0    0  501    0  0.00000000000E+00 -0.00000000000E+00 -0.15052883533E+04  0.15052883533E+04  0.00000000000E+00 0. -1.
         25    2    1    2    0    0  0.22521989620E+02  0.96086229018E+02 -0.10302276128E+04  0.10424752844E+04  0.12508389559E+03 0.  0.
          5    1    3    3  502    0 -0.22944527566E+02 -0.21146103306E+02 -0.14707717366E+03  0.15040869803E+03  0.41800000000E+01 0. -1.
         -5    1    3    3    0  502  0.45466517186E+02  0.11723233232E+03 -0.88315043912E+03  0.89206658632E+03  0.41800000000E+01 0. -1.
        -11    1    1    2    0    0 -0.24370518701E+01 -0.95810003957E+02 -0.44349144691E+03  0.45372916983E+03  0.00000000000E+00 0. -1.
         11    1    1    2    0    0 -0.20084937750E+02 -0.27622506127E+00 -0.15364119960E+02  0.25289072874E+02  0.00000000000E+00 0.  1.
</event>
<event>
 7    1  0.2690635E-009  0.1479929E+03  0.7561462E-02  0.1202961E+00
          1   -1    0    0  501    0  0.00000000000E+00  0.00000000000E+00  0.84817394841E+02  0.84817394841E+02  0.00000000000E+00 0. -1.
         -1   -1    0    0    0  501 -0.00000000000E+00 -0.00000000000E+00 -0.42185719756E+03  0.42185719756E+03  0.00000000000E+00 0.  1.
         25    2    1    2    0    0 -0.41026029154E+02 -0.13644564885E+03 -0.25442148943E+03  0.31729891770E+03  0.12509100180E+03 0.  0.
          5    1    3    3  502    0 -0.41697628140E+01 -0.34408200531E+02 -0.18537344882E+03  0.18863217942E+03  0.41800000000E+01 0. -1.
         -5    1    3    3    0  502 -0.36856266340E+02 -0.10203744832E+03 -0.69048040618E+02  0.12866673828E+03  0.41800000000E+01 0. -1.
        -11    1    1    2    0    0 -0.59337705096E+00  0.90535271396E+02 -0.58610551605E+01  0.90726729417E+02  0.00000000000E+00 0. -1.
         11    1    1    2    0    0  0.41619406205E+02  0.45910377452E+02 -0.76757258125E+02  0.98648945283E+02  0.00000000000E+00 0.  1.
</event>
<event>
 7    1  0.2690635E-009  0.1274394E+03  0.7561462E-02  0.1231305E+00
          1   -1    0    0  501    0  0.00000000000E+00  0.00000000000E+00  0.40207983340E+03  0.40207983340E+03  0.00000000000E+00 0. -1.
         -1   -1    0    0    0  501 -0.00000000000E+00 -0.00000000000E+00 -0.45095764655E+02  0.45095764655E+02  0.00000000000E+00 0.  1.
         25    2    1    2    0    0  0.52224895487E+01 -0.72993853506E+02  0.14729992680E+03  0.20663820781E+03  0.12508678366E+03 0.  0.
          5    1    3    3  502    0  0.62367806485E+02 -0.41744438493E+02  0.53065293065E+02  0.92009451465E+02  0.41800000000E+01 0. -1.
         -5    1    3    3    0  502 -0.57145316936E+02 -0.31249415013E+02  0.94234633736E+02  0.11462875635E+03  0.41800000000E+01 0. -1.
        -11    1    1    2    0    0 -0.43964908229E+02  0.58285425970E+02  0.15978630052E+03  0.17567517147E+03  0.00000000000E+00 0.  1.
         11    1    1    2    0    0  0.38742418680E+02  0.14708427535E+02  0.49897841428E+02  0.64862218779E+02  0.00000000000E+00 0. -1.
</event>
<event>
 7    1  0.2690635E-009  0.1127165E+03  0.7561462E-02  0.1255621E+00
         -2   -1    0    0    0  501 -0.00000000000E+00  0.00000000000E+00  0.60966152330E+02  0.60966152330E+02  0.00000000000E+00 0. -1.
          2   -1    0    0  501    0  0.00000000000E+00 -0.00000000000E+00 -0.37317624884E+03  0.37317624884E+03  0.00000000000E+00 0.  1.
         25    2    1    2    0    0 -0.52423021358E+02  0.39309065500E+02 -0.28499011713E+03  0.31805642791E+03  0.12508856332E+03 0.  0.
          5    1    3    3  502    0 -0.33191618870E+02 -0.43583616736E+02 -0.93098506677E+02  0.10810189432E+03  0.41800000000E+01 0.  1.
         -5    1    3    3    0  502 -0.19231402487E+02  0.82892682235E+02 -0.19189161045E+03  0.20995453358E+03  0.41800000000E+01 0.  1.
        -11    1    1    2    0    0  0.17287139175E+02 -0.46341294047E+02 -0.52579771732E+02  0.72187208771E+02  0.00000000000E+00 0.  1.
         11    1    1    2    0    0  0.35135882183E+02  0.70322285471E+01  0.25359792357E+02  0.43898764487E+02  0.00000000000E+00 0. -1.
</event>
<event>
 7    1  0.2690635E-009  0.9816630E+02  0.7561462E-02  0.1284200E+00
         -2   -1    0    0    0  501 -0.00000000000E+00  0.00000000000E+00  0.11147935816E+03  0.11147935816E+03  0.00000000000E+00 0.  1.
          2   -1    0    0  501    0  0.00000000000E+00 -0.00000000000E+00 -0.17651490346E+03  0.17651490346E+03  0.00000000000E+00 0. -1.
         25    2    1    2    0    0  0.63388674712E+02 -0.80807124666E+01  0.19394939028E+02  0.14179977221E+03  0.12509032634E+03 0.  0.
          5    1    3    3  502    0  0.68008566781E+02 -0.40376332240E+02  0.52588260993E+02  0.95070557772E+02  0.41800000000E+01 0. -1.
         -5    1    3    3    0  502 -0.46198920690E+01  0.32295619774E+02 -0.33193321966E+02  0.46729214443E+02  0.41800000000E+01 0. -1.
        -11    1    1    2    0    0 -0.26950755351E+02  0.31090054259E+02  0.10045582038E+02  0.42353847597E+02  0.00000000000E+00 0.  1.
         11    1    1    2    0    0 -0.36437919361E+02 -0.23009341793E+02 -0.94476066360E+02  0.10384064181E+03  0.00000000000E+00 0. -1.
</event>
<event>
 7    1  0.2690635E-009  0.1169294E+03  0.7561462E-02  0.1248250E+00
         -2   -1    0    0    0  501 -0.00000000000E+00  0.00000000000E+00  0.29720812268E+02  0.29720812268E+02  0.00000000000E+00 0.  1.
          2   -1    0    0  501    0  0.00000000000E+00 -0.00000000000E+00 -0.84287651324E+03  0.84287651324E+03  0.00000000000E+00 0. -1.
         25    2    1    2    0    0  0.59952144426E+02  0.56696827284E+02 -0.65797620648E+03  0.67482549726E+03  0.12509186071E+03 0.  0.
          5    1    3    3  502    0  0.51219019158E+02  0.92805762492E+02 -0.38676335975E+03  0.40104820947E+03  0.41800000000E+01 0.  1.
         -5    1    3    3    0  502  0.87331252687E+01 -0.36108935208E+02 -0.27121284673E+03  0.27377728779E+03  0.41800000000E+01 0.  1.
        -11    1    1    2    0    0 -0.20629656738E+02 -0.44777625983E+02 -0.14758924753E+02  0.51463039024E+02  0.00000000000E+00 0.  1.
         11    1    1    2    0    0 -0.39322487688E+02 -0.11919201301E+02 -0.14042056974E+03  0.14630878922E+03  0.00000000000E+00 0. -1.
</event>
<event>
 7    1  0.2690635E-009  0.7353376E+02  0.7561462E-02  0.1348473E+00
         -1   -1    0    0    0  501 -0.00000000000E+00  0.00000000000E+00  0.20014138071E+03  0.20014138071E+03  0.00000000000E+00 0.  1.
          1   -1    0    0  501    0  0.00000000000E+00 -0.00000000000E+00 -0.97454633919E+02  0.97454633919E+02  0.00000000000E+00 0. -1.
         25    2    1    2    0    0  0.29998474339E+02 -0.38834398861E+02 -0.16508535067E+02  0.13538218507E+03  0.12509110802E+03 0.  0.
          5    1    3    3  502    0  0.12258013681E+02 -0.15599702832E+02 -0.70763724767E+02  0.73611050602E+02  0.41800000000E+01 0.  1.
         -5    1    3    3    0  502  0.17740460659E+02 -0.23234696029E+02  0.54255189699E+02  0.61771134466E+02  0.41800000000E+01 0.  1.
        -11    1    1    2    0    0  0.28848249457E+02  0.21296087003E+02  0.84246988251E+02  0.91560361771E+02  0.00000000000E+00 0.  1.
         11    1    1    2    0    0 -0.58846723796E+02  0.17538311858E+02  0.34948293604E+02  0.70653467786E+02  0.00000000000E+00 0. -1.
</event>
<event>
 7    1  0.2690635E-009  0.1254425E+03  0.7561462E-02  0.1234379E+00
          1   -1    0    0  501    0  0.00000000000E+00  0.00000000000E+00  0.23845147635E+02  0.23845147635E+02  0.00000000000E+00 0. -1.
         -1   -1    0    0    0  501 -0.00000000000E+00 -0.00000000000E+00 -0.73655416338E+03  0.73655416338E+03  0.00000000000E+00 0.  1.
         25    2    1    2    0    0  0.46983443255E+01 -0.72556401688E+02 -0.46713221337E+03  0.48902650267E+03  0.12509160516E+03 0.  0.
          5    1    3    3  502    0  0.41850914046E+02  0.18568698438E+02 -0.16132528977E+03  0.16774867239E+03  0.41800000000E+01 0. -1.
         -5    1    3    3    0  502 -0.37152569721E+02 -0.91125100126E+02 -0.30580692360E+03  0.32127783029E+03  0.41800000000E+01 0. -1.
        -11    1    1    2    0    0  0.32678302733E+02  0.11155014695E+02 -0.13605509601E+03  0.14036842584E+03  0.00000000000E+00 0. -1.
         11    1    1    2    0    0 -0.37376647059E+02  0.61401386993E+02 -0.10952170636E+03  0.13100438250E+03  0.00000000000E+00 0.  1.
</event>
<event>
 7    1  0.2690635E-009  0.1227743E+03  0.7561462E-02  0.1238589E+00
         -2   -1    0    0    0  501 -0.00000000000E+00  0.00000000000E+00  0.30001105606E+02  0.30001105606E+02  0.00000000000E+00 0.  1.
          2   -1    0    0  501    0  0.00000000000E+00 -0.00000000000E+00 -0.54617726048E+03  0.54617726048E+03  0.00000000000E+00 0. -1.
         25    2    1    2    0    0  0.63725123839E+02 -0.16424439914E+02 -0.24511842469E+03  0.28295046839E+03  0.12508905551E+03 0.  0.
          5    1    3    3  502    0 -0.31095003759E+02 -0.23274107931E+02 -0.11706332132E+03  0.12340938764E+03  0.41800000000E+01 0. -1.
         -5    1    3    3    0  502  0.94820127598E+02  0.68496680177E+01 -0.12805510336E+03  0.15954108075E+03  0.41800000000E+01 0. -1.
        -11    1    1    2    0    0 -0.46642338188E+02 -0.34238038401E+02 -0.15500287343E+03  0.16544981643E+03  0.00000000000E+00 0. -1.
         11    1    1    2    0    0 -0.17082785651E+02  0.50662478315E+02 -0.11605485675E+03  0.12777808126E+03  0.00000000000E+00 0.  1.
</event>
<event>
 7    1  0.2690635E-009  0.9270508E+02  0.7561462E-02  0.1296430E+00
         -2   -1    0    0    0  501 -0.00000000000E+00  0.00000000000E+00  0.14670488455E+03  0.14670488455E+03  0.00000000000E+00 0.  1.
          2   -1    0    0  501    0  0.00000000000E+00 -0.00000000000E+00 -0.81521596276E+02  0.81521596276E+02  0.00000000000E+00 0. -1.
         25    2    1    2    0    0 -0.74602135448E+01 -0.59801605147E+01  0.42655706892E+02  0.13250864864E+03  0.12509042941E+03 0.  0.
          5    1    3    3  502    0  0.44367240069E+02 -0.94436807618E+01 -0.21069054481E+02  0.50189765435E+02  0.41800000000E+01 0. -1.
         -5    1    3    3    0  502 -0.51827453614E+02  0.34635202471E+01  0.63724761374E+02  0.82318883209E+02  0.41800000000E+01 0. -1.
        -11    1    1    2    0    0 -0.39854516064E+02 -0.12923169756E+01 -0.54892080873E+01  0.40251508534E+02  0.00000000000E+00 0. -1.
         11    1    1    2    0    0  0.47314729608E+02  0.72724774903E+01  0.28016789468E+02  0.55466323647E+02  0.00000000000E+00 0.  1.
</event>
<event>
 7    1  0.2690635E-009  0.1637910E+03  0.7561462E-02  0.1184482E+00
          1   -1    0    0  501    0  0.00000000000E+00  0.00000000000E+00  0.78361642899E+02  0.78361642899E+02  0.00000000000E+00 0. -1.
         -1   -1    0    0    0  501 -0.00000000000E+00 -0.00000000000E+00 -0.47276456620E+03  0.47276456620E+03  0.00000000000E+00 0.  1.
         25    2    1    2    0    0 -0.46054751601E+02  0.14457062062E+03 -0.27401954005E+03  0.33727826565E+03  0.12509282818E+03 0.  0.
          5    1    3    3  502    0 -0.26197047042E+01  0.68304487283E+02 -0.22805444439E+03  0.23811482071E+03  0.41800000000E+01 0. -1.
         -5    1    3    3    0  502 -0.43435046897E+02  0.76266133336E+02 -0.45965095651E+02  0.99163444934E+02  0.41800000000E+01 0. -1.
        -11    1    1    2    0    0 -0.71534114896E+01  0.73544423696E+01 -0.24306417074E+02  0.26382968550E+02  0.00000000000E+00 0.  1.
         11    1    1    2    0    0  0.53208163091E+02 -0.15192506299E+03 -0.96076966181E+02  0.18746497490E+03  0.00000000000E+00 0. -1.
</event>
<event>
 7    1  0.2690635E-009  0.6695314E+02  0.7561462E-02  0.1370772E+00
          1   -1    0    0  501    0  0.00000000000E+00  0.00000000000E+00  0.47277896240E+02  0.47277896240E+02  0.00000000000E+00 0. -1.
         -1   -1    0    0    0  501 -0.00000000000E+00 -0.00000000000E+00 -0.28681479061E+03  0.28681479061E+03  0.00000000000E+00 0.  1.
         25    2    1    2    0    0  0.75245461869E+01 -0.24837460420E+02 -0.85473788088E+02  0.15370869684E+03  0.12508827602E+03 0.  0.
          5    1    3    3  502    0 -0.73398331951E+01 -0.42129862812E+02 -0.11111945998E+03  0.11913775757E+03  0.41800000000E+01 0.  1.
         -5    1    3    3    0  502  0.14864379382E+02  0.17292402392E+02  0.25645671897E+02  0.34570939269E+02  0.41800000000E+01 0.  1.
        -11    1    1    2    0    0 -0.29504355933E+02  0.33038586494E+02 -0.15021600066E+03  0.15661067036E+03  0.00000000000E+00 0.  1.
         11    1    1    2    0    0  0.21979809746E+02 -0.82011260739E+01 -0.38471056190E+01  0.23773319646E+02  0.00000000000E+00 0. -1.
</event>
<event>
 7    1  0.4166064E-009  0.9589452E+02  0.7561462E-02  0.1289174E+00
         -1   -1    0    0    0  501 -0.00000000000E+00  0.00000000000E+00  0.34925833801E+02  0.34925833801E+02  0.00000000000E+00 0.  1.
          1   -1    0    0  501    0  0.00000000000E+00 -0.00000000000E+00 -0.42124332468E+03  0.42124332468E+03  0.00000000000E+00 0. -1.
         25    2    1    2    0    0  0.72338624398E+01 -0.53011840923E+02 -0.23908010597E+03  0.27508058983E+03  0.12508976691E+03 0.  0.
          5    1    3    3  502    0 -0.36307835609E+02  0.21224412529E+02 -0.12609327526E+03  0.13298767266E+03  0.41800000000E+01 0. -1.
         -5    1    3    3    0  502  0.43541698048E+02 -0.74236253452E+02 -0.11298683071E+03  0.14209291717E+03  0.41800000000E+01 0. -1.
        -11    1    1    2    0    0 -0.20163131933E+02  0.22443862883E+02 -0.14468882375E+03  0.14780099657E+03  0.00000000000E+00 0. -1.
         11    1    1    2    0    0  0.12929269493E+02  0.30567978039E+02 -0.25485611623E+01  0.33287572081E+02  0.00000000000E+00 0.  1.
</event>
<event>
 7    1  0.2690635E-009  0.1487691E+03  0.7561462E-02  0.1201994E+00
         -1   -1    0    0    0  501 -0.00000000000E+00  0.00000000000E+00  0.14501292366E+03  0.14501292366E+03  0.00000000000E+00 0.  1.
          1   -1    0    0  501    0  0.00000000000E+00 -0.00000000000E+00 -0.45251561735E+03  0.45251561735E+03  0.00000000000E+00 0. -1.
         25    2    1    2    0    0  0.76016432299E+01  0.13529308661E+03 -0.37777235231E+03  0.42038239613E+03  0.12508958604E+03 0.  0.
          5    1    3    3  502    0  0.22961899483E+02  0.11516620928E+02 -0.40060123432E+01  0.26332525902E+02  0.41800000000E+01 0. -1.
         -5    1    3    3    0  502 -0.15360256253E+02  0.12377646568E+03 -0.37376633997E+03  0.39404987022E+03  0.41800000000E+01 0. -1.
        -11    1    1    2    0    0  0.16033802358E+02 -0.11330686679E+03  0.84112577966E+02  0.14202272583E+03  0.00000000000E+00 0.  1.
         11    1    1    2    0    0 -0.23635445588E+02 -0.21986219822E+02 -0.13842919343E+02  0.35123419056E+02  0.00000000000E+00 0. -1.
</event>
<event>
 7    1  0.2690635E-009  0.1131890E+03  0.7561462E-02  0.1254776E+00
          2   -1    0    0  501    0  0.00000000000E+00  0.00000000000E+00  0.37880517745E+02  0.37880517745E+02  0.00000000000E+00 0. -1.
         -2   -1    0    0    0  501 -0.00000000000E+00 -0.00000000000E+00 -0.47999538694E+03  0.47999538694E+03  0.00000000000E+00 0.  1.
         25    2    1    2    0    0 -0.63632190447E+02 -0.39751039800E+02 -0.19332514746E+03  0.24217881937E+03  0.12508703804E+03 0.  0.
          5    1    3    3  502    0 -0.63912218492E+02 -0.75792640792E+02 -0.17582674389E+03  0.20189554809E+03  0.41800000000E+01 0.  1.
         -5    1    3    3    0  502  0.28002804437E+00  0.36041600992E+02 -0.17498403571E+02  0.40283271284E+02  0.41800000000E+01 0.  1.
        -11    1    1    2    0    0  0.57803660842E+02  0.77328954452E+01 -0.23172347829E+03  0.23894943245E+03  0.00000000000E+00 0.  1.
         11    1    1    2    0    0  0.58285296050E+01  0.32018144355E+02 -0.17066243439E+02  0.36747652856E+02  0.00000000000E+00 0. -1.
</event>
<event>
 7    1  0.2690635E-009  0.1656176E+03  0.7561462E-02  0.1182497E+00
         -1   -1    0    0    0  501 -0.00000000000E+00  0.00000000000E+00  0.70307915502E+03  0.70307915502E+03  0.00000000000E+00 0.  1.
          1   -1    0    0  501    0  0.00000000000E+00 -0.00000000000E+00 -0.46050958567E+02  0.46050958567E+02  0.00000000000E+00 0. -1.
         25    2    1    2    0    0 -0.97183506567E+02 -0.98905929659E+02  0.42108679574E+03  0.46063939447E+03  0.12509014881E+03 0.  0.
          5    1    3    3  502    0  0.17376500717E+02 -0.24264130811E+02  0.18780743541E+03  0.19020987361E+03  0.41800000000E+01 0.  1.
         -5    1    3    3    0  502 -0.11456000728E+03 -0.74641798848E+02  0.23327936032E+03  0.27042952087E+03  0.41800000000E+01 0.  1.
        -11    1    1    2    0    0  0.51500318403E+02 -0.40591180721E+01  0.94246753001E+02  0.10747655412E+03  0.00000000000E+00 0.  1.
         11    1    1    2    0    0  0.45683188164E+02  0.10296504773E+03  0.14169464772E+03  0.18101416499E+03  0.00000000000E+00 0. -1.
</event>
<event>
 7    1  0.2690635E-009  0.2279095E+03  0.7561462E-02  0.1128120E+00
         -2   -1    0    0    0  501 -0.00000000000E+00  0.00000000000E+00  0.18572208177E+03  0.18572208177E+03  0.00000000000E+00 0.  1.
          2   -1    0    0  501    0  0.00000000000E+00 -0.00000000000E+00 -0.28958399319E+03  0.28958399319E+03  0.00000000000E+00 0. -1.
         25    2    1    2    0    0 -0.11753726501E+03  0.16685351109E+03 -0.49037433256E+02  0.24435105080E+03  0.12509062050E+03 0.  0.
          5    1    3    3  502    0 -0.75091809429E+02  0.18975940821E+02  0.12562613472E+02  0.78575809449E+02  0.41800000000E+01 0. -1.
         -5    1    3    3    0  502 -0.42445455578E+02  0.14787757027E+03 -0.61600046728E+02  0.16577524135E+03  0.41800000000E+01 0. -1.
        -11    1    1    2    0    0  0.56500953134E+02 -0.11807973132E+02 -0.13438084393E+02  0.59265234722E+02  0.00000000000E+00 0.  1.
         11    1    1    2    0    0  0.61036311873E+02 -0.15504553795E+03 -0.41386393773E+02  0.17168978944E+03  0.00000000000E+00 0. -1.
</event>
<event>
 7    1  0.2690635E-009  0.1194459E+03  0.7561462E-02  0.1244014E+00
         -2   -1    0    0    0  501 -0.00000000000E+00  0.00000000000E+00  0.16472149701E+03  0.16472149701E+03  0.00000000000E+00 0.  1.
          2   -1    0    0  501    0  0.00000000000E+00 -0.00000000000E+00 -0.16715506037E+03  0.16715506037E+03  0.00000000000E+00 0. -1.
         25    2    1    2    0    0  0.11533695724E+02  0.75711480914E+02  0.10230503677E+03  0.17882518938E+03  0.12508746272E+03 0.  0.
          5    1    3    3  502    0 -0.62217890263E+01  0.10027809713E+03  0.10814718654E+03  0.14767428273E+03  0.41800000000E+01 0. -1.
         -5    1    3    3    0  502  0.17755484750E+02 -0.24566616217E+02 -0.58421497746E+01  0.31150906649E+02  0.41800000000E+01 0. -1.
        -11    1    1    2    0    0 -0.44066294173E+02 -0.41659199631E+02 -0.38690627322E+02  0.71932550620E+02  0.00000000000E+00 0.  1.
         11    1    1    2    0    0  0.32532598448E+02 -0.34052281283E+02 -0.66047972799E+02  0.81118817380E+02  0.00000000000E+00 0. -1.
</event>
<event>
 7    1  0.2690635E-009  0.8005334E+02  0.7561462E-02  0.1328900E+00
          1   -1    0    0  501    0  0.00000000000E+00  0.00000000000E+00  0.33813971453E+03  0.33813971453E+03  0.00000000000E+00 0. -1.
         -1   -1    0    0    0  501 -0.00000000000E+00 -0.00000000000E+00 -0.28456444590E+03  0.28456444590E+03  0.00000000000E+00 0.  1.
         25    2    1    2    0    0 -0.28700453664E+02  0.30345869864E+02  0.31634886324E+03  0.34273537871E+03  0.12508536559E+03 0.  0.
          5    1    3    3  502    0  0.15206694160E+02 -0.21008554372E+01 -0.50604445323E+01  0.16695437691E+02  0.41800000000E+01 0.  1.
         -5    1    3    3    0  502 -0.43907147823E+02  0.32446725302E+02  0.32140930778E+03  0.32603994102E+03  0.41800000000E+01 0.  1.
        -11    1    1    2    0    0  0.49020236002E+02 -0.43248685038E+02 -0.13557169591E+03  0.15050952471E+03  0.00000000000E+00 0. -1.
         11    1    1    2    0    0 -0.20319782338E+02  0.12902815174E+02 -0.12720189870E+03  0.12945925701E+03  0.00000000000E+00 0.  1.
</event>
<event>
 7    1  0.2690635E-009  0.1190075E+03  0.7561462E-02  0.1244743E+00
          4   -1    0    0  501    0  0.00000000000E+00  0.00000000000E+00  0.24818062617E+02  0.24818062617E+02  0.00000000000E+00 0. -1.
         -4   -1    0    0    0  501 -0.00000000000E+00 -0.00000000000E+00 -0.85275841825E+03  0.85275841825E+03  0.00000000000E+00 0.  1.
         25    2    1    2    0    0  0.43395851296E+02  0.47040367453E+02 -0.68242332628E+03  0.69673980585E+03  0.12509502273E+03 0.  0.
          5    1    3    3  502    0 -0.37349141048E+02  0.57539394517E+00 -0.33198779605E+03  0.33410875256E+03  0.41800000000E+01 0. -1.
         -5    1    3    3    0  502  0.80744992345E+02  0.46464973508E+02 -0.35043553024E+03  0.36263105328E+03  0.41800000000E+01 0. -1.
        -11    1    1    2    0    0 -0.11824279168E+02  0.25474634639E+02 -0.42955447627E+02  0.51321935551E+02  0.00000000000E+00 0.  1.
         11    1    1    2    0    0 -0.31571572128E+02 -0.72515002092E+02 -0.10256158173E+03  0.12951473947E+03  0.00000000000E+00 0. -1.
</event>
<event>
 7    1  0.2690635E-009  0.1315103E+03  0.7561462E-02  0.1225232E+00
          3   -1    0    0  501    0  0.00000000000E+00  0.00000000000E+00  0.76102066306E+03  0.76102066306E+03  0.00000000000E+00 0. -1.
         -3   -1    0    0    0  501 -0.00000000000E+00 -0.00000000000E+00 -0.29101632324E+02  0.29101632324E+02  0.00000000000E+00 0.  1.
         25    2    1    2    0    0 -0.16102719458E+02  0.97629429903E+02  0.33281802003E+03  0.36906077357E+03  0.12508883634E+03 0.  0.
          5    1    3    3  502    0 -0.54273999585E+02  0.49187232907E+02  0.78952451892E+02  0.10777760886E+03  0.41800000000E+01 0. -1.
         -5    1    3    3    0  502  0.38171280127E+02  0.48442196996E+02  0.25386556813E+03  0.26128316471E+03  0.41800000000E+01 0. -1.
        -11    1    1    2    0    0 -0.78181834348E+01 -0.10302184348E+03  0.25928813210E+03  0.27911459954E+03  0.00000000000E+00 0.  1.
         11    1    1    2    0    0  0.23920902893E+02  0.53924135736E+01  0.13981287861E+03  0.14194692227E+03  0.00000000000E+00 0. -1.
</event>
<event>
 7    1  0.2690635E-009  0.1189368E+03  0.7561462E-02  0.1244861E+00
         -1   -1    0    0    0  501 -0.00000000000E+00  0.00000000000E+00  0.22209339176E+03  0.22209339176E+03  0.00000000000E+00 0.  1.
          1   -1    0    0  501    0  0.00000000000E+00 -0.00000000000E+00 -0.13781923602E+03  0.13781923602E+03  0.00000000000E+00 0. -1.
         25    2    1    2    0    0  0.10883218909E+01 -0.75186088768E+02 -0.72645282259E+02  0.16302808256E+03  0.12508671504E+03 0.  0.
          5    1    3    3  502    0  0.16400882999E+02 -0.10798034389E+03 -0.58267782103E+02  0.12386020532E+03  0.41800000000E+01 0. -1.
         -5    1    3    3    0  502 -0.15312561108E+02  0.32794255124E+02 -0.14377500156E+02  0.39167877241E+02  0.41800000000E+01 0. -1.
        -11    1    1    2    0    0  0.87974587005E+01  0.80457974232E+02  0.16451640026E+03  0.18334810294E+03  0.00000000000E+00 0.  1.
         11    1    1    2    0    0 -0.98857805913E+01 -0.52718854644E+01 -0.75969622606E+01  0.13536442289E+02  0.00000000000E+00 0. -1.
</event>
<event>
 7    1  0.2690635E-009  0.1496880E+03  0.7561462E-02  0.1200857E+00
          2   -1    0    0  501    0  0.00000000000E+00  0.00000000000E+00  0.10644139492E+04  0.10644139492E+04  0.00000000000E+00 0. -1.
         -2   -1    0    0    0  501 -0.00000000000E+00 -0.00000000000E+00 -0.36080544080E+02  0.36080544080E+02  0.00000000000E+00 0.  1.
         25    2    1    2    0    0 -0.11242520435E+03  0.58029969337E+02  0.82146136688E+03  0.84050609228E+03  0.12507921479E+03 0.  0.
          5    1    3    3  502    0 -0.61013008262E+02 -0.32055792484E+02  0.43029308156E+03  0.43579785388E+03  0.41800000000E+01 0.  1.
         -5    1    3    3    0  502 -0.51412196092E+02  0.90085761821E+02  0.39116828532E+03  0.40470823840E+03  0.41800000000E+01 0.  1.
        -11    1    1    2    0    0  0.85768041969E+02 -0.43980683489E+02  0.68186756334E+02  0.11806731674E+03  0.00000000000E+00 0.  1.
         11    1    1    2    0    0  0.26657162385E+02 -0.14049285848E+02  0.13868528193E+03  0.14192108428E+03  0.00000000000E+00 0. -1.
</event>
<event>
 7    1  0.2690635E-009  0.9833657E+02  0.7561462E-02  0.1283833E+00
          2   -1    0    0  501    0  0.00000000000E+00  0.00000000000E+00  0.29899023945E+03  0.29899023945E+03  0.00000000000E+00 0.  1.
         -2   -1    0    0    0  501 -0.00000000000E+00 -0.00000000000E+00 -0.43721565582E+02  0.43721565582E+02  0.00000000000E+00 0. -1.
         25    2    1    2    0    0 -0.33271731193E+02  0.55382275539E+01  0.12437991407E+03  0.17960987502E+03  0.12510661102E+03 0.  0.
          5    1    3    3  502    0 -0.79287268390E+02 -0.10182176529E+02  0.67926024082E+02  0.10498364061E+03  0.41800000000E+01 0. -1.
         -5    1    3    3    0  502  0.46015537197E+02  0.15720404083E+02  0.56453889985E+02  0.74626234412E+02  0.41800000000E+01 0. -1.
        -11    1    1    2    0    0  0.19662893670E+02  0.26507278173E+02  0.61198416915E+01  0.33566615051E+02  0.00000000000E+00 0. -1.
         11    1    1    2    0    0  0.13608837523E+02 -0.32045505727E+02  0.12476891811E+03  0.12953531497E+03  0.00000000000E+00 0.  1.
</event>
<event>
 7    1  0.2701860E-009  0.1837416E+03  0.7561462E-02  0.1164230E+00
          1   -1    0    0  501    0  0.00000000000E+00  0.00000000000E+00  0.18331985029E+03  0.18331985029E+03  0.00000000000E+00 0. -1.
         -1   -1    0    0    0  501 -0.00000000000E+00 -0.00000000000E+00 -0.19724326266E+03  0.19724326266E+03  0.00000000000E+00 0.  1.
         25    2    1    2    0    0  0.60331895824E+02  0.14262551890E+03 -0.24290139380E+02  0.20055464762E+03  0.12510067752E+03 0.  0.
          5    1    3    3  502    0 -0.38227231842E+02  0.26979201754E+02 -0.30641215840E+01  0.47075044585E+02  0.41800000000E+01 0. -1.
         -5    1    3    3    0  502  0.98559127666E+02  0.11564631714E+03 -0.21226017796E+02  0.15347960303E+03  0.41800000000E+01 0. -1.
        -11    1    1    2    0    0 -0.75025253169E+02 -0.11830143048E+03 -0.16309339529E+02  0.14103195249E+03  0.00000000000E+00 0.  1.
         11    1    1    2    0    0  0.14693357345E+02 -0.24324088414E+02  0.26676066540E+02  0.38976512841E+02  0.00000000000E+00 0. -1.
</event>
<event>
 7    1  0.2690635E-009  0.1860012E+03  0.7561462E-02  0.1162118E+00
         -1   -1    0    0    0  501 -0.00000000000E+00  0.00000000000E+00  0.25558831159E+03  0.25558831159E+03  0.00000000000E+00 0.  1.
          1   -1    0    0  501    0  0.00000000000E+00 -0.00000000000E+00 -0.16555475584E+03  0.16555475584E+03  0.00000000000E+00 0. -1.
         25    2    1    2    0    0 -0.15736162587E+03  0.54762097232E+02 -0.95942662236E+01  0.20856531852E+03  0.12508346635E+03 0.  0.
          5    1    3    3  502    0 -0.86366218649E+02  0.74027221800E+02  0.38976274193E+02  0.12031531757E+03  0.41800000000E+01 0. -1.
         -5    1    3    3    0  502 -0.70995407225E+02 -0.19265124568E+02 -0.48570540416E+02  0.88250000952E+02  0.41800000000E+01 0. -1.
        -11    1    1    2    0    0  0.77834859370E+02  0.14333215515E+02  0.62605549779E+02  0.10091165078E+03  0.00000000000E+00 0.  1.
         11    1    1    2    0    0  0.79526766503E+02 -0.69095312748E+02  0.37022272191E+02  0.11166609813E+03  0.00000000000E+00 0. -1.
</event>
<event>
 7    1  0.2690635E-009  0.1224978E+03  0.7561462E-02  0.1239033E+00
          2   -1    0    0  501    0  0.00000000000E+00  0.00000000000E+00  0.11715858156E+03  0.11715858156E+03  0.00000000000E+00 0.  1.
         -2   -1    0    0    0  501 -0.00000000000E+00 -0.00000000000E+00 -0.26107169341E+03  0.26107169341E+03  0.00000000000E+00 0. -1.
         25    2    1    2    0    0  0.10693481801E+03  0.41390358134E+02  0.81195932237E+01  0.16988970077E+03  0.12509342742E+03 0.  0.
          5    1    3    3  502    0  0.77638893426E+01  0.14563694346E+02 -0.49276255909E+02  0.52134450866E+02  0.41800000000E+01 0.  1.
         -5    1    3    3    0  502  0.99170928666E+02  0.26826663787E+02  0.57395849133E+02  0.11775524990E+03  0.41800000000E+01 0.  1.
        -11    1    1    2    0    0 -0.24445577026E+02 -0.34623778865E+02 -0.93695650837E+01  0.43407154351E+02  0.00000000000E+00 0.  1.
         11    1    1    2    0    0 -0.82489240982E+02 -0.67665792689E+01 -0.14266313999E+03  0.16493341986E+03  0.00000000000E+00 0. -1.
</event>
<event>
 7    1  0.2690635E-009  0.1232868E+03  0.7561462E-02  0.1237771E+00
         -1   -1    0    0    0  501 -0.00000000000E+00  0.00000000000E+00  0.29340158860E+03  0.29340158860E+03  0.00000000000E+00 0.  1.
          1   -1    0    0  501    0  0.00000000000E+00 -0.00000000000E+00 -0.73967752232E+02  0.73967752232E+02  0.00000000000E+00 0. -1.
         25    2    1    2    0    0  0.87094510433E+02 -0.23770796170E+02  0.18106673435E+03  0.23787701490E+03  0.12509919036E+03 0.  0.
          5    1    3    3  502    0  0.67988663478E+02  0.44261500409E+02  0.11677376441E+03  0.14225021348E+03  0.41800000000E+01 0.  1.
         -5    1    3    3    0  502  0.19105846955E+02 -0.68032296579E+02  0.64292969945E+02  0.95626801421E+02  0.41800000000E+01 0.  1.
        -11    1    1    2    0    0 -0.46336456963E+02 -0.19134704609E+01 -0.22762421006E+02  0.51660975825E+02  0.00000000000E+00 0. -1.
         11    1    1    2    0    0 -0.40758053470E+02  0.25684266631E+02  0.61129523020E+02  0.77831350108E+02  0.00000000000E+00 0.  1.
</event>
<event>
 7    1  0.2690635E-009  0.1118043E+03  0.7561462E-02  0.1257265E+00
          2   -1    0    0  501    0  0.00000000000E+00  0.00000000000E+00  0.43716406469E+02  0.43716406469E+02  0.00000000000E+00 0. -1.
         -2   -1    0    0    0  501 -0.00000000000E+00 -0.00000000000E+00 -0.32224069553E+03  0.32224069553E+03  0.00000000000E+00 0.  1.
         25    2    1    2    0    0  0.45019183056E+02 -0.50551476631E+01 -0.18499045834E+03  0.22786902907E+03  0.12510213176E+03 0.  0.
          5    1    3    3  502    0 -0.33655836087E+02  0.19971146276E+02 -0.10782963709E+03  0.11478791322E+03  0.41800000000E+01 0. -1.
         -5    1    3    3    0  502  0.78675019144E+02 -0.25026293939E+02 -0.77160821251E+02  0.11308111585E+03  0.41800000000E+01 0. -1.
        -11    1    1    2    0    0 -0.31972321032E+02 -0.41983175325E+02 -0.48820085556E+02  0.71890312812E+02  0.00000000000E+00 0. -1.
         11    1    1    2    0    0 -0.13046862025E+02  0.47038322988E+02 -0.44713745166E+02  0.66197760120E+02  0.00000000000E+00 0.  1.
</event>
<event>
 7    1  0.4440329E-009  0.2916620E+03  0.7561462E-02  0.1089485E+00
          2   -1    0    0  501    0  0.00000000000E+00  0.00000000000E+00  0.15634055775E+04  0.15634055775E+04  0.00000000000E+00 0. -1.
         -2   -1    0    0    0  501 -0.00000000000E+00 -0.00000000000E+00 -0.60706961751E+02  0.60706961751E+02  0.00000000000E+00 0.  1.
         25    2    1    2    0    0 -0.14248267743E+03 -0.23237458449E+03  0.52005688978E+03  0.60033793978E+03  0.12508881822E+03 0.  0.
          5    1    3    3  502    0 -0.15155022656E+03 -0.14959084044E+03  0.41255126196E+03  0.46428537222E+03  0.41800000000E+01 0.  1.
         -5    1    3    3    0  502  0.90675491272E+01 -0.82783744047E+02  0.10750562782E+03  0.13605256755E+03  0.41800000000E+01 0.  1.
        -11    1    1    2    0    0  0.49230049400E+02  0.16425215759E+03  0.56312994553E+03  0.58865754441E+03  0.00000000000E+00 0. -1.
         11    1    1    2    0    0  0.93252628030E+02  0.68122426897E+02  0.41951178048E+03  0.43511705510E+03  0.00000000000E+00 0.  1.
</event>
<event>
 7    1  0.2690635E-009  0.9436391E+02  0.7561462E-02  0.1292615E+00
          3   -1    0    0  501    0  0.00000000000E+00  0.00000000000E+00  0.54212191539E+02  0.54212191539E+02  0.00000000000E+00 0. -1.
         -3   -1    0    0    0  501 -0.00000000000E+00 -0.00000000000E+00 -0.69154275725E+03  0.69154275725E+03  0.00000000000E+00 0.  1.
         25    2    1    2    0    0  0.88043099077E+01  0.17957892373E+02 -0.64019442428E+03  0.65260745932E+03  0.12509034055E+03 0.  0.
          5    1    3    3  502    0 -0.10816825057E+02 -0.42127273015E+02 -0.10573980673E+03  0.11441193104E+03  0.41800000000E+01 0. -1.
         -5    1    3    3    0  502  0.19621134964E+02  0.60085165388E+02 -0.53445461755E+03  0.53819552828E+03  0.41800000000E+01 0. -1.
        -11    1    1    2    0    0  0.24755560207E+02 -0.35919258931E+02 -0.20798405130E+02  0.48328093065E+02  0.00000000000E+00 0.  1.
         11    1    1    2    0    0 -0.33559870115E+02  0.17961366557E+02  0.23662263703E+02  0.44819396407E+02  0.00000000000E+00 0. -1.
</event>
<event>
 7    1  0.2690635E-009  0.9106859E+02  0.7561462E-02  0.1300284E+00
         -1   -1    0    0    0  501 -0.00000000000E+00  0.00000000000E+00  0.48978778088E+02  0.48978778088E+02  0.00000000000E+00 0.  1.
          1   -1    0    0  501    0  0.00000000000E+00 -0.00000000000E+00 -0.33074301265E+03  0.33074301265E+03  0.00000000000E+00 0. -1.
         25    2    1    2    0    0  0.52283884877E+02 -0.30650289041E+02 -0.14753675387E+03  0.20269455234E+03  0.12507974645E+03 0.  0.
          5    1    3    3  502    0  0.58092825509E+02 -0.20739142880E+02 -0.16791249966E+03  0.17893285994E+03  0.41800000000E+01 0.  1.
         -5    1    3    3    0  502 -0.58089406313E+01 -0.99111461603E+01  0.20375745790E+02  0.23761692406E+02  0.41800000000E+01 0.  1.
        -11    1    1    2    0    0 -0.72352553142E+02  0.10933126750E+01 -0.11650258127E+03  0.13714568430E+03  0.00000000000E+00 0. -1.
         11    1    1    2    0    0  0.20068668265E+02  0.29556976366E+02 -0.17724899421E+02  0.39881554098E+02  0.00000000000E+00 0.  1.
</event>
<event>
 7    1  0.2690635E-009  0.1112181E+03  0.7561462E-02  0.1258331E+00
         -3   -1    0    0    0  501 -0.00000000000E+00  0.00000000000E+00  0.48767163300E+03  0.48767163300E+03  0.00000000000E+00 0.  1.
          3   -1    0    0  501    0  0.00000000000E+00 -0.00000000000E+00 -0.36292224444E+02  0.36292224444E+02  0.00000000000E+00 0. -1.
         25    2    1    2    0    0  0.60857292170E+02  0.32309375632E+02  0.31190867629E+03  0.34304866334E+03  0.12509139584E+03 0.  0.
          5    1    3    3  502    0  0.87353934954E+02  0.58584345845E+02  0.23026209700E+03  0.25318163686E+03  0.41800000000E+01 0.  1.
         -5    1    3    3    0  502 -0.26496642784E+02 -0.26274970213E+02  0.81646579291E+02  0.89867026480E+02  0.41800000000E+01 0.  1.
        -11    1    1    2    0    0 -0.37120098861E+02  0.28198795571E+01  0.13289560879E+03  0.13801121800E+03  0.00000000000E+00 0.  1.
         11    1    1    2    0    0 -0.23737193310E+02 -0.35129255189E+02  0.65751234819E+01  0.42903976100E+02  0.00000000000E+00 0. -1.
</event>
<event>
 7    1  0.2690635E-009  0.1134571E+03  0.7561462E-02  0.1254299E+00
         -2   -1    0    0    0  501 -0.00000000000E+00  0.00000000000E+00  0.30292047319E+03  0.30292047319E+03  0.00000000000E+00 0.  1.
          2   -1    0    0  501    0  0.00000000000E+00 -0.00000000000E+00 -0.51989994295E+02  0.51989994295E+02  0.00000000000E+00 0. -1.
         25    2    1    2    0    0 -0.43540407999E+02 -0.44776502988E+02  0.15575813731E+03  0.20930571926E+03  0.12509030510E+03 0.  0.
          5    1    3    3  502    0 -0.72145308200E+01 -0.83434266178E+02  0.74442839304E+02  0.11212731581E+03  0.41800000000E+01 0.  1.
         -5    1    3    3    0  502 -0.36325877179E+02  0.38657763190E+02  0.81315298002E+02  0.97178403449E+02  0.41800000000E+01 0.  1.
        -11    1    1    2    0    0  0.51420836559E+02  0.77555632405E+01  0.94365784925E+02  0.10774577745E+03  0.00000000000E+00 0.  1.
         11    1    1    2    0    0 -0.78804285593E+01  0.37020939748E+02  0.80655665971E+00  0.37858970769E+02  0.00000000000E+00 0. -1.
</event>
<event>
 7    1  0.2690635E-009  0.9796487E+02  0.7561462E-02  0.1284635E+00
          4   -1    0    0  501    0  0.00000000000E+00  0.00000000000E+00  0.12914982524E+03  0.12914982524E+03  0.00000000000E+00 0. -1.
         -4   -1    0    0    0  501 -0.00000000000E+00 -0.00000000000E+00 -0.12929594944E+03  0.12929594944E+03  0.00000000000E+00 0.  1.
         25    2    1    2    0    0  0.97131402112E+01  0.52926128741E+02  0.44431240891E+02  0.14323743449E+03  0.12508919728E+03 0.  0.
          5    1    3    3  502    0  0.51867597557E+02  0.57150584512E+02  0.60065009378E+02  0.97886233649E+02  0.41800000000E+01 0. -1.
         -5    1    3    3    0  502 -0.42154457346E+02 -0.42244557711E+01 -0.15633768487E+02  0.45351200842E+02  0.41800000000E+01 0. -1.
        -11    1    1    2    0    0 -0.32072145664E+02 -0.27913913950E+02  0.16431966907E+02  0.45583096164E+02  0.00000000000E+00 0.  1.
         11    1    1    2    0    0  0.22359005452E+02 -0.25012214790E+02 -0.61009332006E+02  0.69625244024E+02  0.00000000000E+00 0. -1.
</event>
<event>
 7    1  0.2690635E-009  0.1054063E+03  0.7561462E-02  0.1269321E+00
          1   -1    0    0  501    0  0.00000000000E+00  0.00000000000E+00  0.84903792836E+02  0.84903792836E+02  0.00000000000E+00 0. -1.
         -1   -1    0    0    0  501 -0.00000000000E+00 -0.00000000000E+00 -0.23471223123E+03  0.23471223123E+03  0.00000000000E+00 0.  1.
         25    2    1    2    0    0 -0.37390909723E+01  0.61656432490E+02 -0.66825758794E+01  0.13967014806E+03  0.12509035522E+03 0.  0.
          5    1    3    3  502    0 -0.31449939350E+02  0.66684233854E+02  0.40753265342E+02  0.84345638689E+02  0.41800000000E+01 0.  1.
         -5    1    3    3    0  502  0.27710848378E+02 -0.50278013640E+01 -0.47435841222E+02  0.55324509368E+02  0.41800000000E+01 0.  1.
        -11    1    1    2    0    0 -0.18717970030E+02 -0.78322663657E+02 -0.11393722207E+03  0.13952237318E+03  0.00000000000E+00 0. -1.
         11    1    1    2    0    0  0.22457061002E+02  0.16666231166E+02 -0.29188640447E+02  0.40423502833E+02  0.00000000000E+00 0.  1.
</event>
<event>
 7    1  0.2690635E-009  0.1033432E+03  0.7561462E-02  0.1273419E+00
         -2   -1    0    0    0  501 -0.00000000000E+00  0.00000000000E+00  0.98319036216E+02  0.98319036216E+02  0.00000000000E+00 0. -1.
          2   -1    0    0  501    0  0.00000000000E+00 -0.00000000000E+00 -0.16364946846E+03  0.16364946846E+03  0.00000000000E+00 0.  1.
         25    2    1    2    0    0 -0.47250465668E+02 -0.41716184136E+02 -0.74204526212E+02  0.15851305526E+03  0.12508889020E+03 0.  0.
          5    1    3    3  502    0 -0.72016457419E+02  0.18137404705E+02 -0.31269150982E+02  0.80688089529E+02  0.41800000000E+01 0.  1.
         -5    1    3    3    0  502  0.24765991751E+02 -0.59853588841E+02 -0.42935375230E+02  0.77824965729E+02  0.41800000000E+01 0.  1.
        -11    1    1    2    0    0  0.29367715565E+02  0.39723036188E+02  0.42598908259E+02  0.65230738969E+02  0.00000000000E+00 0. -1.
         11    1    1    2    0    0  0.17882750103E+02  0.19931479482E+01 -0.33724814290E+02  0.38224710449E+02  0.00000000000E+00 0.  1.
</event>
<event>
 7    1  0.2690635E-009  0.1122671E+03  0.7561462E-02  0.1256428E+00
          3   -1    0    0  501    0  0.00000000000E+00  0.00000000000E+00  0.20694262092E+03  0.20694262092E+03  0.00000000000E+00 0. -1.
         -3   -1    0    0    0  501 -0.00000000000E+00 -0.00000000000E+00 -0.11763715824E+03  0.11763715824E+03  0.00000000000E+00 0.  1.
         25    2    1    2    0    0  0.40432646145E+02  0.64521129953E+02 -0.38495711077E+02  0.15142114666E+03  0.12509463937E+03 0.  0.
          5    1    3    3  502    0  0.75377558487E+02  0.76129557030E+02 -0.39736352004E+02  0.11434131295E+03  0.41800000000E+01 0.  1.
         -5    1    3    3    0  502 -0.34944912342E+02 -0.11608427078E+02  0.12406409269E+01  0.37079833707E+02  0.41800000000E+01 0.  1.
        -11    1    1    2    0    0 -0.41271683784E+02 -0.46317333709E+02  0.13868816565E+03  0.15193108496E+03  0.00000000000E+00 0. -1.
         11    1    1    2    0    0  0.83903763958E+00 -0.18203796244E+02 -0.10886991899E+02  0.21227547537E+02  0.00000000000E+00 0.  1.
</event>
<event>
 7    1  0.2690635E-009  0.9013155E+02  0.7561462E-02  0.1302533E+00
         -2   -1    0    0    0  501 -0.00000000000E+00  0.00000000000E+00  0.25778679508E+02  0.25778679508E+02  0.00000000000E+00 0.  1.
          2   -1    0    0  501    0  0.00000000000E+00 -0.00000000000E+00 -0.56180678626E+03  0.56180678626E+03  0.00000000000E+00 0. -1.
         25    2    1    2    0    0  0.50695556010E+02  0.98767133897E+01 -0.32682715429E+03  0.35373865843E+03  0.12508981103E+03 0.  0.
          5    1    3    3  502    0  0.33003449878E+02  0.45158372370E+02 -0.53392921261E+02  0.77438896814E+02  0.41800000000E+01 0. -1.
         -5    1    3    3    0  502  0.17692106132E+02 -0.35281658981E+02 -0.27343423303E+03  0.27629976162E+03  0.41800000000E+01 0. -1.
        -11    1    1    2    0    0 -0.40382876633E+01 -0.32417057733E+02 -0.21458819248E+02  0.39085218726E+02  0.00000000000E+00 0.  1.
         11    1    1    2    0    0 -0.46657268347E+02  0.22540344344E+02 -0.18774213321E+03  0.19476158860E+03  0.00000000000E+00 0. -1.
</event>
<event>
 7    1  0.2690635E-009  0.9450661E+02  0.7561462E-02  0.1292291E+00
         -2   -1    0    0    0  501 -0.00000000000E+00  0.00000000000E+00  0.38567038952E+02  0.38567038952E+02  0.00000000000E+00 0.  1.
          2   -1    0    0  501    0  0.00000000000E+00 -0.00000000000E+00 -0.31595749839E+03  0.31595749839E+03  0.00000000000E+00 0. -1.
         25    2    1    2    0    0 -0.15434613453E+02 -0.11111470039E+02 -0.15086780594E+03  0.19690224668E+03  0.12509079830E+03 0.  0.
          5    1    3    3  502    0  0.36302916719E+02 -0.48133334664E+02 -0.54654919877E+02  0.81482220975E+02  0.41800000000E+01 0.  1.
         -5    1    3    3    0  502 -0.51737530172E+02  0.37021864625E+02 -0.96212886062E+02  0.11542002570E+03  0.41800000000E+01 0.  1.
        -11    1    1    2    0    0  0.24270934492E+02  0.33146706220E+02 -0.15212848088E+02  0.43808824925E+02  0.00000000000E+00 0.  1.
         11    1    1    2    0    0 -0.88363210391E+01 -0.22035236181E+02 -0.11130980542E+03  0.11381346574E+03  0.00000000000E+00 0. -1.
</event>
<event>
 7    1  0.2690635E-009  0.7581954E+02  0.7561462E-02  0.1341352E+00
         -1   -1    0    0    0  501 -0.00000000000E+00  0.00000000000E+00  0.41257881632E+02  0.41257881632E+02  0.00000000000E+00 0.  1.
          1   -1    0    0  501    0  0.00000000000E+00 -0.00000000000E+00 -0.29530001506E+03  0.29530001506E+03  0.00000000000E+00 0. -1.
         25    2    1    2    0    0 -0.20811108200E+02 -0.45545205367E+01 -0.14001816553E+03  0.18896081146E+03  0.12508899115E+03 0.  0.
          5    1    3    3  502    0  0.57472997691E+00 -0.40441049430E+02 -0.14122244858E+03  0.14695938615E+03  0.41800000000E+01 0. -1.
         -5    1    3    3    0  502 -0.21385838177E+02  0.35886528893E+02  0.12042830538E+01  0.42001425311E+02  0.41800000000E+01 0. -1.
        -11    1    1    2    0    0 -0.23927164858E+02 -0.77532162190E+00  0.11059957422E+01  0.23965257527E+02  0.00000000000E+00 0.  1.
         11    1    1    2    0    0  0.44738273058E+02  0.53298421586E+01 -0.11512996364E+03  0.12363182770E+03  0.00000000000E+00 0. -1.
</event>
<event>
 7    1  0.2690635E-009  0.9928471E+02  0.7561462E-02  0.1281807E+00
          1   -1    0    0  501    0  0.00000000000E+00  0.00000000000E+00  0.30969315073E+03  0.30969315073E+03  0.00000000000E+00 0. -1.
         -1   -1    0    0    0  501 -0.00000000000E+00 -0.00000000000E+00 -0.97385564467E+02  0.97385564467E+02  0.00000000000E+00 0.  1.
         25    2    1    2    0    0  0.24149256818E+02 -0.67566868022E+02 -0.21066779186E+02  0.14574242038E+03  0.12509426707E+03 0.  0.
          5    1    3    3  502    0  0.47196197650E+02 -0.32602326494E+02  0.41085846561E+02  0.70681765350E+02  0.41800000000E+01 0. -1.
         -5    1    3    3    0  502 -0.23046940832E+02 -0.34964541528E+02 -0.62152625746E+02  0.75060655027E+02  0.41800000000E+01 0. -1.
        -11    1    1    2    0    0  0.21497753423E+02  0.40633092045E+02  0.40345754822E+02  0.61163563529E+02  0.00000000000E+00 0.  1.
         11    1    1    2    0    0 -0.45647010240E+02  0.26933775977E+02  0.19302861062E+03  0.20017273129E+03  0.00000000000E+00 0. -1.
</event>
<event>
 7    1  0.2690635E-009  0.1569153E+03  0.7561462E-02  0.1192224E+00
          2   -1    0    0  501    0  0.00000000000E+00  0.00000000000E+00  0.31727030377E+03  0.31727030377E+03  0.00000000000E+00 0.  1.
         -2   -1    0    0    0  501 -0.00000000000E+00 -0.00000000000E+00 -0.88174005310E+02  0.88174005310E+02  0.00000000000E+00 0. -1.
         25    2    1    2    0    0  0.19739874633E+02 -0.12630799731E+03  0.11913542426E+03  0.21491157822E+03  0.12510141607E+03 0.  0.
          5    1    3    3  502    0  0.57928038063E+02 -0.19460132471E+02  0.64350502073E+02  0.88841509817E+02  0.41800000000E+01 0. -1.
         -5    1    3    3    0  502 -0.38188163430E+02 -0.10684786484E+03  0.54784922189E+02  0.12607006840E+03  0.41800000000E+01 0. -1.
        -11    1    1    2    0    0  0.36700749859E+01  0.11100637256E+03  0.11738006145E+03  0.16159815292E+03  0.00000000000E+00 0.  1.
         11    1    1    2    0    0 -0.23409949619E+02  0.15301624753E+02 -0.74191872543E+01  0.28934577943E+02  0.00000000000E+00 0. -1.
</event>
<event>
 7    1  0.2690635E-009  0.1531098E+03  0.7561462E-02  0.1196703E+00
          2   -1    0    0  501    0  0.00000000000E+00  0.00000000000E+00  0.50181114428E+03  0.50181114428E+03  0.00000000000E+00 0. -1.
         -2   -1    0    0    0  501 -0.00000000000E+00 -0.00000000000E+00 -0.57412449879E+02  0.57412449879E+02  0.00000000000E+00 0.  1.
         25    2    1    2    0    0 -0.65041880282E+01  0.11069890899E+03  0.12236152362E+03  0.20716280425E+03  0.12509009589E+03 0.  0.
          5    1    3    3  502    0 -0.58781808462E+02  0.90926984948E+02  0.97822519389E+02  0.14597854396E+03  0.41800000000E+01 0. -1.
         -5    1    3    3    0  502  0.52277620434E+02  0.19771924039E+02  0.24539004232E+02  0.61184260290E+02  0.41800000000E+01 0. -1.
        -11    1    1    2    0    0  0.38275135538E+02 -0.10190015222E+03  0.25840810533E+03  0.28039860185E+03  0.00000000000E+00 0. -1.
         11    1    1    2    0    0 -0.31770947510E+02 -0.87987567708E+01  0.63629065456E+02  0.71662188058E+02  0.00000000000E+00 0.  1.
</event>
<event>
 7    1  0.2690635E-009  0.1004050E+03  0.7561462E-02  0.1279447E+00
         -2   -1    0    0    0  501 -0.00000000000E+00  0.00000000000E+00  0.46058045494E+02  0.46058045494E+02  0.00000000000E+00 0.  1.
          2   -1    0    0  501    0  0.00000000000E+00 -0.00000000000E+00 -0.40191594581E+03  0.40191594581E+03  0.00000000000E+00 0. -1.
         25    2    1    2    0    0 -0.50851364757E+02 -0.63824029456E+02 -0.17906889986E+03  0.23318914243E+03  0.12510850178E+03 0.  0.
          5    1    3    3  502    0 -0.48280681974E+02 -0.59961037880E+02 -0.19841130085E+03  0.21286349386E+03  0.41800000000E+01 0.  1.
         -5    1    3    3    0  502 -0.25706827832E+01 -0.38629915760E+01  0.19342400988E+02  0.20325648571E+02  0.41800000000E+01 0.  1.
        -11    1    1    2    0    0  0.32636618322E+02  0.84101103496E+02 -0.10755628342E+03  0.14037983676E+03  0.00000000000E+00 0.  1.
         11    1    1    2    0    0  0.18214746435E+02 -0.20277074041E+02 -0.69232717032E+02  0.74405012109E+02  0.00000000000E+00 0. -1.
</event>
<event>
 7    1  0.2690635E-009  0.1951757E+03  0.7561462E-02  0.1153874E+00
         -1   -1    0    0    0  501 -0.00000000000E+00  0.00000000000E+00  0.18143332067E+03  0.18143332067E+03  0.00000000000E+00 0.  1.
          1   -1    0    0  501    0  0.00000000000E+00 -0.00000000000E+00 -0.37013032342E+03  0.37013032342E+03  0.00000000000E+00 0. -1.
         25    2    1    2    0    0  0.16756743462E+03  0.48751893551E+02 -0.26397026761E+03  0.34026445648E+03  0.12507600048E+03 0.  0.
          5    1    3    3  502    0  0.10617320104E+03  0.90377312815E+02 -0.18690345161E+03  0.23321916712E+03  0.41800000000E+01 0.  1.
         -5    1    3    3    0  502  0.61394233579E+02 -0.41625419265E+02 -0.77066816001E+02  0.10704528936E+03  0.41800000000E+01 0.  1.
        -11    1    1    2    0    0 -0.11919712221E+03 -0.47105515250E+02  0.79887753951E+01  0.12841613622E+03  0.00000000000E+00 0. -1.
         11    1    1    2    0    0 -0.48370312414E+02 -0.16463783005E+01  0.67284489462E+02  0.82883051384E+02  0.00000000000E+00 0.  1.
</event>
<event>
 7    1  0.2690635E-009  0.1321826E+03  0.7561462E-02  0.1224253E+00
         -3   -1    0    0    0  501 -0.00000000000E+00  0.00000000000E+00  0.15731197834E+03  0.15731197834E+03  0.00000000000E+00 0.  1.
          3   -1    0    0  501    0  0.00000000000E+00 -0.00000000000E+00 -0.13012332204E+03  0.13012332204E+03  0.00000000000E+00 0. -1.
         25    2    1    2    0    0 -0.76070556519E+02  0.54626670460E+01  0.68589522557E+02  0.16175309223E+03  0.12507185911E+03 0.  0.
          5    1    3    3  502    0 -0.59937420450E+02  0.62611900165E+02  0.36681441341E+02  0.94211172115E+02  0.41800000000E+01 0.  1.
         -5    1    3    3    0  502 -0.16133136069E+02 -0.57149233119E+02  0.31908081216E+02  0.67541920112E+02  0.41800000000E+01 0.  1.
        -11    1    1    2    0    0  0.38790686576E+02  0.42349766203E+02 -0.26500824593E+02  0.63249614755E+02  0.00000000000E+00 0. -1.
         11    1    1    2    0    0  0.37279869943E+02 -0.47812433249E+02 -0.14900041664E+02  0.62432593393E+02  0.00000000000E+00 0.  1.
</event>
<event>
 7    1  0.2690635E-009  0.9813445E+02  0.7561462E-02  0.1284269E+00
         -2   -1    0    0    0  501 -0.00000000000E+00  0.00000000000E+00  0.11762705914E+03  0.11762705914E+03  0.00000000000E+00 0. -1.
          2   -1    0    0  501    0  0.00000000000E+00 -0.00000000000E+00 -0.15054301673E+03  0.15054301673E+03  0.00000000000E+00 0.  1.
         25    2    1    2    0    0  0.70020877048E+02  0.33072993163E+02 -0.14404552030E+02  0.14782126863E+03  0.12508753032E+03 0.  0.
          5    1    3    3  502    0  0.21920039155E+02  0.15310797427E+02 -0.68207771092E+02  0.73380386152E+02  0.41800000000E+01 0. -1.
         -5    1    3    3    0  502  0.48100837894E+02  0.17762195736E+02  0.53803219062E+02  0.74440882483E+02  0.41800000000E+01 0. -1.
        -11    1    1    2    0    0 -0.47910138819E+02  0.26123653821E+02 -0.16938999854E+02  0.57138046927E+02  0.00000000000E+00 0.  1.
         11    1    1    2    0    0 -0.22110738230E+02 -0.59196646985E+02 -0.15724057086E+01  0.63210760310E+02  0.00000000000E+00 0. -1.
</event>
<event>
 7    1  0.2690635E-009  0.1002389E+03  0.7561462E-02  0.1279794E+00
          3   -1    0    0  501    0  0.00000000000E+00  0.00000000000E+00  0.72779939534E+02  0.72779939534E+02  0.00000000000E+00 0. -1.
         -3   -1    0    0    0  501 -0.00000000000E+00 -0.00000000000E+00 -0.45003020952E+03  0.45003020952E+03  0.00000000000E+00 0.  1.
         25    2    1    2    0    0 -0.47229118563E+01  0.40775028436E+02 -0.39890913771E+03  0.42007270432E+03  0.12509063883E+03 0.  0.
          5    1    3    3  502    0  0.22393949114E+02 -0.27308587712E+02 -0.39106296510E+02  0.52858516310E+02  0.41800000000E+01 0.  1.
         -5    1    3    3    0  502 -0.27116860971E+02  0.68083616148E+02 -0.35980284120E+03  0.36721418801E+03  0.41800000000E+01 0.  1.
        -11    1    1    2    0    0 -0.15460514508E+02 -0.61005292499E+02 -0.56796398387E+01  0.63189647336E+02  0.00000000000E+00 0. -1.
         11    1    1    2    0    0  0.20183426364E+02  0.20230264063E+02  0.27338507562E+02  0.39547797405E+02  0.00000000000E+00 0.  1.
</event>
<event>
 7    1  0.2690635E-009  0.1306009E+03  0.7561462E-02  0.1226567E+00
         -2   -1    0    0    0  501 -0.00000000000E+00  0.00000000000E+00  0.18187253597E+03  0.18187253597E+03  0.00000000000E+00 0.  1.
          2   -1    0    0  501    0  0.00000000000E+00 -0.00000000000E+00 -0.12547537039E+03  0.12547537039E+03  0.00000000000E+00 0. -1.
         25    2    1    2    0    0 -0.22714212578E+02 -0.84399438503E+02  0.89323477385E+02  0.17682134574E+03  0.12509158254E+03 0.  0.
          5    1    3    3  502    0  0.24226978482E+02 -0.98498903852E+02  0.72816287756E+02  0.12493464175E+03  0.41800000000E+01 0.  1.
         -5    1    3    3    0  502 -0.46941191060E+02  0.14099465349E+02  0.16507189629E+02  0.51886703988E+02  0.41800000000E+01 0.  1.
        -11    1    1    2    0    0  0.30155783341E+02  0.47900630256E+01  0.18271486595E+02  0.35583186972E+02  0.00000000000E+00 0.  1.
         11    1    1    2    0    0 -0.74415707625E+01  0.79609375477E+02 -0.51197798400E+02  0.94943373651E+02  0.00000000000E+00 0. -1.
</event>
<event>
 7    1  0.2690635E-009  0.8853398E+02  0.7561462E-02  0.1306441E+00
         -1   -1    0    0    0  501 -0.00000000000E+00  0.00000000000E+00  0.35108567649E+02  0.35108567649E+02  0.00000000000E+00 0.  1.
          1   -1    0    0  501    0  0.00000000000E+00 -0.00000000000E+00 -0.34815582536E+03  0.34815582536E+03  0.00000000000E+00 0. -1.
         25    2    1    2    0    0 -0.16421248136E+02  0.13624721458E+02 -0.16029250343E+03  0.20444093253E+03  0.12508843995E+03 0.  0.
          5    1    3    3  502    0 -0.37310120892E+02  0.45538374836E+02 -0.15481263857E+03  0.16568106158E+03  0.41800000000E+01 0.  1.
         -5    1    3    3    0  502  0.20888872756E+02 -0.31913653378E+02 -0.54798648595E+01  0.38759870947E+02  0.41800000000E+01 0.  1.
        -11    1    1    2    0    0  0.14057678259E+02  0.31498542961E+02 -0.11461755806E+03  0.11969528455E+03  0.00000000000E+00 0.  1.
         11    1    1    2    0    0  0.23635698773E+01 -0.45123264420E+02 -0.38137196218E+02  0.59128175938E+02  0.00000000000E+00 0. -1.
</event>
<event>
 7    1  0.2690635E-009  0.1601359E+03  0.7561462E-02  0.1188543E+00
         -1   -1    0    0    0  501 -0.00000000000E+00  0.00000000000E+00  0.61226870882E+02  0.61226870882E+02  0.00000000000E+00 0.  1.
          1   -1    0    0  501    0  0.00000000000E+00 -0.00000000000E+00 -0.44143928409E+03  0.44143928409E+03  0.00000000000E+00 0. -1.
         25    2    1    2    0    0  0.34761450117E+02 -0.11516142608E+03 -0.16277695731E+03  0.23793858341E+03  0.12509164311E+03 0.  0.
          5    1    3    3  502    0  0.78495099907E+02 -0.45288793424E+02 -0.92093034368E+02  0.12927163223E+03  0.41800000000E+01 0.  1.
         -5    1    3    3    0  502 -0.43733649790E+02 -0.69872632656E+02 -0.70683922940E+02  0.10866695119E+03  0.41800000000E+01 0.  1.
        -11    1    1    2    0    0  0.18745750639E+02  0.81888833904E+02 -0.93506089277E+02  0.12570033022E+03  0.00000000000E+00 0. -1.
         11    1    1    2    0    0 -0.53507200756E+02  0.33272592176E+02 -0.12392936662E+03  0.13902724134E+03  0.00000000000E+00 0.  1.
</event>
<event>
 7    1  0.2690635E-009  0.9976154E+02  0.7561462E-02  0.1280798E+00
         -1   -1    0    0    0  501 -0.00000000000E+00  0.00000000000E+00  0.30408063253E+02  0.30408063253E+02  0.00000000000E+00 0.  1.
          1   -1    0    0  501    0  0.00000000000E+00 -0.00000000000E+00 -0.54484972864E+03  0.54484972864E+03  0.00000000000E+00 0. -1.
         25    2    1    2    0    0  0.53029148186E+02 -0.47350061035E+02 -0.30922267920E+03  0.34105632152E+03  0.12508649120E+03 0.  0.
          5    1    3    3  502    0  0.69956752979E+02 -0.32765118315E+02 -0.82129691507E+02  0.11282844895E+03  0.41800000000E+01 0. -1.
         -5    1    3    3    0  502 -0.16927604792E+02 -0.14584942720E+02 -0.22709298770E+03  0.22822787257E+03  0.41800000000E+01 0. -1.
        -11    1    1    2    0    0  0.16330772268E+02  0.17559875519E+01 -0.45502316902E+01  0.17043539057E+02  0.00000000000E+00 0.  1.
         11    1    1    2    0    0 -0.69359920455E+02  0.45594073483E+02 -0.20066875449E+03  0.21715793131E+03  0.00000000000E+00 0. -1.
</event>
<event>
 7    1  0.2690635E-009  0.8730109E+02  0.7561462E-02  0.1309522E+00
         -2   -1    0    0    0  501 -0.00000000000E+00  0.00000000000E+00  0.25208178918E+03  0.25208178918E+03  0.00000000000E+00 0.  1.
          2   -1    0    0  501    0  0.00000000000E+00 -0.00000000000E+00 -0.52862834640E+02  0.52862834640E+02  0.00000000000E+00 0. -1.
         25    2    1    2    0    0 -0.22407599737E+02  0.13753995997E+02  0.15955306645E+03  0.20444078539E+03  0.12509029054E+03 0.  0.
          5    1    3    3  502    0  0.18293368351E+02 -0.28260501332E+02  0.13776316151E+03  0.14187834341E+03  0.41800000000E+01 0. -1.
         -5    1    3    3    0  502 -0.40700968088E+02  0.42014497328E+02  0.21789904941E+02  0.62562441979E+02  0.41800000000E+01 0. -1.
        -11    1    1    2    0    0 -0.91297566455E+01  0.28146977229E+02  0.37830247147E+02  0.48028453886E+02  0.00000000000E+00 0.  1.
         11    1    1    2    0    0  0.31537356383E+02 -0.41900973225E+02  0.18356409415E+01  0.52475384539E+02  0.00000000000E+00 0. -1.
</event>
<event>
 7    1  0.2690635E-009  0.1187902E+03  0.7561462E-02  0.1245106E+00
          1   -1    0    0  501    0  0.00000000000E+00  0.00000000000E+00  0.23731810826E+03  0.23731810826E+03  0.00000000000E+00 0. -1.
         -1   -1    0    0    0  501 -0.00000000000E+00 -0.00000000000E+00 -0.86857872432E+02  0.86857872432E+02  0.00000000000E+00 0.  1.
         25    2    1    2    0    0  0.65442196660E+02  0.31301987363E+02  0.15241637715E+03  0.21009732982E+03  0.12509052905E+03 0.  0.
          5    1    3    3  502    0  0.93168661975E+02  0.19467831391E+02  0.59505914415E+02  0.11232908031E+03  0.41800000000E+01 0.  1.
         -5    1    3    3    0  502 -0.27726465314E+02  0.11834155972E+02  0.92910462736E+02  0.97768249510E+02  0.41800000000E+01 0.  1.
        -11    1    1    2    0    0  0.14540986952E+02 -0.28319143617E+02  0.95063325748E+01  0.33223253239E+02  0.00000000000E+00 0.  1.
         11    1    1    2    0    0 -0.79983183613E+02 -0.29828437459E+01 -0.11462473901E+02  0.80855397628E+02  0.00000000000E+00 0. -1.
</event>
<event>
 7    1  0.2690635E-009  0.9013430E+02  0.7561462E-02  0.1302527E+00
         -2   -1    0    0    0  501 -0.00000000000E+00  0.00000000000E+00  0.27748162596E+03  0.27748162596E+03  0.00000000000E+00 0.  1.
          2   -1    0    0  501    0  0.00000000000E+00 -0.00000000000E+00 -0.76110148086E+02  0.76110148086E+02  0.00000000000E+00 0. -1.
         25    2    1    2    0    0 -0.71728434068E+00 -0.83560622541E+02  0.52896446135E+02  0.15946339895E+03  0.12509056500E+03 0.  0.
          5    1    3    3  502    0 -0.11203057065E+02 -0.51777360607E+02  0.92969758346E+02  0.10708525541E+03  0.41800000000E+01 0.  1.
         -5    1    3    3    0  502  0.10485772724E+02 -0.31783261934E+02 -0.40073312211E+02  0.52378143537E+02  0.41800000000E+01 0.  1.
        -11    1    1    2    0    0  0.18314823694E+02  0.18621161040E+02 -0.49641737896E+01  0.26586151035E+02  0.00000000000E+00 0. -1.
         11    1    1    2    0    0 -0.17597539354E+02  0.64939461501E+02  0.15343920553E+03  0.16754222406E+03  0.00000000000E+00 0.  1.
</event>
<event>
 7    1  0.2690635E-009  0.1993482E+03  0.7561462E-02  0.1150290E+00
         -1   -1    0    0    0  501 -0.00000000000E+00  0.00000000000E+00  0.25424754457E+02  0.25424754457E+02  0.00000000000E+00 0.  1.
          1   -1    0    0  501    0  0.00000000000E+00 -0.00000000000E+00 -0.17784716451E+04  0.17784716451E+04  0.00000000000E+00 0. -1.
         25    2    1    2    0    0 -0.92362265369E+02 -0.15730206696E+03 -0.93355244574E+03  0.95939686297E+03  0.12508974136E+03 0.  0.
          5    1    3    3  502    0 -0.28281344750E+00 -0.62905214005E+02 -0.55383126376E+03  0.55740800771E+03  0.41800000000E+01 0. -1.
         -5    1    3    3    0  502 -0.92079451921E+02 -0.94396852957E+02 -0.37972118198E+03  0.40198885526E+03  0.41800000000E+01 0. -1.
        -11    1    1    2    0    0 -0.18292254897E+02  0.29018463103E+02 -0.12259181083E+03  0.12730054938E+03  0.00000000000E+00 0.  1.
         11    1    1    2    0    0  0.11065452027E+03  0.12828360386E+03 -0.69690263409E+03  0.71719898722E+03  0.00000000000E+00 0. -1.
</event>
<event>
 7    1  0.2690635E-009  0.8210027E+02  0.7561462E-02  0.1323195E+00
          1   -1    0    0  501    0  0.00000000000E+00  0.00000000000E+00  0.44348435290E+03  0.44348435290E+03  0.00000000000E+00 0. -1.
         -1   -1    0    0    0  501 -0.00000000000E+00 -0.00000000000E+00 -0.34379671337E+02  0.34379671337E+02  0.00000000000E+00 0.  1.
         25    2    1    2    0    0 -0.97821166298E+01 -0.18012046892E+01  0.34801047972E+03  0.36994419028E+03  0.12509386788E+03 0.  0.
          5    1    3    3  502    0  0.51920622167E+02  0.16880544622E+02  0.21794019943E+03  0.22471338795E+03  0.41800000000E+01 0. -1.
         -5    1    3    3    0  502 -0.61702738797E+02 -0.18681749311E+02  0.13007028029E+03  0.14523080234E+03  0.41800000000E+01 0. -1.
        -11    1    1    2    0    0  0.61504469095E+01  0.22756520763E+02 -0.15642215838E+02  0.28290743199E+02  0.00000000000E+00 0.  1.
         11    1    1    2    0    0  0.36316697203E+01 -0.20955316074E+02  0.76736417675E+02  0.79629090754E+02  0.00000000000E+00 0. -1.
</event>
<event>
 7    1  0.2690635E-009  0.1070718E+03  0.7561462E-02  0.1266091E+00
          2   -1    0    0  501    0  0.00000000000E+00  0.00000000000E+00  0.73953420080E+02  0.73953420080E+02  0.00000000000E+00 0.  1.
         -2   -1    0    0    0  501 -0.00000000000E+00 -0.00000000000E+00 -0.18308418136E+03  0.18308418136E+03  0.00000000000E+00 0. -1.
         25    2    1    2    0    0  0.20044586610E+02 -0.33163909988E+02 -0.89220755131E+02  0.15846006904E+03  0.12509044710E+03 0.  0.
          5    1    3    3  502    0  0.39638658604E+02 -0.70361279058E+02 -0.82777612111E+02  0.11572181434E+03  0.41800000000E+01 0. -1.
         -5    1    3    3    0  502 -0.19594071994E+02  0.37197369070E+02 -0.64431430195E+01  0.42738254703E+02  0.41800000000E+01 0. -1.
        -11    1    1    2    0    0  0.20081521067E+02  0.44928377680E+02  0.57031356499E+01  0.49541420706E+02  0.00000000000E+00 0.  1.
         11    1    1    2    0    0 -0.40126107677E+02 -0.11764467691E+02 -0.25613141799E+02  0.49036111695E+02  0.00000000000E+00 0. -1.
</event>
<event>
 7    1  0.2690635E-009  0.1899557E+03  0.7561462E-02  0.1158501E+00
         -1   -1    0    0    0  501 -0.00000000000E+00  0.00000000000E+00  0.53899633407E+02  0.53899633407E+02  0.00000000000E+00 0.  1.
          1   -1    0    0  501    0  0.00000000000E+00 -0.00000000000E+00 -0.84797352071E+03  0.84797352071E+03  0.00000000000E+00 0. -1.
         25    2    1    2    0    0 -0.17675259974E+03 -0.13861976233E+02 -0.51418616605E+03  0.55809370635E+03  0.12509011076E+03 0.  0.
          5    1    3    3  502    0 -0.30108832384E+02  0.22385369604E+02 -0.23041171256E+02  0.44226853072E+02  0.41800000000E+01 0. -1.
         -5    1    3    3    0  502 -0.14664376736E+03 -0.36247345837E+02 -0.49114499480E+03  0.51386685328E+03  0.41800000000E+01 0. -1.
        -11    1    1    2    0    0  0.74565322661E+02  0.41299793768E+02 -0.76578774445E+02  0.11458607683E+03  0.00000000000E+00 0.  1.
         11    1    1    2    0    0  0.10218727708E+03 -0.27437817536E+02 -0.20330894680E+03  0.22919337093E+03  0.00000000000E+00 0. -1.
</event>
<event>
 7    1  0.2690635E-009  0.1239747E+03  0.7561462E-02  0.1236680E+00
         -2   -1    0    0    0  501 -0.00000000000E+00  0.00000000000E+00  0.22891070155E+03  0.22891070155E+03  0.00000000000E+00 0.  1.
          2   -1    0    0  501    0  0.00000000000E+00 -0.00000000000E+00 -0.84042184717E+02  0.84042184717E+02  0.00000000000E+00 0. -1.
         25    2    1    2    0    0 -0.77802490514E+02  0.14099250413E+02  0.11504580315E+03  0.18745373744E+03  0.12510535746E+03 0.  0.
          5    1    3    3  502    0 -0.87682199231E+02 -0.24648040102E+02  0.34600473196E+02  0.97521069971E+02  0.41800000000E+01 0. -1.
         -5    1    3    3    0  502  0.98797087170E+01  0.38747290515E+02  0.80445329955E+02  0.89932667469E+02  0.41800000000E+01 0. -1.
        -11    1    1    2    0    0  0.68325070109E+02  0.27685985473E+02  0.75873862267E+00  0.73725197058E+02  0.00000000000E+00 0.  1.
         11    1    1    2    0    0  0.94774204057E+01 -0.41785235886E+02  0.29063975061E+02  0.51773951771E+02  0.00000000000E+00 0. -1.
</event>
<event>
 7    1  0.2690635E-009  0.9686434E+02  0.7561462E-02  0.1287031E+00
         -2   -1    0    0    0  501 -0.00000000000E+00  0.00000000000E+00  0.26219483176E+02  0.26219483176E+02  0.00000000000E+00 0.  1.
          2   -1    0    0  501    0  0.00000000000E+00 -0.00000000000E+00 -0.82379294105E+03  0.82379294105E+03  0.00000000000E+00 0. -1.
         25    2    1    2    0    0  0.32615511130E+02  0.57646648562E+02 -0.64577026046E+03  0.66110043029E+03  0.12509053513E+03 0.  0.
          5    1    3    3  502    0  0.58813479981E+02  0.19730345276E+02 -0.56174127079E+03  0.56517169042E+03  0.41800000000E+01 0.  1.
         -5    1    3    3    0  502 -0.26197968851E+02  0.37916303286E+02 -0.84028989674E+02  0.95928739867E+02  0.41800000000E+01 0.  1.
        -11    1    1    2    0    0 -0.47483631880E+02 -0.39123072494E+02 -0.15322618793E+03  0.16511685185E+03  0.00000000000E+00 0. -1.
         11    1    1    2    0    0  0.14868120750E+02 -0.18523576068E+02  0.14229905123E+01  0.23795142088E+02  0.00000000000E+00 0.  1.
</event>
<event>
 7    1  0.2690635E-009  0.9707028E+02  0.7561462E-02  0.1286580E+00
         -2   -1    0    0    0  501 -0.00000000000E+00  0.00000000000E+00  0.21744719664E+02  0.21744719664E+02  0.00000000000E+00 0.  1.
          2   -1    0    0  501    0  0.00000000000E+00 -0.00000000000E+00 -0.15536490129E+04  0.15536490129E+04  0.00000000000E+00 0. -1.
         25    2    1    2    0    0  0.65485208001E+02  0.71132594242E+00 -0.13781245103E+04  0.13853390698E+04  0.12509338175E+03 0.  0.
          5    1    3    3  502    0 -0.21911382929E+02  0.20253667991E+02 -0.77522376468E+03  0.77580904705E+03  0.41800000000E+01 0.  1.
         -5    1    3    3    0  502  0.87396590930E+02 -0.19542342048E+02 -0.60290074557E+03  0.60953002277E+03  0.41800000000E+01 0.  1.
        -11    1    1    2    0    0 -0.48164157839E+02 -0.16509446670E+02 -0.20759924439E+02  0.54984746907E+02  0.00000000000E+00 0.  1.
         11    1    1    2    0    0 -0.17321050163E+02  0.15798120728E+02 -0.13301985852E+03  0.13506991582E+03  0.00000000000E+00 0. -1.
</event>
<event>
 7    1  0.2690635E-009  0.1440210E+03  0.7561462E-02  0.1208019E+00
         -3   -1    0    0    0  501 -0.00000000000E+00  0.00000000000E+00  0.68607892279E+03  0.68607892279E+03  0.00000000000E+00 0.  1.
          3   -1    0    0  501    0  0.00000000000E+00 -0.00000000000E+00 -0.37966939020E+02  0.37966939020E+02  0.00000000000E+00 0. -1.
         25    2    1    2    0    0 -0.22321713993E+02  0.10095134370E+03  0.47139634800E+03  0.49854961608E+03  0.12509104713E+03 0.  0.
          5    1    3    3  502    0 -0.70204155020E+02  0.48357607776E+02  0.32063933043E+03  0.33180436138E+03  0.41800000000E+01 0. -1.
         -5    1    3    3    0  502  0.47882441028E+02  0.52593735920E+02  0.15075701757E+03  0.16674525469E+03  0.41800000000E+01 0. -1.
        -11    1    1    2    0    0 -0.13462325941E+02  0.87486477171E+01  0.20897212959E+01  0.16190737837E+02  0.00000000000E+00 0. -1.
         11    1    1    2    0    0  0.35784039934E+02 -0.10969999141E+03  0.17462591447E+03  0.20930550789E+03  0.00000000000E+00 0.  1.
</event>
<event>
 7    1  0.2690635E-009  0.1174757E+03  0.7561462E-02  0.1247320E+00
         -2   -1    0    0    0  501 -0.00000000000E+00  0.00000000000E+00  0.14431484180E+03  0.14431484180E+03  0.00000000000E+00 0.  1.
          2   -1    0    0  501    0  0.00000000000E+00 -0.00000000000E+00 -0.17303157305E+03  0.17303157305E+03  0.00000000000E+00 0. -1.
         25    2    1    2    0    0  0.72590362378E+02  0.83525972579E+01  0.73337290273E+02  0.16237441723E+03  0.12509183281E+03 0.  0.
          5    1    3    3  502    0  0.82038990119E+02  0.36678899227E+02  0.90561065414E+02  0.12764997656E+03  0.41800000000E+01 0.  1.
         -5    1    3    3    0  502 -0.94486277408E+01 -0.28326301969E+02 -0.17223775141E+02  0.34724440665E+02  0.41800000000E+01 0.  1.
        -11    1    1    2    0    0 -0.58612862658E+02  0.35694107505E+02 -0.73945389239E+02  0.10088338599E+03  0.00000000000E+00 0. -1.
         11    1    1    2    0    0 -0.13977499719E+02 -0.44046704763E+02 -0.28108632280E+02  0.54088611625E+02  0.00000000000E+00 0.  1.
</event>
<event>
 7    1  0.2690635E-009  0.8790030E+02  0.7561462E-02  0.1308018E+00
          1   -1    0    0  501    0  0.00000000000E+00  0.00000000000E+00  0.48841451472E+02  0.48841451472E+02  0.00000000000E+00 0. -1.
         -1   -1    0    0    0  501 -0.00000000000E+00 -0.00000000000E+00 -0.29216957705E+03  0.29216957705E+03  0.00000000000E+00 0.  1.
         25    2    1    2    0    0 -0.49029032271E+02  0.33426399697E+01 -0.15866830393E+03  0.20793808602E+03  0.12509035812E+03 0.  0.
          5    1    3    3  502    0 -0.35305923099E+02 -0.23732701297E+02 -0.16998256879E+03  0.17527491380E+03  0.41800000000E+01 0. -1.
         -5    1    3    3    0  502 -0.13723109172E+02  0.27075341267E+02  0.11314264851E+02  0.32663172216E+02  0.41800000000E+01 0. -1.
        -11    1    1    2    0    0  0.64322191678E+02 -0.30545541355E+02 -0.63108082201E+02  0.95147277828E+02  0.00000000000E+00 0.  1.
         11    1    1    2    0    0 -0.15293159407E+02  0.27202901385E+02 -0.21551739447E+02  0.37925664682E+02  0.00000000000E+00 0. -1.
</event>
<event>
 7    1  0.2690635E-009  0.1345746E+03  0.7561462E-02  0.1220822E+00
         -2   -1    0    0    0  501 -0.00000000000E+00  0.00000000000E+00  0.48413464192E+02  0.48413464192E+02  0.00000000000E+00 0.  1.
          2   -1    0    0  501    0  0.00000000000E+00 -0.00000000000E+00 -0.47698068792E+03  0.47698068792E+03  0.00000000000E+00 0. -1.
         25    2    1    2    0    0 -0.92152433930E+02  0.30900857936E+02 -0.15596845071E+03  0.22230834616E+03  0.12509160265E+03 0.  0.
          5    1    3    3  502    0 -0.10862956176E+03  0.56999488630E+02 -0.10028184242E+03  0.15850313470E+03  0.41800000000E+01 0.  1.
         -5    1    3    3    0  502  0.16477127830E+02 -0.26098630693E+02 -0.55686608297E+02  0.63805211458E+02  0.41800000000E+01 0.  1.
        -11    1    1    2    0    0  0.13376298355E+02 -0.33878251480E+02 -0.27550382340E+02  0.45669298748E+02  0.00000000000E+00 0. -1.
         11    1    1    2    0    0  0.78776135576E+02  0.29773935440E+01 -0.24504839067E+03  0.25741650720E+03  0.00000000000E+00 0.  1.
</event>
<event>
 7    1  0.2690635E-009  0.2006320E+03  0.7561462E-02  0.1149207E+00
          2   -1    0    0  501    0  0.00000000000E+00  0.00000000000E+00  0.11235653499E+04  0.11235653499E+04  0.00000000000E+00 0. -1.
         -2   -1    0    0    0  501 -0.00000000000E+00 -0.00000000000E+00 -0.11778073601E+03  0.11778073601E+03  0.00000000000E+00 0.  1.
         25    2    1    2    0    0  0.14391149165E+03  0.13592330267E+03  0.23562840825E+02  0.23534849688E+03  0.12509214955E+03 0.  0.
          5    1    3    3  502    0  0.84421118811E+02  0.91960873585E+02  0.74502588926E+02  0.14543670695E+03  0.41800000000E+01 0.  1.
         -5    1    3    3    0  502  0.59490372839E+02  0.43962429088E+02 -0.50939748102E+02  0.89911789931E+02  0.41800000000E+01 0.  1.
        -11    1    1    2    0    0 -0.95170479432E+02 -0.11487870067E+03  0.85851808316E+03  0.87138271450E+03  0.00000000000E+00 0.  1.
         11    1    1    2    0    0 -0.48741012218E+02 -0.21044602006E+02  0.12370368986E+03  0.13461487448E+03  0.00000000000E+00 0. -1.
</event>
<event>
 7    1  0.2690635E-009  0.1014602E+03  0.7561462E-02  0.1277255E+00
         -2   -1    0    0    0  501 -0.00000000000E+00  0.00000000000E+00  0.28298091337E+02  0.28298091337E+02  0.00000000000E+00 0.  1.
          2   -1    0    0  501    0  0.00000000000E+00 -0.00000000000E+00 -0.61799527441E+03  0.61799527441E+03  0.00000000000E+00 0. -1.
         25    2    1    2    0    0 -0.77553493807E+00 -0.69244883056E+02 -0.39041224659E+03  0.41577225073E+03  0.12509750957E+03 0.  0.
          5    1    3    3  502    0 -0.24855559372E+02 -0.19836614424E+02 -0.33861915197E+03  0.34013481531E+03  0.41800000000E+01 0. -1.
         -5    1    3    3    0  502  0.24080024434E+02 -0.49408268633E+02 -0.51793094621E+02  0.75637435417E+02  0.41800000000E+01 0. -1.
        -11    1    1    2    0    0  0.18633997763E+02  0.87926405334E+02 -0.15944517771E+03  0.18303290229E+03  0.00000000000E+00 0. -1.
         11    1    1    2    0    0 -0.17858462825E+02 -0.18681522278E+02 -0.39839758776E+02  0.47488212731E+02  0.00000000000E+00 0.  1.
</event>
<event>
 7    1  0.5253841E-009  0.1192275E+03  0.7561462E-02  0.1244377E+00
         -2   -1    0    0    0  501 -0.00000000000E+00  0.00000000000E+00  0.49997325545E+02  0.49997325545E+02  0.00000000000E+00 0.  1.
          2   -1    0    0  501    0  0.00000000000E+00 -0.00000000000E+00 -0.38783193701E+03  0.38783193701E+03  0.00000000000E+00 0. -1.
         25    2    1    2    0    0  0.60566234820E+02  0.61347273689E+02 -0.20334391549E+03  0.25382985716E+03  0.12509632940E+03 0.  0.
          5    1    3    3  502    0 -0.35669157773E+02 -0.12237255242E+01 -0.62414554751E+02  0.72019687344E+02  0.41800000000E+01 0.  1.
         -5    1    3    3    0  502  0.96235392593E+02  0.62570999214E+02 -0.14092936074E+03  0.18181016981E+03  0.41800000000E+01 0.  1.
        -11    1    1    2    0    0 -0.39766634800E+02 -0.29074535084E+02 -0.13693566143E+03  0.14552693635E+03  0.00000000000E+00 0. -1.
         11    1    1    2    0    0 -0.20799600020E+02 -0.32272738605E+02  0.24449654538E+01  0.38472469041E+02  0.00000000000E+00 0.  1.
</event>
<event>
 7    1  0.2690635E-009  0.1880231E+03  0.7561462E-02  0.1160257E+00
          2   -1    0    0  501    0  0.00000000000E+00  0.00000000000E+00  0.13257829608E+04  0.13257829608E+04  0.00000000000E+00 0.  1.
         -2   -1    0    0    0  501 -0.00000000000E+00 -0.00000000000E+00 -0.32641466855E+02  0.32641466855E+02  0.00000000000E+00 0. -1.
         25    2    1    2    0    0 -0.13944305883E+03  0.10231033515E+03  0.81923480621E+03  0.84658413394E+03  0.12508899549E+03 0.  0.
          5    1    3    3  502    0  0.67628162817E+01  0.10897344885E+02  0.51677980656E+01  0.14445288036E+02  0.41800000000E+01 0.  1.
         -5    1    3    3    0  502 -0.14620587511E+03  0.91412990266E+02  0.81406700814E+03  0.83213884590E+03  0.41800000000E+01 0.  1.
        -11    1    1    2    0    0  0.61341392356E+02 -0.93017408780E+02  0.23004578937E+03  0.25560921337E+03  0.00000000000E+00 0. -1.
         11    1    1    2    0    0  0.78101666474E+02 -0.92929263716E+01  0.24386089840E+03  0.25623108038E+03  0.00000000000E+00 0.  1.
</event>
<event>
 7    1  0.2690635E-009  0.1703507E+03  0.7561462E-02  0.1177483E+00
         -2   -1    0    0    0  501 -0.00000000000E+00  0.00000000000E+00  0.20103768567E+02  0.20103768567E+02  0.00000000000E+00 0.  1.
          2   -1    0    0  501    0  0.00000000000E+00 -0.00000000000E+00 -0.17115764938E+04  0.17115764938E+04  0.00000000000E+00 0. -1.
         25    2    1    2    0    0  0.48280559092E+02  0.14291732665E+03 -0.96613691702E+03  0.98581108767E+03  0.12508630418E+03 0.  0.
          5    1    3    3  502    0  0.66633815525E+02  0.12062862819E+03 -0.49703435555E+03  0.51580224341E+03  0.41800000000E+01 0.  1.
         -5    1    3    3    0  502 -0.18353256433E+02  0.22288698464E+02 -0.46910256148E+03  0.47000884426E+03  0.41800000000E+01 0.  1.
        -11    1    1    2    0    0  0.10767270150E+01 -0.11864993330E+03 -0.50986086068E+03  0.52348549480E+03  0.00000000000E+00 0. -1.
         11    1    1    2    0    0 -0.49357286107E+02 -0.24267393348E+02 -0.21547494757E+03  0.22238367994E+03  0.00000000000E+00 0.  1.
</event>
<event>
 7    1  0.2690635E-009  0.3872517E+03  0.7561462E-02  0.1048286E+00
          2   -1    0    0  501    0  0.00000000000E+00  0.00000000000E+00  0.12713806607E+04  0.12713806607E+04  0.00000000000E+00 0. -1.
         -2   -1    0    0    0  501 -0.00000000000E+00 -0.00000000000E+00 -0.12378997896E+03  0.12378997896E+03  0.00000000000E+00 0.  1.
         25    2    1    2    0    0  0.35954257245E+03 -0.12191436875E+03  0.52670554861E+03  0.66121388670E+03  0.12510433372E+03 0.  0.
          5    1    3    3  502    0  0.32011774215E+03 -0.72792721660E+02  0.38432477174E+03  0.50546726080E+03  0.41800000000E+01 0. -1.
         -5    1    3    3    0  502  0.39424830297E+02 -0.49121647086E+02  0.14238077687E+03  0.15574662590E+03  0.41800000000E+01 0. -1.
        -11    1    1    2    0    0 -0.19340924715E+03  0.38658652006E+02  0.39461009007E+03  0.44115615313E+03  0.00000000000E+00 0.  1.
         11    1    1    2    0    0 -0.16613332529E+03  0.83255716740E+02  0.22627504304E+03  0.29280059981E+03  0.00000000000E+00 0. -1.
</event>
<event>
 7    1  0.2690635E-009  0.1410369E+03  0.7561462E-02  0.1211941E+00
         -3   -1    0    0    0  501 -0.00000000000E+00  0.00000000000E+00  0.82927382781E+02  0.82927382781E+02  0.00000000000E+00 0.  1.
          3   -1    0    0  501    0  0.00000000000E+00 -0.00000000000E+00 -0.24582142368E+03  0.24582142368E+03  0.00000000000E+00 0. -1.
         25    2    1    2    0    0  0.86136004450E+02  0.28305230586E+02 -0.10930727110E+03  0.18924644970E+03  0.12508214048E+03 0.  0.
          5    1    3    3  502    0  0.11839938947E+03  0.16888349404E+02 -0.79510333656E+02  0.14367671117E+03  0.41800000000E+01 0. -1.
         -5    1    3    3    0  502 -0.32263385024E+02  0.11416881182E+02 -0.29796937444E+02  0.45569738535E+02  0.41800000000E+01 0. -1.
        -11    1    1    2    0    0 -0.10493016936E+02 -0.48508385591E+02 -0.28783691663E+02  0.57373057987E+02  0.00000000000E+00 0.  1.
         11    1    1    2    0    0 -0.75642987514E+02  0.20203155005E+02 -0.24803078140E+02  0.82129298776E+02  0.00000000000E+00 0. -1.
</event>
<event>
 7    1  0.2690635E-009  0.1503952E+03  0.7561462E-02  0.1199988E+00
         -1   -1    0    0    0  501 -0.00000000000E+00  0.00000000000E+00  0.30536671924E+03  0.30536671924E+03  0.00000000000E+00 0.  1.
          1   -1    0    0  501    0  0.00000000000E+00 -0.00000000000E+00 -0.93199260749E+02  0.93199260749E+02  0.00000000000E+00 0. -1.
         25    2    1    2    0    0  0.95479107937E+02 -0.74223731704E+02  0.16458385208E+03  0.23950034372E+03  0.12508856012E+03 0.  0.
          5    1    3    3  502    0 -0.16143540326E+01  0.19383720885E+02  0.74861538129E+02  0.77460035278E+02  0.41800000000E+01 0.  1.
         -5    1    3    3    0  502  0.97093461970E+02 -0.93607452589E+02  0.89722313954E+02  0.16204030844E+03  0.41800000000E+01 0.  1.
        -11    1    1    2    0    0  0.86515828402E+01  0.32754784233E+02  0.30696261297E+02  0.45716367237E+02  0.00000000000E+00 0. -1.
         11    1    1    2    0    0 -0.10413069078E+03  0.41468947472E+02  0.16887345113E+02  0.11334926904E+03  0.00000000000E+00 0.  1.
</event>
<event>
 7    1  0.2690635E-009  0.1217529E+03  0.7561462E-02  0.1240233E+00
          1   -1    0    0  501    0  0.00000000000E+00  0.00000000000E+00  0.39560569508E+02  0.39560569508E+02  0.00000000000E+00 0. -1.
         -1   -1    0    0    0  501 -0.00000000000E+00 -0.00000000000E+00 -0.49832930827E+03  0.49832930827E+03  0.00000000000E+00 0.  1.
         25    2    1    2    0    0 -0.67960498133E+02 -0.21371047254E+02 -0.34896935723E+03  0.37749497950E+03  0.12508995281E+03 0.  0.
          5    1    3    3  502    0 -0.61874922141E+01  0.49222429676E+02 -0.11010161849E+03  0.12083447950E+03  0.41800000000E+01 0. -1.
         -5    1    3    3    0  502 -0.61773005919E+02 -0.70593476931E+02 -0.23886773874E+03  0.25666050000E+03  0.41800000000E+01 0. -1.
        -11    1    1    2    0    0  0.63119970228E+02 -0.13557744189E+02 -0.26219387807E+02  0.69680695792E+02  0.00000000000E+00 0. -1.
         11    1    1    2    0    0  0.48405279051E+01  0.34928791443E+02 -0.83579993719E+02  0.90714202483E+02  0.00000000000E+00 0.  1.
</event>
<event>
 7    1  0.2690635E-009  0.1698910E+03  0.7561462E-02  0.1177962E+00
         -1   -1    0    0    0  501 -0.00000000000E+00  0.00000000000E+00  0.59604894842E+03  0.59604894842E+03  0.00000000000E+00 0.  1.
          1   -1    0    0  501    0  0.00000000000E+00 -0.00000000000E+00 -0.62641867510E+02  0.62641867510E+02  0.00000000000E+00 0. -1.
         25    2    1    2    0    0  0.14648535433E+03 -0.55802838031E+02  0.32931445158E+03  0.38557449036E+03  0.12509102217E+03 0.  0.
          5    1    3    3  502    0  0.95406681977E+02 -0.68757523341E+02  0.11390505720E+03  0.16377382709E+03  0.41800000000E+01 0. -1.
         -5    1    3    3    0  502  0.51078672350E+02  0.12954685310E+02  0.21540939438E+03  0.22180066327E+03  0.41800000000E+01 0. -1.
        -11    1    1    2    0    0 -0.12581632923E+03  0.19287646728E+02  0.10326573278E+03  0.16390721028E+03  0.00000000000E+00 0. -1.
         11    1    1    2    0    0 -0.20669025099E+02  0.36515191303E+02  0.10082689655E+03  0.10920911529E+03  0.00000000000E+00 0.  1.
</event>
<event>
 7    1  0.2690635E-009  0.1162472E+03  0.7561462E-02  0.1249420E+00
         -2   -1    0    0    0  501 -0.00000000000E+00  0.00000000000E+00  0.73356990693E+02  0.73356990693E+02  0.00000000000E+00 0.  1.
          2   -1    0    0  501    0  0.00000000000E+00 -0.00000000000E+00 -0.69125380068E+03  0.69125380068E+03  0.00000000000E+00 0. -1.
         25    2    1    2    0    0  0.64979279931E+02 -0.33247863304E+02 -0.63181584219E+03  0.64820283521E+03  0.12509168593E+03 0.  0.
          5    1    3    3  502    0  0.14085729432E+02 -0.76423344099E+02 -0.35376036614E+03  0.36221927661E+03  0.41800000000E+01 0.  1.
         -5    1    3    3    0  502  0.50893550499E+02  0.43175480795E+02 -0.27805547605E+03  0.28598355859E+03  0.41800000000E+01 0.  1.
        -11    1    1    2    0    0 -0.66314895022E+02  0.13085253393E+02 -0.25393639846E+02  0.72206136184E+02  0.00000000000E+00 0.  1.
         11    1    1    2    0    0  0.13356150906E+01  0.20162609911E+02  0.39312672049E+02  0.44201819983E+02  0.00000000000E+00 0. -1.
</event>
<event>
 7    1  0.2690635E-009  0.8814426E+02  0.7561462E-02  0.1307409E+00
         -2   -1    0    0    0  501 -0.00000000000E+00  0.00000000000E+00  0.32624159757E+02  0.32624159757E+02  0.00000000000E+00 0.  1.
          2   -1    0    0  501    0  0.00000000000E+00 -0.00000000000E+00 -0.38219397219E+03  0.38219397219E+03  0.00000000000E+00 0. -1.
         25    2    1    2    0    0  0.24067764698E+02  0.16270455820E+02 -0.21510751520E+03  0.25052427070E+03  0.12508869687E+03 0.  0.
          5    1    3    3  502    0  0.56209324600E+02 -0.31344849753E+02 -0.74274874686E+02  0.98367764982E+02  0.41800000000E+01 0.  1.
         -5    1    3    3    0  502 -0.32141559903E+02  0.47615305573E+02 -0.14083264052E+03  0.15215650572E+03  0.41800000000E+01 0.  1.
        -11    1    1    2    0    0 -0.14856759824E+00 -0.27689168628E+02 -0.45787963669E+00  0.27693352730E+02  0.00000000000E+00 0.  1.
         11    1    1    2    0    0 -0.23919197099E+02  0.11418712808E+02 -0.13400441760E+03  0.13660050852E+03  0.00000000000E+00 0. -1.
</event>
<event>
 7    1  0.2690635E-009  0.8660741E+02  0.7561462E-02  0.1311282E+00
         -1   -1    0    0    0  501 -0.00000000000E+00  0.00000000000E+00  0.34403694104E+02  0.34403694104E+02  0.00000000000E+00 0.  1.
          1   -1    0    0  501    0  0.00000000000E+00 -0.00000000000E+00 -0.48003158228E+03  0.48003158228E+03  0.00000000000E+00 0. -1.
         25    2    1    2    0    0  0.88759186055E+01 -0.11341825661E+02 -0.38206592523E+03  0.40227947972E+03  0.12508792763E+03 0.  0.
          5    1    3    3  502    0  0.32166130309E+02 -0.56163423254E+02 -0.13132748619E+03  0.14646969338E+03  0.41800000000E+01 0.  1.
         -5    1    3    3    0  502 -0.23290211704E+02  0.44821597593E+02 -0.25073843904E+03  0.25580978634E+03  0.41800000000E+01 0.  1.
        -11    1    1    2    0    0  0.18590729044E+02  0.21468765182E+02  0.12219486750E+02  0.30916645052E+02  0.00000000000E+00 0.  1.
         11    1    1    2    0    0 -0.27466647649E+02 -0.10126939521E+02 -0.75781449693E+02  0.81239151613E+02  0.00000000000E+00 0. -1.
</event>
<event>
 7    1  0.2690635E-009  0.1870990E+03  0.7561462E-02  0.1161104E+00
         -2   -1    0    0    0  501 -0.00000000000E+00  0.00000000000E+00  0.11402958403E+03  0.11402958403E+03  0.00000000000E+00 0. -1.
          2   -1    0    0  501    0  0.00000000000E+00 -0.00000000000E+00 -0.38697186712E+03  0.38697186712E+03  0.00000000000E+00 0.  1.
         25    2    1    2    0    0 -0.11206914355E+03 -0.12453705832E+03 -0.21910542301E+03  0.30286143336E+03  0.12509552188E+03 0.  0.
          5    1    3    3  502    0 -0.73726215664E+02 -0.14095831649E+03 -0.20304019808E+03  0.25796820792E+03  0.41800000000E+01 0.  1.
         -5    1    3    3    0  502 -0.38342927883E+02  0.16421258164E+02 -0.16065224936E+02  0.44893225442E+02  0.41800000000E+01 0.  1.
        -11    1    1    2    0    0  0.82215961416E+02  0.11584592607E+03 -0.74892978051E+02  0.16058860813E+03  0.00000000000E+00 0.  1.
         11    1    1    2    0    0  0.29853182131E+02  0.86911322522E+01  0.21056117978E+02  0.37551409661E+02  0.00000000000E+00 0. -1.
</event>
<event>
 7    1  0.2690635E-009  0.8405749E+02  0.7561462E-02  0.1317916E+00
         -2   -1    0    0    0  501 -0.00000000000E+00  0.00000000000E+00  0.11813284405E+03  0.11813284405E+03  0.00000000000E+00 0.  1.
          2   -1    0    0  501    0  0.00000000000E+00 -0.00000000000E+00 -0.27547335935E+03  0.27547335935E+03  0.00000000000E+00 0. -1.
         25    2    1    2    0    0 -0.62320326205E+02  0.17605848303E+02  0.55621531140E+02  0.15143864764E+03  0.12508445275E+03 0.  0.
          5    1    3    3  502    0 -0.42644473982E+02 -0.57393037117E+00 -0.35951412714E+02  0.55936187155E+02  0.41800000000E+01 0. -1.
         -5    1    3    3    0  502 -0.19675852223E+02  0.18179778674E+02  0.91572943853E+02  0.95502460488E+02  0.41800000000E+01 0. -1.
        -11    1    1    2    0    0  0.15845658449E+02 -0.42549222412E+02 -0.37309450782E+02  0.58766626049E+02  0.00000000000E+00 0.  1.
         11    1    1    2    0    0  0.46474667756E+02  0.24943374109E+02 -0.17565259565E+03  0.18340092970E+03  0.00000000000E+00 0. -1.
</event>
<event>
 7    1  0.2690635E-009  0.1102581E+03  0.7561462E-02  0.1260093E+00
         -1   -1    0    0    0  501 -0.00000000000E+00  0.00000000000E+00  0.53491291009E+02  0.53491291009E+02  0.00000000000E+00 0.  1.
          1   -1    0    0  501    0  0.00000000000E+00 -0.00000000000E+00 -0.33990422446E+03  0.33990422446E+03  0.00000000000E+00 0. -1.
         25    2    1    2    0    0 -0.73882923919E+02  0.30355139599E+02 -0.10951868687E+03  0.18445220592E+03  0.12509257591E+03 0.  0.
          5    1    3    3  502    0 -0.96462448159E+02  0.50345817054E+01 -0.35630993267E+02  0.10304072495E+03  0.41800000000E+01 0. -1.
         -5    1    3    3    0  502  0.22579524240E+02  0.25320557894E+02 -0.73887693604E+02  0.81411480966E+02  0.41800000000E+01 0. -1.
        -11    1    1    2    0    0  0.10044051160E+01 -0.15173480246E+02  0.18479744458E+01  0.15318562007E+02  0.00000000000E+00 0.  1.
         11    1    1    2    0    0  0.72878518803E+02 -0.15181659353E+02 -0.17874222102E+03  0.19362474754E+03  0.00000000000E+00 0. -1.
</event>
<event>
 7    1  0.2690635E-009  0.1170551E+03  0.7561462E-02  0.1248036E+00
         -2   -1    0    0    0  501 -0.00000000000E+00  0.00000000000E+00  0.82416122164E+01  0.82416122164E+01  0.00000000000E+00 0.  1.
          2   -1    0    0  501    0  0.00000000000E+00 -0.00000000000E+00 -0.20346283963E+04  0.20346283963E+04  0.00000000000E+00 0. -1.
         25    2    1    2    0    0 -0.50146303315E+02 -0.96440728227E+00 -0.15576608366E+04  0.15634810753E+04  0.12510079548E+03 0.  0.
          5    1    3    3  502    0 -0.41870254565E+02 -0.60450631212E+02 -0.94685947395E+03  0.94971981807E+03  0.41800000000E+01 0. -1.
         -5    1    3    3    0  502 -0.82760487493E+01  0.59486223930E+02 -0.61080136268E+03  0.61376125723E+03  0.41800000000E+01 0. -1.
        -11    1    1    2    0    0  0.60456020575E+02 -0.30090542593E+02 -0.33247633064E+03  0.33926520838E+03  0.00000000000E+00 0. -1.
         11    1    1    2    0    0 -0.10309717261E+02  0.31054949875E+02 -0.13624961677E+03  0.14012372480E+03  0.00000000000E+00 0.  1.
</event>
<event>
 7    1  0.2690635E-009  0.1147628E+03  0.7561462E-02  0.1251996E+00
         -2   -1    0    0    0  501 -0.00000000000E+00  0.00000000000E+00  0.13455512251E+03  0.13455512251E+03  0.00000000000E+00 0.  1.
          2   -1    0    0  501    0  0.00000000000E+00 -0.00000000000E+00 -0.11334356369E+03  0.11334356369E+03  0.00000000000E+00 0. -1.
         25    2    1    2    0    0 -0.57901686537E+02  0.22751490299E+01  0.14477385101E+02  0.13861610788E+03  0.12508816522E+03 0.  0.
          5    1    3    3  502    0  0.77957990046E+01 -0.51866345810E+02  0.62595061994E+01  0.52986282448E+02  0.41800000000E+01 0.  1.
         -5    1    3    3    0  502 -0.65697485541E+02  0.54141494840E+02  0.82178789016E+01  0.85629825433E+02  0.41800000000E+01 0.  1.
        -11    1    1    2    0    0  0.33101020963E+02  0.34182178283E+02 -0.26133835624E+02  0.54286980625E+02  0.00000000000E+00 0. -1.
         11    1    1    2    0    0  0.24800665574E+02 -0.36457327313E+02  0.32868009348E+02  0.54995597698E+02  0.00000000000E+00 0.  1.
</event>
<event>
 7    1  0.2690635E-009  0.1882522E+03  0.7561462E-02  0.1160047E+00
         -2   -1    0    0    0  501 -0.00000000000E+00  0.00000000000E+00  0.31776725294E+03  0.31776725294E+03  0.00000000000E+00 0.  1.
          2   -1    0    0  501    0  0.00000000000E+00 -0.00000000000E+00 -0.14363368159E+03  0.14363368159E+03  0.00000000000E+00 0. -1.
         25    2    1    2    0    0  0.11891094496E+03 -0.13524018985E+03  0.11875429716E+03  0.24935863325E+03  0.12508966026E+03 0.  0.
          5    1    3    3  502    0  0.12692784097E+03 -0.13655910442E+03  0.13534175696E+03  0.23042119996E+03  0.41800000000E+01 0. -1.
         -5    1    3    3    0  502 -0.80168960105E+01  0.13189145692E+01 -0.16587459800E+02  0.18937433298E+02  0.41800000000E+01 0. -1.
        -11    1    1    2    0    0 -0.53010063061E+02  0.47712778984E+02 -0.25627575875E+02  0.75784884438E+02  0.00000000000E+00 0. -1.
         11    1    1    2    0    0 -0.65900881899E+02  0.87527410865E+02  0.81006850063E+02  0.13625741684E+03  0.00000000000E+00 0.  1.
</event>
<event>
 7    1  0.2690635E-009  0.1350210E+03  0.7561462E-02  0.1220190E+00
         -1   -1    0    0    0  501 -0.00000000000E+00  0.00000000000E+00  0.10837503751E+04  0.10837503751E+04  0.00000000000E+00 0.  1.
          1   -1    0    0  501    0  0.00000000000E+00 -0.00000000000E+00 -0.18107350635E+02  0.18107350635E+02  0.00000000000E+00 0. -1.
         25    2    1    2    0    0 -0.86307644497E+02 -0.25662321629E+02  0.57135747285E+03  0.59178049077E+03  0.12508886129E+03 0.  0.
          5    1    3    3  502    0 -0.90862180668E+02  0.24512577855E+02  0.45909364379E+03  0.46865898958E+03  0.41800000000E+01 0. -1.
         -5    1    3    3    0  502  0.45545361711E+01 -0.50174899484E+02  0.11226382906E+03  0.12312150118E+03  0.41800000000E+01 0. -1.
        -11    1    1    2    0    0 -0.23804928098E+01  0.35925547850E+02  0.16666650562E+03  0.17051110178E+03  0.00000000000E+00 0.  1.
         11    1    1    2    0    0  0.88688137306E+02 -0.10263226221E+02  0.32761904599E+03  0.33956613318E+03  0.00000000000E+00 0. -1.
</event>
<event>
 7    1  0.2690635E-009  0.1064455E+03  0.7561462E-02  0.1267297E+00
          3   -1    0    0  501    0  0.00000000000E+00  0.00000000000E+00  0.16344615840E+02  0.16344615840E+02  0.00000000000E+00 0. -1.
         -3   -1    0    0    0  501 -0.00000000000E+00 -0.00000000000E+00 -0.11538999844E+04  0.11538999844E+04  0.00000000000E+00 0.  1.
         25    2    1    2    0    0 -0.57725976171E+02 -0.42852783626E+01 -0.78782810858E+03  0.79979431240E+03  0.12508861477E+03 0.  0.
          5    1    3    3  502    0  0.17105777853E+01  0.30343432169E+02 -0.49353320404E+02  0.58110864621E+02  0.41800000000E+01 0.  1.
         -5    1    3    3    0  502 -0.59436553956E+02 -0.34628710532E+02 -0.73847478818E+03  0.74168344778E+03  0.41800000000E+01 0.  1.
        -11    1    1    2    0    0  0.37503420982E+02 -0.45851942180E+02 -0.25094892564E+03  0.25784543910E+03  0.00000000000E+00 0.  1.
         11    1    1    2    0    0  0.20222555189E+02  0.50137220543E+02 -0.98778334292E+02  0.11260484869E+03  0.00000000000E+00 0. -1.
</event>
<event>
 7    1  0.2690635E-009  0.1129337E+03  0.7561462E-02  0.1255232E+00
          2   -1    0    0  501    0  0.00000000000E+00  0.00000000000E+00  0.22142657687E+03  0.22142657687E+03  0.00000000000E+00 0. -1.
         -2   -1    0    0    0  501 -0.00000000000E+00 -0.00000000000E+00 -0.64476568976E+02  0.64476568976E+02  0.00000000000E+00 0.  1.
         25    2    1    2    0    0 -0.40311567250E+02 -0.29118296360E+01  0.55383991632E+02  0.14265431395E+03  0.12509742425E+03 0.  0.
          5    1    3    3  502    0 -0.62821305739E+02  0.44849933734E+02  0.42210411084E+02  0.88075105533E+02  0.41800000000E+01 0.  1.
         -5    1    3    3    0  502  0.22509738489E+02 -0.47761763370E+02  0.13173580548E+02  0.54579208418E+02  0.41800000000E+01 0.  1.
        -11    1    1    2    0    0  0.57560032976E+02 -0.25027638281E+02  0.42922044005E+02  0.76038424074E+02  0.00000000000E+00 0.  1.
         11    1    1    2    0    0 -0.17248465726E+02  0.27939467918E+02  0.58643972260E+02  0.67210407824E+02  0.00000000000E+00 0. -1.
</event>
<event>
 7    1  0.2690635E-009  0.2824678E+03  0.7561462E-02  0.1094349E+00
         -2   -1    0    0    0  501 -0.00000000000E+00  0.00000000000E+00  0.13877109332E+03  0.13877109332E+03  0.00000000000E+00 0.  1.
          2   -1    0    0  501    0  0.00000000000E+00 -0.00000000000E+00 -0.10154427200E+04  0.10154427200E+04  0.00000000000E+00 0. -1.
         25    2    1    2    0    0  0.11760913051E+03  0.25482486734E+03 -0.78841842967E+03  0.84617729063E+03  0.12507904034E+03 0.  0.
          5    1    3    3  502    0  0.65412127051E+02  0.14399953895E+03 -0.60665139391E+03  0.62694337840E+03  0.41800000000E+01 0.  1.
         -5    1    3    3    0  502  0.52197003456E+02  0.11082532838E+03 -0.18176703576E+03  0.21923391223E+03  0.41800000000E+01 0.  1.
        -11    1    1    2    0    0 -0.75940692028E+02 -0.11162547719E+03 -0.83659037964E+02  0.15882717178E+03  0.00000000000E+00 0. -1.
         11    1    1    2    0    0 -0.41668438479E+02 -0.14319939015E+03 -0.45941590514E+01  0.14920935092E+03  0.00000000000E+00 0.  1.
</event>
<event>
 7    1  0.2690635E-009  0.2038101E+03  0.7561462E-02  0.1146564E+00
          2   -1    0    0  501    0  0.00000000000E+00  0.00000000000E+00  0.18548479800E+03  0.18548479800E+03  0.00000000000E+00 0. -1.
         -2   -1    0    0    0  501 -0.00000000000E+00 -0.00000000000E+00 -0.26734788898E+03  0.26734788898E+03  0.00000000000E+00 0.  1.
         25    2    1    2    0    0 -0.16933589125E+03 -0.73660197178E+02 -0.10865842211E+03  0.24810095027E+03  0.12508780963E+03 0.  0.
          5    1    3    3  502    0 -0.14035629671E+03 -0.95862506479E+02 -0.47124426134E+02  0.17643042287E+03  0.41800000000E+01 0. -1.
         -5    1    3    3    0  502 -0.28979594534E+02  0.22202309301E+02 -0.61533995974E+02  0.71670527403E+02  0.41800000000E+01 0. -1.
        -11    1    1    2    0    0  0.70243495039E+02 -0.10275164750E+02 -0.45582207038E+01  0.71137226414E+02  0.00000000000E+00 0. -1.
         11    1    1    2    0    0  0.99092396210E+02  0.83935361928E+02  0.31353551836E+02  0.13359451030E+03  0.00000000000E+00 0.  1.
</event>
<event>
 7    1  0.2690635E-009  0.5616933E+02  0.7561462E-02  0.1414649E+00
          2   -1    0    0  501    0  0.00000000000E+00  0.00000000000E+00  0.88264528892E+03  0.88264528892E+03  0.00000000000E+00 0. -1.
         -2   -1    0    0    0  501 -0.00000000000E+00 -0.00000000000E+00 -0.13965606808E+02  0.13965606808E+02  0.00000000000E+00 0.  1.
         25    2    1    2    0    0  0.10466991456E+02 -0.20810479129E+02  0.55199195120E+03  0.56646910569E+03  0.12509795986E+03 0.  0.
          5    1    3    3  502    0  0.16979789943E+01 -0.30657156495E+01  0.54505603172E+03  0.54508332561E+03  0.41800000000E+01 0. -1.
         -5    1    3    3    0  502  0.87690124617E+01 -0.17744763480E+02  0.69359194767E+01  0.21385780077E+02  0.41800000000E+01 0. -1.
        -11    1    1    2    0    0  0.41240424064E+01 -0.31795644592E+02  0.18214296885E+03  0.18494332062E+03  0.00000000000E+00 0. -1.
         11    1    1    2    0    0 -0.14591033862E+02  0.52606123721E+02  0.13454476206E+03  0.14519846941E+03  0.00000000000E+00 0.  1.
</event>
<event>
 7    1  0.2690635E-009  0.2642079E+03  0.7561462E-02  0.1104641E+00
          2   -1    0    0  501    0  0.00000000000E+00  0.00000000000E+00  0.15504606238E+03  0.15504606238E+03  0.00000000000E+00 0. -1.
         -2   -1    0    0    0  501 -0.00000000000E+00 -0.00000000000E+00 -0.47703065999E+03  0.47703065999E+03  0.00000000000E+00 0.  1.
         25    2    1    2    0    0 -0.61371039765E+02  0.24129950281E+03 -0.17255574915E+03  0.32774267531E+03  0.12509164671E+03 0.  0.
          5    1    3    3  502    0  0.34180535758E+02  0.92064068013E+02 -0.38751576547E+02  0.10565632366E+03  0.41800000000E+01 0.  1.
         -5    1    3    3    0  502 -0.95551575523E+02  0.14923543480E+03 -0.13380417260E+03  0.22208635165E+03  0.41800000000E+01 0.  1.
        -11    1    1    2    0    0  0.68456530658E+02 -0.21529215756E+03 -0.15841444651E+03  0.27592054393E+03  0.00000000000E+00 0.  1.
         11    1    1    2    0    0 -0.70854908932E+01 -0.26007345248E+02  0.89855980556E+01  0.28413503136E+02  0.00000000000E+00 0. -1.
</event>
<event>
 7    1  0.2690635E-009  0.9567476E+02  0.7561462E-02  0.1289664E+00
          1   -1    0    0  501    0  0.00000000000E+00  0.00000000000E+00  0.16316021448E+03  0.16316021448E+03  0.00000000000E+00 0. -1.
         -1   -1    0    0    0  501 -0.00000000000E+00 -0.00000000000E+00 -0.92788500899E+02  0.92788500899E+02  0.00000000000E+00 0.  1.
         25    2    1    2    0    0 -0.38196515878E+02  0.55704527010E+01 -0.61894878144E+01  0.13105733872E+03  0.12509081703E+03 0.  0.
          5    1    3    3  502    0  0.23423182296E+02  0.17974183166E+02 -0.47242648556E+02  0.55866420791E+02  0.41800000000E+01 0. -1.
         -5    1    3    3    0  502 -0.61619698175E+02 -0.12403730465E+02  0.41053160742E+02  0.75190917932E+02  0.41800000000E+01 0. -1.
        -11    1    1    2    0    0  0.35686511994E+02 -0.45892983523E+02  0.48383390601E+02  0.75634949336E+02  0.00000000000E+00 0.  1.
         11    1    1    2    0    0  0.25100038849E+01  0.40322530822E+02  0.28177810798E+02  0.49256427325E+02  0.00000000000E+00 0. -1.
</event>
<event>
 7    1  0.2690635E-009  0.2096731E+03  0.7561462E-02  0.1141825E+00
         -1   -1    0    0    0  501 -0.00000000000E+00  0.00000000000E+00  0.60623227311E+03  0.60623227311E+03  0.00000000000E+00 0.  1.
          1   -1    0    0  501    0  0.00000000000E+00 -0.00000000000E+00 -0.14297975504E+03  0.14297975504E+03  0.00000000000E+00 0. -1.
         25    2    1    2    0    0 -0.20093083298E+03 -0.13349398240E+02  0.47225193217E+03  0.52841402755E+03  0.12509232990E+03 0.  0.
          5    1    3    3  502    0 -0.13383577223E+03 -0.42438783688E+02  0.18683324019E+03  0.23374600816E+03  0.41800000000E+01 0. -1.
         -5    1    3    3    0  502 -0.67095060750E+02  0.29089385448E+02  0.28541869197E+03  0.29466801939E+03  0.41800000000E+01 0. -1.
        -11    1    1    2    0    0  0.16978709773E+03 -0.42868515558E+01  0.24713261427E+02  0.17162977872E+03  0.00000000000E+00 0.  1.
         11    1    1    2    0    0  0.31143735252E+02  0.17636249796E+02 -0.33712675530E+02  0.49168221889E+02  0.00000000000E+00 0. -1.
</event>
<event>
 7    1  0.2690635E-009  0.7755338E+02  0.7561462E-02  0.1336142E+00
          1   -1    0    0  501    0  0.00000000000E+00  0.00000000000E+00  0.10062477498E+03  0.10062477498E+03  0.00000000000E+00 0. -1.
         -1   -1    0    0    0  501 -0.00000000000E+00 -0.00000000000E+00 -0.14892916930E+03  0.14892916930E+03  0.00000000000E+00 0.  1.
         25    2    1    2    0    0 -0.16951944430E+02 -0.35760489079E+02 -0.66880001973E+02  0.14726624214E+03  0.12509288713E+03 0.  0.
          5    1    3    3  502    0  0.31155524312E+02 -0.82383045613E+01 -0.83214454305E+02  0.89334507121E+02  0.41800000000E+01 0. -1.
         -5    1    3    3    0  502 -0.48107468742E+02 -0.27522184517E+02  0.16334452332E+02  0.57931735020E+02  0.41800000000E+01 0. -1.
        -11    1    1    2    0    0  0.36754868650E+02  0.25422189890E+02 -0.26516976099E+02  0.51964970218E+02  0.00000000000E+00 0.  1.
         11    1    1    2    0    0 -0.19802924220E+02  0.10338299188E+02  0.45092583758E+02  0.50322731919E+02  0.00000000000E+00 0. -1.
</event>
<event>
 7    1  0.2690635E-009  0.7504285E+02  0.7561462E-02  0.1343738E+00
          3   -1    0    0  501    0  0.00000000000E+00  0.00000000000E+00  0.10257100712E+03  0.10257100712E+03  0.00000000000E+00 0. -1.
         -3   -1    0    0    0  501 -0.00000000000E+00 -0.00000000000E+00 -0.12973102240E+03  0.12973102240E+03  0.00000000000E+00 0.  1.
         25    2    1    2    0    0 -0.16844581555E+02 -0.90425282062E+01  0.20753974665E+02  0.12824451248E+03  0.12510163976E+03 0.  0.
          5    1    3    3  502    0 -0.37476716258E+02 -0.23617727314E+02 -0.41553776094E+02  0.60880949505E+02  0.41800000000E+01 0. -1.
         -5    1    3    3    0  502  0.20632134703E+02  0.14575199108E+02  0.62307750759E+02  0.67363562970E+02  0.41800000000E+01 0. -1.
        -11    1    1    2    0    0  0.40969730348E+02 -0.17116159513E+02 -0.33361798181E-01  0.44401383247E+02  0.00000000000E+00 0.  1.
         11    1    1    2    0    0 -0.24125148793E+02  0.26158687719E+02 -0.47880628144E+02  0.59656133792E+02  0.00000000000E+00 0. -1.
</event>
<event>
 7    1  0.2690635E-009  0.1150551E+03  0.7561462E-02  0.1251485E+00
          2   -1    0    0  501    0  0.00000000000E+00  0.00000000000E+00  0.18028301805E+03  0.18028301805E+03  0.00000000000E+00 0. -1.
         -2   -1    0    0    0  501 -0.00000000000E+00 -0.00000000000E+00 -0.73807139114E+02  0.73807139114E+02  0.00000000000E+00 0.  1.
         25    2    1    2    0    0  0.13668251236E+02  0.40187439306E+02  0.59238384545E+02  0.14476885380E+03  0.12508790292E+03 0.  0.
          5    1    3    3  502    0  0.42939758564E+02  0.74790377863E+02  0.34636669251E+02  0.93030074402E+02  0.41800000000E+01 0. -1.
         -5    1    3    3    0  502 -0.29271507327E+02 -0.34602938557E+02  0.24601715294E+02  0.51738779396E+02  0.41800000000E+01 0. -1.
        -11    1    1    2    0    0  0.29301019684E+02 -0.46359268858E+02  0.21870841906E+02  0.59042910576E+02  0.00000000000E+00 0.  1.
         11    1    1    2    0    0 -0.42969270921E+02  0.61718295517E+01  0.25366652486E+02  0.50278392793E+02  0.00000000000E+00 0. -1.
</event>
<event>
 7    1  0.2690635E-009  0.1353714E+03  0.7561462E-02  0.1219696E+00
         -1   -1    0    0    0  501 -0.00000000000E+00  0.00000000000E+00  0.37958914355E+03  0.37958914355E+03  0.00000000000E+00 0.  1.
          1   -1    0    0  501    0  0.00000000000E+00 -0.00000000000E+00 -0.62483275653E+02  0.62483275653E+02  0.00000000000E+00 0. -1.
         25    2    1    2    0    0 -0.42950523973E+01  0.84712810921E+02  0.71251390255E+02  0.16708781087E+03  0.12508744190E+03 0.  0.
          5    1    3    3  502    0  0.72230718653E+01 -0.31308407311E+02  0.27463093102E+02  0.42474498447E+02  0.41800000000E+01 0.  1.
         -5    1    3    3    0  502 -0.11518124263E+02  0.11602121823E+03  0.43788297152E+02  0.12461331243E+03  0.41800000000E+01 0.  1.
        -11    1    1    2    0    0 -0.39039981990E+02 -0.20194327330E+02  0.11021318109E+03  0.11865444086E+03  0.00000000000E+00 0.  1.
         11    1    1    2    0    0  0.43335034387E+02 -0.64518483591E+02  0.13564129655E+03  0.15633016747E+03  0.00000000000E+00 0. -1.
</event>
<event>
 7    1  0.2690635E-009  0.8762520E+02  0.7561462E-02  0.1308707E+00
          2   -1    0    0  501    0  0.00000000000E+00  0.00000000000E+00  0.12611335426E+03  0.12611335426E+03  0.00000000000E+00 0.  1.
         -2   -1    0    0    0  501 -0.00000000000E+00 -0.00000000000E+00 -0.68784147240E+02  0.68784147240E+02  0.00000000000E+00 0. -1.
         25    2    1    2    0    0  0.53914284659E+00 -0.18555843510E+02  0.50069571313E+02  0.13601240390E+03  0.12509117491E+03 0.  0.
          5    1    3    3  502    0  0.48990322377E+02 -0.40272641446E+02  0.52880240834E+02  0.82678471238E+02  0.41800000000E+01 0. -1.
         -5    1    3    3    0  502 -0.48451179530E+02  0.21716797936E+02 -0.28106695205E+01  0.53333932666E+02  0.41800000000E+01 0. -1.
        -11    1    1    2    0    0  0.25292828405E+02 -0.20708205517E+01  0.29332490091E+01  0.25546416896E+02  0.00000000000E+00 0.  1.
         11    1    1    2    0    0 -0.25831971251E+02  0.20626664062E+02  0.43263866993E+01  0.33338680702E+02  0.00000000000E+00 0. -1.
</event>
<event>
 7    1  0.2690635E-009  0.1904127E+03  0.7561462E-02  0.1158090E+00
         -2   -1    0    0    0  501 -0.00000000000E+00  0.00000000000E+00  0.31340901711E+03  0.31340901711E+03  0.00000000000E+00 0.  1.
          2   -1    0    0  501    0  0.00000000000E+00 -0.00000000000E+00 -0.15013173197E+03  0.15013173197E+03  0.00000000000E+00 0. -1.
         25    2    1    2    0    0 -0.16949313834E+03  0.71267530227E+02  0.44510150785E+02  0.22679786256E+03  0.12509649126E+03 0.  0.
          5    1    3    3  502    0 -0.13848949247E+03  0.57835954894E+02 -0.22325840475E+02  0.15179016028E+03  0.41800000000E+01 0. -1.
         -5    1    3    3    0  502 -0.31003645871E+02  0.13431575333E+02  0.66835991261E+02  0.75007702278E+02  0.41800000000E+01 0. -1.
        -11    1    1    2    0    0  0.99629753526E+02 -0.77891108211E+02  0.43255953197E+02  0.13365698640E+03  0.00000000000E+00 0.  1.
         11    1    1    2    0    0  0.69863384819E+02  0.66235779833E+01  0.75511181166E+02  0.10308590013E+03  0.00000000000E+00 0. -1.
</event>
<event>
 7    1  0.2690635E-009  0.1827620E+03  0.7561462E-02  0.1165156E+00
          4   -1    0    0  501    0  0.00000000000E+00  0.00000000000E+00  0.24410649796E+03  0.24410649796E+03  0.00000000000E+00 0. -1.
         -4   -1    0    0    0  501 -0.00000000000E+00 -0.00000000000E+00 -0.20365186679E+03  0.20365186679E+03  0.00000000000E+00 0.  1.
         25    2    1    2    0    0  0.10849228134E+03 -0.11376218909E+03  0.12840583833E+03  0.23841762313E+03  0.12506995213E+03 0.  0.
          5    1    3    3  502    0  0.92508631120E+02 -0.14809102823E+02  0.92881534375E+02  0.13199093979E+03  0.41800000000E+01 0. -1.
         -5    1    3    3    0  502  0.15983650223E+02 -0.98953086271E+02  0.35524303953E+02  0.10642668335E+03  0.41800000000E+01 0. -1.
        -11    1    1    2    0    0 -0.40953436278E+02  0.91602210836E+02 -0.55160174210E+01  0.10049166842E+03  0.00000000000E+00 0.  1.
         11    1    1    2    0    0 -0.67538845066E+02  0.22159978258E+02 -0.82435189736E+02  0.10884907320E+03  0.00000000000E+00 0. -1.
</event>
<event>
 7    1  0.2690635E-009  0.1397379E+03  0.7561462E-02  0.1213682E+00
         -1   -1    0    0    0  501 -0.00000000000E+00  0.00000000000E+00  0.14081103549E+03  0.14081103549E+03  0.00000000000E+00 0. -1.
          1   -1    0    0  501    0  0.00000000000E+00 -0.00000000000E+00 -0.18187814919E+03  0.18187814919E+03  0.00000000000E+00 0.  1.
         25    2    1    2    0    0 -0.99716049015E+02  0.48360510538E+02 -0.60605787110E+02  0.17777246553E+03  0.12509180092E+03 0.  0.
          5    1    3    3  502    0 -0.16087958784E+02 -0.28007406329E+02  0.20436054852E+02  0.38449212801E+02  0.41800000000E+01 0. -1.
         -5    1    3    3    0  502 -0.83628090231E+02  0.76367916866E+02 -0.81041841962E+02  0.13932325273E+03  0.41800000000E+01 0. -1.
        -11    1    1    2    0    0  0.10751509151E+03 -0.27019889813E+02 -0.56402843824E+01  0.11100172141E+03  0.00000000000E+00 0.  1.
         11    1    1    2    0    0 -0.77990424914E+01 -0.21340620725E+02  0.25178957796E+02  0.33914997751E+02  0.00000000000E+00 0. -1.
</event>
<event>
 7    1  0.2690635E-009  0.1416617E+03  0.7561462E-02  0.1211110E+00
         -1   -1    0    0    0  501 -0.00000000000E+00  0.00000000000E+00  0.96048240262E+02  0.96048240262E+02  0.00000000000E+00 0.  1.
          1   -1    0    0  501    0  0.00000000000E+00 -0.00000000000E+00 -0.34760958862E+03  0.34760958862E+03  0.00000000000E+00 0. -1.
         25    2    1    2    0    0  0.53935353052E+02 -0.11196376756E+03 -0.39410113998E+02  0.18068426032E+03  0.12509491312E+03 0.  0.
          5    1    3    3  502    0  0.19242440023E+01 -0.43323324911E+02  0.43143327693E+02  0.61314209778E+02  0.41800000000E+01 0.  1.
         -5    1    3    3    0  502  0.52011109050E+02 -0.68640442652E+02 -0.82553441691E+02  0.11937005054E+03  0.41800000000E+01 0.  1.
        -11    1    1    2    0    0  0.24891074761E+02  0.17119605344E+02 -0.27043181441E+02  0.40546025111E+02  0.00000000000E+00 0.  1.
         11    1    1    2    0    0 -0.78826427813E+02  0.94844162219E+02 -0.18510805292E+03  0.22242754345E+03  0.00000000000E+00 0. -1.
</event>
<event>
 7    1  0.2690635E-009  0.1258942E+03  0.7561462E-02  0.1233678E+00
         -4   -1    0    0    0  501 -0.00000000000E+00  0.00000000000E+00  0.73446978022E+03  0.73446978022E+03  0.00000000000E+00 0.  1.
          4   -1    0    0  501    0  0.00000000000E+00 -0.00000000000E+00 -0.26633525482E+02  0.26633525482E+02  0.00000000000E+00 0. -1.
         25    2    1    2    0    0 -0.95703486962E+01 -0.70888589989E+02  0.24824440011E+03  0.28703508043E+03  0.12508825461E+03 0.  0.
          5    1    3    3  502    0 -0.37537472220E+02 -0.94090544407E+02  0.21456362870E+03  0.23731227429E+03  0.41800000000E+01 0.  1.
         -5    1    3    3    0  502  0.27967123524E+02  0.23201954418E+02  0.33680771414E+02  0.49722806136E+02  0.41800000000E+01 0.  1.
        -11    1    1    2    0    0 -0.38858677354E+02  0.42917993540E+02  0.18534375674E+03  0.19417584592E+03  0.00000000000E+00 0. -1.
         11    1    1    2    0    0  0.48429026050E+02  0.27970596448E+02  0.27424809788E+03  0.27989237936E+03  0.00000000000E+00 0.  1.
</event>
<event>
 7    1  0.2690635E-009  0.1389143E+03  0.7561462E-02  0.1214797E+00
         -1   -1    0    0    0  501 -0.00000000000E+00  0.00000000000E+00  0.36640436323E+03  0.36640436323E+03  0.00000000000E+00 0.  1.
          1   -1    0    0  501    0  0.00000000000E+00 -0.00000000000E+00 -0.55305487992E+02  0.55305487992E+02  0.00000000000E+00 0. -1.
         25    2    1    2    0    0  0.80067239973E+02  0.38610357451E+02  0.12690829292E+03  0.19912818389E+03  0.12507915969E+03 0.  0.
          5    1    3    3  502    0  0.83315824642E+02 -0.26542792346E+02  0.64343284582E+02  0.10864426875E+03  0.41800000000E+01 0. -1.
         -5    1    3    3    0  502 -0.32485846684E+01  0.65153149797E+02  0.62565008341E+02  0.90483915143E+02  0.41800000000E+01 0. -1.
        -11    1    1    2    0    0 -0.64766075678E+01  0.26120094495E+02  0.37224580906E+02  0.45933377904E+02  0.00000000000E+00 0.  1.
         11    1    1    2    0    0 -0.73590632405E+02 -0.64730451947E+02  0.14696600141E+03  0.17664828943E+03  0.00000000000E+00 0. -1.
</event>
<event>
 7    1  0.2690635E-009  0.1042741E+03  0.7561462E-02  0.1271557E+00
          1   -1    0    0  501    0  0.00000000000E+00  0.00000000000E+00  0.69108363965E+02  0.69108363965E+02  0.00000000000E+00 0. -1.
         -1   -1    0    0    0  501 -0.00000000000E+00 -0.00000000000E+00 -0.20252186602E+03  0.20252186602E+03  0.00000000000E+00 0.  1.
         25    2    1    2    0    0 -0.45872485263E+02  0.12149224460E+02 -0.79708075200E+02  0.15572888782E+03  0.12508485397E+03 0.  0.
          5    1    3    3  502    0  0.38553218054E+02 -0.19156186595E+02 -0.20353117477E+02  0.47802007261E+02  0.41800000000E+01 0.  1.
         -5    1    3    3    0  502 -0.84425703317E+02  0.31305411054E+02 -0.59354957722E+02  0.10792688056E+03  0.41800000000E+01 0.  1.
        -11    1    1    2    0    0  0.43504190279E+02  0.16411602423E+02  0.86323605048E+01  0.47291361936E+02  0.00000000000E+00 0. -1.
         11    1    1    2    0    0  0.23682949846E+01 -0.28560826883E+02 -0.62337787362E+02  0.68609980225E+02  0.00000000000E+00 0.  1.
</event>
<event>
 7    1  0.2690635E-009  0.9853063E+02  0.7561462E-02  0.1283417E+00
          2   -1    0    0  501    0  0.00000000000E+00  0.00000000000E+00  0.87509381620E+03  0.87509381620E+03  0.00000000000E+00 0. -1.
         -2   -1    0    0    0  501 -0.00000000000E+00 -0.00000000000E+00 -0.19260884006E+02  0.19260884006E+02  0.00000000000E+00 0.  1.
         25    2    1    2    0    0  0.18552186415E+02 -0.59870812985E+02  0.61306622700E+03  0.62882995573E+03  0.12509283220E+03 0.  0.
          5    1    3    3  502    0  0.25205816857E+02  0.24288955472E+02  0.36622307299E+03  0.36791588462E+03  0.41800000000E+01 0.  1.
         -5    1    3    3    0  502 -0.66536304414E+01 -0.84159768457E+02  0.24684315401E+03  0.26091407112E+03  0.41800000000E+01 0.  1.
        -11    1    1    2    0    0 -0.32807696561E+02  0.50506280780E+02  0.24096059559E+03  0.24837318289E+03  0.00000000000E+00 0. -1.
         11    1    1    2    0    0  0.14255510145E+02  0.93645322055E+01  0.18061096059E+01  0.17151561586E+02  0.00000000000E+00 0.  1.
</event>
<event>
 7    1  0.2690635E-009  0.1024450E+03  0.7561462E-02  0.1275237E+00
         -2   -1    0    0    0  501 -0.00000000000E+00  0.00000000000E+00  0.16463887905E+03  0.16463887905E+03  0.00000000000E+00 0.  1.
          2   -1    0    0  501    0  0.00000000000E+00 -0.00000000000E+00 -0.78295578950E+02  0.78295578950E+02  0.00000000000E+00 0. -1.
         25    2    1    2    0    0 -0.45399955653E+01 -0.31966807363E+02  0.52544517025E+02  0.13946413584E+03  0.12508729186E+03 0.  0.
          5    1    3    3  502    0  0.62992586972E+01  0.45400997933E+02  0.38441670505E+02  0.59968039026E+02  0.41800000000E+01 0.  1.
         -5    1    3    3    0  502 -0.10839254263E+02 -0.77367805296E+02  0.14102846521E+02  0.79496096818E+02  0.41800000000E+01 0.  1.
        -11    1    1    2    0    0 -0.29236821113E+02 -0.59637981495E+01 -0.14682936163E+02  0.33255784633E+02  0.00000000000E+00 0. -1.
         11    1    1    2    0    0  0.33776816678E+02  0.37930605512E+02  0.48481719239E+02  0.70214537525E+02  0.00000000000E+00 0.  1.
</event>
<event>
 7    1  0.2690635E-009  0.1224968E+03  0.7561462E-02  0.1239034E+00
          2   -1    0    0  501    0  0.00000000000E+00  0.00000000000E+00  0.14256588028E+04  0.14256588028E+04  0.00000000000E+00 0. -1.
         -2   -1    0    0    0  501 -0.00000000000E+00 -0.00000000000E+00 -0.15305475375E+02  0.15305475375E+02  0.00000000000E+00 0.  1.
         25    2    1    2    0    0  0.97994483467E+01 -0.65827141597E+02  0.11493825671E+04  0.11580832088E+04  0.12508873301E+03 0.  0.
          5    1    3    3  502    0  0.61263532711E+02 -0.65873521790E+02  0.73358634698E+03  0.73909332441E+03  0.41800000000E+01 0. -1.
         -5    1    3    3    0  502 -0.51464084364E+02  0.46380193615E-01  0.41579622013E+03  0.41898988437E+03  0.41800000000E+01 0. -1.
        -11    1    1    2    0    0 -0.36449519214E+02  0.48663760217E+01  0.52849434694E+02  0.64384095971E+02  0.00000000000E+00 0.  1.
         11    1    1    2    0    0  0.26650070868E+02  0.60960765575E+02  0.20812132563E+03  0.21849697344E+03  0.00000000000E+00 0. -1.
</event>
<event>
 7    1  0.3105575E-009  0.2082081E+03  0.7561462E-02  0.1142993E+00
         -2   -1    0    0    0  501 -0.00000000000E+00  0.00000000000E+00  0.28804056893E+02  0.28804056893E+02  0.00000000000E+00 0. -1.
          2   -1    0    0  501    0  0.00000000000E+00 -0.00000000000E+00 -0.16524226098E+04  0.16524226098E+04  0.00000000000E+00 0.  1.
         25    2    1    2    0    0  0.33369523723E+02 -0.18607659073E+03 -0.84047267518E+03  0.87050611801E+03  0.12509420861E+03 0.  0.
          5    1    3    3  502    0 -0.28369683351E+02 -0.38726557390E+02 -0.38094712442E+03  0.38398277199E+03  0.41800000000E+01 0. -1.
         -5    1    3    3    0  502  0.61739207074E+02 -0.14735003334E+03 -0.45952555076E+03  0.48652334601E+03  0.41800000000E+01 0. -1.
        -11    1    1    2    0    0 -0.48253979047E+02  0.43212097107E+02 -0.20449275136E+03  0.21450645023E+03  0.00000000000E+00 0. -1.
         11    1    1    2    0    0  0.14884455324E+02  0.14286449363E+03 -0.57865312637E+03  0.59621409846E+03  0.00000000000E+00 0.  1.
</event>
<event>
 7    1  0.2690635E-009  0.7682929E+02  0.7561462E-02  0.1338298E+00
          1   -1    0    0  501    0  0.00000000000E+00  0.00000000000E+00  0.65328688076E+03  0.65328688076E+03  0.00000000000E+00 0. -1.
         -1   -1    0    0    0  501 -0.00000000000E+00 -0.00000000000E+00 -0.18806256244E+02  0.18806256244E+02  0.00000000000E+00 0.  1.
         25    2    1    2    0    0 -0.15662529283E+02 -0.14699196002E+02  0.37318030814E+03  0.39417322292E+03  0.12509039171E+03 0.  0.
          5    1    3    3  502    0 -0.32978482142E+02  0.44998493770E+01  0.18078403213E+02  0.38106823425E+02  0.41800000000E+01 0.  1.
         -5    1    3    3    0  502  0.17315952859E+02 -0.19199045379E+02  0.35510190492E+03  0.35606639949E+03  0.41800000000E+01 0.  1.
        -11    1    1    2    0    0  0.19633111033E+02 -0.37098544006E+02  0.13426665424E+03  0.14067443072E+03  0.00000000000E+00 0.  1.
         11    1    1    2    0    0 -0.39705817503E+01  0.51797740008E+02  0.12703366213E+03  0.13724548337E+03  0.00000000000E+00 0. -1.
</event>
<event>
 7    1  0.2690635E-009  0.1069468E+03  0.7561462E-02  0.1266331E+00
          1   -1    0    0  501    0  0.00000000000E+00  0.00000000000E+00  0.20561873967E+02  0.20561873967E+02  0.00000000000E+00 0. -1.
         -1   -1    0    0    0  501 -0.00000000000E+00 -0.00000000000E+00 -0.76600293093E+03  0.76600293093E+03  0.00000000000E+00 0.  1.
         25    2    1    2    0    0 -0.75378082298E+01 -0.29438089903E+02 -0.58345816529E+03  0.59749034556E+03  0.12509141742E+03 0.  0.
          5    1    3    3  502    0 -0.22014902602E+02 -0.71119181510E+02 -0.46639049072E+03  0.47231362054E+03  0.41800000000E+01 0. -1.
         -5    1    3    3    0  502  0.14477094372E+02  0.41681091607E+02 -0.11706767457E+03  0.12517672502E+03  0.41800000000E+01 0. -1.
        -11    1    1    2    0    0 -0.40782183453E+02  0.21287789486E+02 -0.99892217444E+02  0.10997641372E+03  0.00000000000E+00 0.  1.
         11    1    1    2    0    0  0.48319991683E+02  0.81503004173E+01 -0.62090674229E+02  0.79098045610E+02  0.00000000000E+00 0. -1.
</event>
<event>
 7    1  0.2690635E-009  0.1232682E+03  0.7561462E-02  0.1237801E+00
         -1   -1    0    0    0  501 -0.00000000000E+00  0.00000000000E+00  0.56201119637E+02  0.56201119637E+02  0.00000000000E+00 0.  1.
          1   -1    0    0  501    0  0.00000000000E+00 -0.00000000000E+00 -0.48039934381E+03  0.48039934381E+03  0.00000000000E+00 0. -1.
         25    2    1    2    0    0  0.15478701177E+02  0.10826752712E+03 -0.14097616735E+03  0.21790766786E+03  0.12509206342E+03 0.  0.
          5    1    3    3  502    0 -0.51482439436E+01 -0.10250741450E+02  0.15978612022E+02  0.20108967108E+02  0.41800000000E+01 0. -1.
         -5    1    3    3    0  502  0.20626945121E+02  0.11851826857E+03 -0.15695477938E+03  0.19779870075E+03  0.41800000000E+01 0. -1.
        -11    1    1    2    0    0 -0.18120632417E+02 -0.26261312643E+02 -0.10029980369E+02  0.33445692804E+02  0.00000000000E+00 0.  1.
         11    1    1    2    0    0  0.26419312399E+01 -0.82006214474E+02 -0.27319207645E+03  0.28524710279E+03  0.00000000000E+00 0. -1.
</event>
<event>
 7    1  0.2690635E-009  0.1119307E+03  0.7561462E-02  0.1257036E+00
          1   -1    0    0  501    0  0.00000000000E+00  0.00000000000E+00  0.37917743405E+03  0.37917743405E+03  0.00000000000E+00 0. -1.
         -1   -1    0    0    0  501 -0.00000000000E+00 -0.00000000000E+00 -0.45891425181E+02  0.45891425181E+02  0.00000000000E+00 0.  1.
         25    2    1    2    0    0 -0.40743592523E+02  0.18238083356E+02  0.84226230134E+02  0.15728711238E+03  0.12510999106E+03 0.  0.
          5    1    3    3  502    0 -0.12641483707E+02 -0.51479462800E+02  0.15591013273E+02  0.55412041069E+02  0.41800000000E+01 0.  1.
         -5    1    3    3    0  502 -0.28102108817E+02  0.69717546156E+02  0.68635216862E+02  0.10187507132E+03  0.41800000000E+01 0.  1.
        -11    1    1    2    0    0 -0.26105179638E+02 -0.10385281113E+02  0.46464664645E+02  0.54298246089E+02  0.00000000000E+00 0.  1.
         11    1    1    2    0    0  0.66848772162E+02 -0.78528022431E+01  0.20259511409E+03  0.21348350075E+03  0.00000000000E+00 0. -1.
</event>
<event>
 7    1  0.2690635E-009  0.1618916E+03  0.7561462E-02  0.1186578E+00
         -2   -1    0    0    0  501 -0.00000000000E+00  0.00000000000E+00  0.11921897190E+04  0.11921897190E+04  0.00000000000E+00 0.  1.
          2   -1    0    0  501    0  0.00000000000E+00 -0.00000000000E+00 -0.26823633173E+02  0.26823633173E+02  0.00000000000E+00 0. -1.
         25    2    1    2    0    0 -0.13313785199E+03  0.48783330491E+02  0.60174318229E+03  0.63075166043E+03  0.12508916315E+03 0.  0.
          5    1    3    3  502    0 -0.42794718257E+02 -0.34495701507E+02  0.10022930236E+03  0.11438849062E+03  0.41800000000E+01 0. -1.
         -5    1    3    3    0  502 -0.90343133735E+02  0.83279031997E+02  0.50151387993E+03  0.51636316982E+03  0.41800000000E+01 0. -1.
        -11    1    1    2    0    0  0.10190890786E+03 -0.21290566925E+02  0.50932199581E+03  0.51985344969E+03  0.00000000000E+00 0.  1.
         11    1    1    2    0    0  0.31228944129E+02 -0.27492763566E+02  0.54300907718E+02  0.68408242039E+02  0.00000000000E+00 0. -1.
</event>
<event>
 7    1  0.2690635E-009  0.1469623E+03  0.7561462E-02  0.1204256E+00
          2   -1    0    0  501    0  0.00000000000E+00  0.00000000000E+00  0.24254557799E+03  0.24254557799E+03  0.00000000000E+00 0. -1.
         -2   -1    0    0    0  501 -0.00000000000E+00 -0.00000000000E+00 -0.19535246991E+03  0.19535246991E+03  0.00000000000E+00 0.  1.
         25    2    1    2    0    0 -0.59563842032E+01 -0.12360153830E+03  0.16724493563E+03  0.24275559095E+03  0.12508632884E+03 0.  0.
          5    1    3    3  502    0 -0.56387495565E+01 -0.13120802952E+03  0.18269102191E+03  0.22503516258E+03  0.41800000000E+01 0. -1.
         -5    1    3    3    0  502 -0.31763464663E+00  0.76064912180E+01 -0.15446086285E+02  0.17720428379E+02  0.41800000000E+01 0. -1.
        -11    1    1    2    0    0  0.40722141598E+02  0.21633252674E+02 -0.35698586283E+02  0.58315345323E+02  0.00000000000E+00 0.  1.
         11    1    1    2    0    0 -0.34765757395E+02  0.10196828563E+03 -0.84353241271E+02  0.13682711162E+03  0.00000000000E+00 0. -1.
</event>
<event>
 7    1  0.2690635E-009  0.1499465E+03  0.7561462E-02  0.1200539E+00
         -2   -1    0    0    0  501 -0.00000000000E+00  0.00000000000E+00  0.65739408024E+02  0.65739408024E+02  0.00000000000E+00 0.  1.
          2   -1    0    0  501    0  0.00000000000E+00 -0.00000000000E+00 -0.39177550136E+03  0.39177550136E+03  0.00000000000E+00 0. -1.
         25    2    1    2    0    0  0.36805209653E+02 -0.10402536896E+03 -0.23673976663E+03  0.28960198405E+03  0.12509073194E+03 0.  0.
          5    1    3    3  502    0 -0.44052041868E+02 -0.16171650598E+02 -0.73776331214E+02  0.87535844791E+02  0.41800000000E+01 0.  1.
         -5    1    3    3    0  502  0.80857251521E+02 -0.87853718363E+02 -0.16296343542E+03  0.20206613926E+03  0.41800000000E+01 0.  1.
        -11    1    1    2    0    0 -0.57134546768E+02  0.51248460670E+02 -0.79518984594E+02  0.11051710305E+03  0.00000000000E+00 0. -1.
         11    1    1    2    0    0  0.20329337115E+02  0.52776908291E+02 -0.97773421076E+01  0.57395822278E+02  0.00000000000E+00 0.  1.
</event>
<event>
 7    1  0.2690635E-009  0.1387152E+03  0.7561462E-02  0.1215068E+00
         -3   -1    0    0    0  501 -0.00000000000E+00  0.00000000000E+00  0.23158938979E+03  0.23158938979E+03  0.00000000000E+00 0.  1.
          3   -1    0    0  501    0  0.00000000000E+00 -0.00000000000E+00 -0.13408429088E+03  0.13408429088E+03  0.00000000000E+00 0. -1.
         25    2    1    2    0    0  0.69910550339E+02  0.53123015351E+02 -0.59029997646E+02  0.16383009351E+03  0.12508484764E+03 0.  0.
          5    1    3    3  502    0 -0.25725549682E+02  0.49285979709E+02 -0.32009326014E+02  0.64288265292E+02  0.41800000000E+01 0.  1.
         -5    1    3    3    0  502  0.95636100020E+02  0.38370356422E+01 -0.27020671632E+02  0.99541828218E+02  0.41800000000E+01 0.  1.
        -11    1    1    2    0    0  0.77087528794E+00 -0.55157197564E+02  0.53240430371E+02  0.76664555812E+02  0.00000000000E+00 0.  1.
         11    1    1    2    0    0 -0.70681425627E+02  0.20341822123E+01  0.10329466619E+03  0.12517903134E+03  0.00000000000E+00 0. -1.
</event>
<event>
 7    1  0.2690635E-009  0.9370821E+02  0.7561462E-02  0.1294112E+00
         -2   -1    0    0    0  501 -0.00000000000E+00  0.00000000000E+00  0.17213498057E+03  0.17213498057E+03  0.00000000000E+00 0.  1.
          2   -1    0    0  501    0  0.00000000000E+00 -0.00000000000E+00 -0.11253195500E+03  0.11253195500E+03  0.00000000000E+00 0. -1.
         25    2    1    2    0    0 -0.57892817515E+02 -0.12590515660E+02 -0.31755520773E+02  0.14200431435E+03  0.12508682101E+03 0.  0.
          5    1    3    3  502    0 -0.33152880629E+02  0.37575741706E+02  0.30019562542E+02  0.58563609810E+02  0.41800000000E+01 0. -1.
         -5    1    3    3    0  502 -0.24739936886E+02 -0.50166257366E+02 -0.61775083315E+02  0.83440704538E+02  0.41800000000E+01 0. -1.
        -11    1    1    2    0    0 -0.10520063531E+02 -0.28668849136E+01 -0.12973439403E+02  0.16947002559E+02  0.00000000000E+00 0. -1.
         11    1    1    2    0    0  0.68412881045E+02  0.15457400573E+02  0.10433198574E+03  0.12571561866E+03  0.00000000000E+00 0.  1.
</event>
<event>
 7    1  0.2690635E-009  0.9084988E+02  0.7561462E-02  0.1300807E+00
          2   -1    0    0  501    0  0.00000000000E+00  0.00000000000E+00  0.29187124986E+03  0.29187124986E+03  0.00000000000E+00 0.  1.
         -2   -1    0    0    0  501 -0.00000000000E+00 -0.00000000000E+00 -0.43746692584E+02  0.43746692584E+02  0.00000000000E+00 0. -1.
         25    2    1    2    0    0 -0.14874031568E+02 -0.93842282016E+00  0.18920261842E+03  0.22729780751E+03  0.12507815569E+03 0.  0.
          5    1    3    3  502    0 -0.10910537242E+02  0.61028029750E+02  0.11254606089E+03  0.12855951330E+03  0.41800000000E+01 0.  1.
         -5    1    3    3    0  502 -0.39634943257E+01 -0.61966452570E+02  0.76656557532E+02  0.98738294213E+02  0.41800000000E+01 0.  1.
        -11    1    1    2    0    0  0.35100033798E+02 -0.66549324941E+01 -0.91696308076E+01  0.36883365197E+02  0.00000000000E+00 0. -1.
         11    1    1    2    0    0 -0.20226002230E+02  0.75933553142E+01  0.68091569658E+02  0.71436769731E+02  0.00000000000E+00 0.  1.
</event>
<event>
 7    1  0.2690635E-009  0.1417066E+03  0.7561462E-02  0.1211051E+00
         -1   -1    0    0    0  501 -0.00000000000E+00  0.00000000000E+00  0.28087083124E+03  0.28087083124E+03  0.00000000000E+00 0.  1.
          1   -1    0    0  501    0  0.00000000000E+00 -0.00000000000E+00 -0.92390140154E+02  0.92390140154E+02  0.00000000000E+00 0. -1.
         25    2    1    2    0    0 -0.11806954947E+03  0.75517077169E+01  0.10025203631E+03  0.19923902025E+03  0.12509304378E+03 0.  0.
          5    1    3    3  502    0 -0.47212652459E+02  0.40384770333E+02  0.10369759403E+03  0.12095713140E+03  0.41800000000E+01 0.  1.
         -5    1    3    3    0  502 -0.70856897008E+02 -0.32833062616E+02 -0.34455577184E+01  0.78281888853E+02  0.41800000000E+01 0.  1.
        -11    1    1    2    0    0  0.12565972581E+03  0.77069575174E+01  0.56471918788E+02  0.13798130851E+03  0.00000000000E+00 0. -1.
         11    1    1    2    0    0 -0.75901763456E+01 -0.15258665234E+02  0.31756735985E+02  0.36040642643E+02  0.00000000000E+00 0.  1.
</event>
<event>
 7    1  0.2690635E-009  0.1658140E+03  0.7561462E-02  0.1182285E+00
          1   -1    0    0  501    0  0.00000000000E+00  0.00000000000E+00  0.50921493471E+02  0.50921493471E+02  0.00000000000E+00 0. -1.
         -1   -1    0    0    0  501 -0.00000000000E+00 -0.00000000000E+00 -0.68725386382E+03  0.68725386382E+03  0.00000000000E+00 0.  1.
         25    2    1    2    0    0  0.11854325457E+03 -0.78736146685E+02 -0.22726559535E+03  0.29588623191E+03  0.12508847831E+03 0.  0.
          5    1    3    3  502    0  0.45736466636E+02  0.12823316955E+02 -0.14547013298E+03  0.15308590343E+03  0.41800000000E+01 0. -1.
         -5    1    3    3    0  502  0.72806787937E+02 -0.91559463640E+02 -0.81795462366E+02  0.14280032849E+03  0.41800000000E+01 0. -1.
        -11    1    1    2    0    0 -0.58192139238E+02  0.88336568532E+02 -0.28477485780E+03  0.30378675752E+03  0.00000000000E+00 0.  1.
         11    1    1    2    0    0 -0.60351115334E+02 -0.96004218470E+01 -0.12429191720E+03  0.13850236786E+03  0.00000000000E+00 0. -1.
</event>
<event>
 7    1  0.3634307E-009  0.1400250E+03  0.7561462E-02  0.1213295E+00
         -1   -1    0    0    0  501 -0.00000000000E+00  0.00000000000E+00  0.16973061234E+03  0.16973061234E+03  0.00000000000E+00 0.  1.
          1   -1    0    0  501    0  0.00000000000E+00 -0.00000000000E+00 -0.12452874528E+03  0.12452874528E+03  0.00000000000E+00 0. -1.
         25    2    1    2    0    0  0.94545437545E+02  0.19832808272E+02  0.19916207564E+02  0.15929808529E+03  0.12508814736E+03 0.  0.
          5    1    3    3  502    0  0.12079268452E+03  0.28966857422E+02 -0.95604187878E+00  0.12429134273E+03  0.41800000000E+01 0. -1.
         -5    1    3    3    0  502 -0.26247246975E+02 -0.91340491503E+01  0.20872249443E+02  0.35006742557E+02  0.41800000000E+01 0. -1.
        -11    1    1    2    0    0 -0.69235613819E+02  0.27088634395E+02  0.32543923241E+02  0.81157077782E+02  0.00000000000E+00 0.  1.
         11    1    1    2    0    0 -0.25309823726E+02 -0.46921442667E+02 -0.72582637430E+01  0.53804194554E+02  0.00000000000E+00 0. -1.
</event>
<event>
 7    1  0.2690635E-009  0.1452975E+03  0.7561462E-02  0.1206373E+00
          2   -1    0    0  501    0  0.00000000000E+00  0.00000000000E+00  0.10861808727E+03  0.10861808727E+03  0.00000000000E+00 0. -1.
         -2   -1    0    0    0  501 -0.00000000000E+00 -0.00000000000E+00 -0.30201177279E+03  0.30201177279E+03  0.00000000000E+00 0.  1.
         25    2    1    2    0    0  0.27517001180E+02  0.10201083706E+03  0.10238442374E+02  0.16406221471E+03  0.12509271906E+03 0.  0.
          5    1    3    3  502    0  0.40832407965E+02  0.12118530993E+03 -0.15710301292E+02  0.12890869191E+03  0.41800000000E+01 0.  1.
         -5    1    3    3    0  502 -0.13315406786E+02 -0.19174472870E+02  0.25948743666E+02  0.35153522804E+02  0.41800000000E+01 0.  1.
        -11    1    1    2    0    0 -0.59016077185E+02 -0.46611009594E+02 -0.10557135954E+03  0.12961788278E+03  0.00000000000E+00 0. -1.
         11    1    1    2    0    0  0.31499076005E+02 -0.55399827469E+02 -0.98060768363E+02  0.11694976257E+03  0.00000000000E+00 0.  1.
</event>
<event>
 7    1  0.2690635E-009  0.1978539E+03  0.7561462E-02  0.1151562E+00
          1   -1    0    0  501    0  0.00000000000E+00  0.00000000000E+00  0.10609604879E+04  0.10609604879E+04  0.00000000000E+00 0. -1.
         -1   -1    0    0    0  501 -0.00000000000E+00 -0.00000000000E+00 -0.46579407113E+02  0.46579407113E+02  0.00000000000E+00 0.  1.
         25    2    1    2    0    0  0.63622591879E+02  0.16093753537E+03  0.31043860363E+03  0.37678737822E+03  0.12509147561E+03 0.  0.
          5    1    3    3  502    0  0.48167846576E+02  0.11866723734E+02  0.14602624795E+03  0.15427928593E+03  0.41800000000E+01 0. -1.
         -5    1    3    3    0  502  0.15454745303E+02  0.14907081164E+03  0.16441235569E+03  0.22250809229E+03  0.41800000000E+01 0. -1.
        -11    1    1    2    0    0  0.12099846909E+02 -0.94463926764E+02  0.35520668501E+03  0.36775212961E+03  0.00000000000E+00 0.  1.
         11    1    1    2    0    0 -0.75722438787E+02 -0.66473608606E+02  0.34873579218E+03  0.36300038723E+03  0.00000000000E+00 0. -1.
</event>
<event>
 7    1  0.2737953E-009  0.2357797E+03  0.7561462E-02  0.1122637E+00
          1   -1    0    0  501    0  0.00000000000E+00  0.00000000000E+00  0.48424641859E+03  0.48424641859E+03  0.00000000000E+00 0. -1.
         -1   -1    0    0    0  501 -0.00000000000E+00 -0.00000000000E+00 -0.11866081568E+03  0.11866081568E+03  0.00000000000E+00 0.  1.
         25    2    1    2    0    0  0.98594842294E+01 -0.21323032498E+03  0.19258908966E+03  0.31353237937E+03  0.12509042543E+03 0.  0.
          5    1    3    3  502    0 -0.46595310849E+02 -0.57517610699E+02  0.97546043145E+02  0.12252388121E+03  0.41800000000E+01 0. -1.
         -5    1    3    3    0  502  0.56454795078E+02 -0.15571271428E+03  0.95043046513E+02  0.19100849816E+03  0.41800000000E+01 0. -1.
        -11    1    1    2    0    0 -0.45095723951E+02  0.63307064458E+02  0.51933821766E+02  0.93480107896E+02  0.00000000000E+00 0. -1.
         11    1    1    2    0    0  0.35236239722E+02  0.14992326053E+03  0.12106269148E+03  0.19589474701E+03  0.00000000000E+00 0.  1.
</event>
<event>
 7    1  0.2690635E-009  0.1129472E+03  0.7561462E-02  0.1255207E+00
          4   -1    0    0  501    0  0.00000000000E+00  0.00000000000E+00  0.14308183652E+03  0.14308183652E+03  0.00000000000E+00 0. -1.
         -4   -1    0    0    0  501 -0.00000000000E+00 -0.00000000000E+00 -0.12354535705E+03  0.12354535705E+03  0.00000000000E+00 0.  1.
         25    2    1    2    0    0  0.38232320747E+02  0.35720843866E+02  0.72248225161E+02  0.15363890386E+03  0.12508963867E+03 0.  0.
          5    1    3    3  502    0 -0.41921786526E+02  0.25708718848E+02  0.48839846148E+02  0.69434698690E+02  0.41800000000E+01 0.  1.
         -5    1    3    3    0  502  0.80154107273E+02  0.10012125018E+02  0.23408379014E+02  0.84204205169E+02  0.41800000000E+01 0.  1.
        -11    1    1    2    0    0  0.27680457676E+01  0.23480109937E+02 -0.28465763663E+02  0.37003747661E+02  0.00000000000E+00 0. -1.
         11    1    1    2    0    0 -0.41000366514E+02 -0.59200953803E+02 -0.24245982032E+02  0.75984542048E+02  0.00000000000E+00 0.  1.
</event>
<event>
 7    1  0.3549726E-009  0.1254450E+03  0.7561462E-02  0.1234375E+00
         -2   -1    0    0    0  501 -0.00000000000E+00  0.00000000000E+00  0.11985352913E+02  0.11985352913E+02  0.00000000000E+00 0. -1.
          2   -1    0    0  501    0  0.00000000000E+00 -0.00000000000E+00 -0.15821503753E+04  0.15821503753E+04  0.00000000000E+00 0.  1.
         25    2    1    2    0    0 -0.69942875404E+02  0.30514678126E+02 -0.10698921225E+04  0.10798794425E+04  0.12508918839E+03 0.  0.
          5    1    3    3  502    0  0.13815708778E+02 -0.31365712417E+02 -0.14132062150E+03  0.14547739407E+03  0.41800000000E+01 0.  1.
         -5    1    3    3    0  502 -0.83758584182E+02  0.61880390543E+02 -0.92857150105E+03  0.93440204844E+03  0.41800000000E+01 0.  1.
        -11    1    1    2    0    0  0.26090934809E+02 -0.55744979058E+02 -0.35808110366E+03  0.36333223965E+03  0.00000000000E+00 0. -1.
         11    1    1    2    0    0  0.43851940595E+02  0.25230300932E+02 -0.14219179621E+03  0.15092404609E+03  0.00000000000E+00 0.  1.
</event>
<event>
 7    1  0.2690635E-009  0.2290211E+03  0.7561462E-02  0.1127331E+00
          3   -1    0    0  501    0  0.00000000000E+00  0.00000000000E+00  0.19173118066E+03  0.19173118066E+03  0.00000000000E+00 0. -1.
         -3   -1    0    0    0  501 -0.00000000000E+00 -0.00000000000E+00 -0.31675541292E+03  0.31675541292E+03  0.00000000000E+00 0.  1.
         25    2    1    2    0    0 -0.54867458042E+02  0.21355393342E+03 -0.48872679027E+02  0.25817062889E+03  0.12509122444E+03 0.  0.
          5    1    3    3  502    0 -0.46895155792E+02  0.15525722109E+03 -0.90688431374E+02  0.18586507020E+03  0.41800000000E+01 0.  1.
         -5    1    3    3    0  502 -0.79723022495E+01  0.58296712335E+02  0.41815752347E+02  0.72305558684E+02  0.41800000000E+01 0.  1.
        -11    1    1    2    0    0  0.81778856366E+01  0.73719320497E+01  0.23421910144E+01  0.11256511643E+02  0.00000000000E+00 0. -1.
         11    1    1    2    0    0  0.46689572405E+02 -0.22092586547E+03 -0.78493744242E+02  0.23905945305E+03  0.00000000000E+00 0.  1.
</event>
<event>
 7    1  0.2690635E-009  0.2224894E+03  0.7561462E-02  0.1132041E+00
         -2   -1    0    0    0  501 -0.00000000000E+00  0.00000000000E+00  0.25088615262E+02  0.25088615262E+02  0.00000000000E+00 0. -1.
          2   -1    0    0  501    0  0.00000000000E+00 -0.00000000000E+00 -0.21592063394E+04  0.21592063394E+04  0.00000000000E+00 0.  1.
         25    2    1    2    0    0 -0.19972267045E+03  0.44893647321E+02 -0.11667958581E+04  0.11912040092E+04  0.12509929045E+03 0.  0.
          5    1    3    3  502    0 -0.56871779870E+02 -0.28754199059E+02 -0.55400098377E+03  0.55766994336E+03  0.41800000000E+01 0. -1.
         -5    1    3    3    0  502 -0.14285089058E+03  0.73647846380E+02 -0.61279487433E+03  0.63353406587E+03  0.41800000000E+01 0. -1.
        -11    1    1    2    0    0  0.15479573027E+03  0.27983595948E+01 -0.76197306652E+03  0.77754260528E+03  0.00000000000E+00 0.  1.
         11    1    1    2    0    0  0.44926940182E+02 -0.47692006916E+02 -0.20534879957E+03  0.21554834020E+03  0.00000000000E+00 0. -1.
</event>
<event>
 7    1  0.2690635E-009  0.1029755E+03  0.7561462E-02  0.1274160E+00
          3   -1    0    0  501    0  0.00000000000E+00  0.00000000000E+00  0.19635448339E+03  0.19635448339E+03  0.00000000000E+00 0. -1.
         -3   -1    0    0    0  501 -0.00000000000E+00 -0.00000000000E+00 -0.91479769803E+02  0.91479769803E+02  0.00000000000E+00 0.  1.
         25    2    1    2    0    0  0.45966269770E+02 -0.38639635058E+02  0.10812176568E+03  0.17590607555E+03  0.12508681723E+03 0.  0.
          5    1    3    3  502    0  0.22569954980E+02  0.32812759303E+02 -0.46405836528E+01  0.40312373504E+02  0.41800000000E+01 0.  1.
         -5    1    3    3    0  502  0.23396314790E+02 -0.71452394362E+02  0.11276234933E+03  0.13559370204E+03  0.41800000000E+01 0.  1.
        -11    1    1    2    0    0 -0.24908364927E+02 -0.17635348437E+02 -0.32940640955E+02  0.44905656485E+02  0.00000000000E+00 0.  1.
         11    1    1    2    0    0 -0.21057904843E+02  0.56274983495E+02  0.29693588863E+02  0.67022521165E+02  0.00000000000E+00 0. -1.
</event>
<event>
 7    1  0.2690635E-009  0.8366089E+02  0.7561462E-02  0.1318972E+00
         -3   -1    0    0    0  501 -0.00000000000E+00  0.00000000000E+00  0.40011543186E+03  0.40011543186E+03  0.00000000000E+00 0.  1.
          3   -1    0    0  501    0  0.00000000000E+00 -0.00000000000E+00 -0.44408305562E+02  0.44408305562E+02  0.00000000000E+00 0. -1.
         25    2    1    2    0    0 -0.58349137046E+02  0.46662799591E+01  0.28125426491E+03  0.31333381824E+03  0.12509086362E+03 0.  0.
          5    1    3    3  502    0 -0.13014856550E+02  0.67637259783E+01  0.26425048557E+03  0.26469024539E+03  0.41800000000E+01 0. -1.
         -5    1    3    3    0  502 -0.45334280495E+02 -0.20974460192E+01  0.17003779340E+02  0.48643572851E+02  0.41800000000E+01 0. -1.
        -11    1    1    2    0    0  0.80525352303E+02  0.80588905871E+01  0.65455883348E+02  0.10408530514E+03  0.00000000000E+00 0.  1.
         11    1    1    2    0    0 -0.22176215258E+02 -0.12725170546E+02  0.89969780414E+01  0.27104614044E+02  0.00000000000E+00 0. -1.
</event>
<event>
 7    1  0.2690635E-009  0.1790322E+03  0.7561462E-02  0.1168743E+00
         -1   -1    0    0    0  501 -0.00000000000E+00  0.00000000000E+00  0.27854808403E+03  0.27854808403E+03  0.00000000000E+00 0.  1.
          1   -1    0    0  501    0  0.00000000000E+00 -0.00000000000E+00 -0.15003704931E+03  0.15003704931E+03  0.00000000000E+00 0. -1.
         25    2    1    2    0    0  0.51969112994E+02  0.14375897758E+03 -0.16261535487E+02  0.19819216877E+03  0.12509302893E+03 0.  0.
          5    1    3    3  502    0  0.56419452574E+02  0.26408238925E+02  0.33182344260E+02  0.70704243737E+02  0.41800000000E+01 0.  1.
         -5    1    3    3    0  502 -0.44503395803E+01  0.11735073865E+03 -0.49443879747E+02  0.12748792503E+03  0.41800000000E+01 0.  1.
        -11    1    1    2    0    0  0.26529064062E+02 -0.40414771052E+02  0.28322546644E+02  0.56029560123E+02  0.00000000000E+00 0. -1.
         11    1    1    2    0    0 -0.78498177056E+02 -0.10334420652E+03  0.11645002356E+03  0.17436340445E+03  0.00000000000E+00 0.  1.
</event>
<event>
 7    1  0.2690635E-009  0.8398483E+02  0.7561462E-02  0.1318109E+00
         -1   -1    0    0    0  501 -0.00000000000E+00  0.00000000000E+00  0.32962651264E+03  0.32962651264E+03  0.00000000000E+00 0.  1.
          1   -1    0    0  501    0  0.00000000000E+00 -0.00000000000E+00 -0.46555107226E+02  0.46555107226E+02  0.00000000000E+00 0. -1.
         25    2    1    2    0    0  0.45120741995E+02  0.10336609259E+02  0.22041525989E+03  0.25763078081E+03  0.12509198845E+03 0.  0.
          5    1    3    3  502    0  0.35065743853E+02 -0.20571001773E+02  0.22110844929E+03  0.22485371079E+03  0.41800000000E+01 0. -1.
         -5    1    3    3    0  502  0.10054998142E+02  0.30907611033E+02 -0.69318940072E+00  0.32777070018E+02  0.41800000000E+01 0. -1.
        -11    1    1    2    0    0  0.15248207957E+02 -0.27609101282E+02  0.25736260713E+01  0.31644807957E+02  0.00000000000E+00 0.  1.
         11    1    1    2    0    0 -0.60368949952E+02  0.17272492022E+02  0.60082519451E+02  0.86906031105E+02  0.00000000000E+00 0. -1.
</event>
<event>
 7    1  0.2690635E-009  0.2132903E+03  0.7561462E-02  0.1138987E+00
         -1   -1    0    0    0  501 -0.00000000000E+00  0.00000000000E+00  0.66337122894E+03  0.66337122894E+03  0.00000000000E+00 0.  1.
          1   -1    0    0  501    0  0.00000000000E+00 -0.00000000000E+00 -0.88080301841E+02  0.88080301841E+02  0.00000000000E+00 0. -1.
         25    2    1    2    0    0  0.18886119764E+03  0.64711055517E+02  0.17018598990E+03  0.29063079320E+03  0.12508762577E+03 0.  0.
          5    1    3    3  502    0  0.18234383013E+03  0.72217758472E+02  0.10106265082E+03  0.22067126867E+03  0.41800000000E+01 0. -1.
         -5    1    3    3    0  502  0.65173675129E+01 -0.75067029549E+01  0.69123339073E+02  0.69959524535E+02  0.41800000000E+01 0. -1.
        -11    1    1    2    0    0 -0.80226284329E+02  0.19042830694E+02  0.14898375167E+03  0.17027931278E+03  0.00000000000E+00 0.  1.
         11    1    1    2    0    0 -0.10863491331E+03 -0.83753886211E+02  0.25612118553E+03  0.29054142480E+03  0.00000000000E+00 0. -1.
</event>
<event>
 7    1  0.2690635E-009  0.1453870E+03  0.7561462E-02  0.1206259E+00
         -1   -1    0    0    0  501 -0.00000000000E+00  0.00000000000E+00  0.33744157972E+02  0.33744157972E+02  0.00000000000E+00 0.  1.
          1   -1    0    0  501    0  0.00000000000E+00 -0.00000000000E+00 -0.22812737606E+04  0.22812737606E+04  0.00000000000E+00 0. -1.
         25    2    1    2    0    0 -0.13268528208E+03  0.35416218456E+02 -0.20473183061E+04  0.20557285040E+04  0.12509093958E+03 0.  0.
          5    1    3    3  502    0 -0.11470528190E+03  0.38457535584E+01 -0.83525072908E+03  0.84310933119E+03  0.41800000000E+01 0.  1.
         -5    1    3    3    0  502 -0.17980000178E+02  0.31570464898E+02 -0.12120675770E+04  0.12126191728E+04  0.41800000000E+01 0.  1.
        -11    1    1    2    0    0  0.15289325199E+02  0.34890805120E+01  0.76263261993E+01  0.17438405866E+02  0.00000000000E+00 0.  1.
         11    1    1    2    0    0  0.11739595688E+03 -0.38905298968E+02 -0.20783762276E+03  0.24185100871E+03  0.00000000000E+00 0. -1.
</event>
<event>
 7    1  0.2690635E-009  0.1219249E+03  0.7561462E-02  0.1239955E+00
          2   -1    0    0  501    0  0.00000000000E+00  0.00000000000E+00  0.24791963394E+03  0.24791963394E+03  0.00000000000E+00 0. -1.
         -2   -1    0    0    0  501 -0.00000000000E+00 -0.00000000000E+00 -0.97796058397E+02  0.97796058397E+02  0.00000000000E+00 0.  1.
         25    2    1    2    0    0  0.10613687464E+03 -0.55720013605E+01  0.43204041280E+02  0.16973445868E+03  0.12508842441E+03 0.  0.
          5    1    3    3  502    0  0.85007559341E+02  0.21308013267E+02 -0.26779967623E+02  0.91733067323E+02  0.41800000000E+01 0. -1.
         -5    1    3    3    0  502  0.21129315303E+02 -0.26880014628E+02  0.69984008904E+02  0.78001391358E+02  0.41800000000E+01 0. -1.
        -11    1    1    2    0    0 -0.10611011364E+02 -0.20120637588E+02  0.64418528376E+02  0.68316765272E+02  0.00000000000E+00 0. -1.
         11    1    1    2    0    0 -0.95525863280E+02  0.25692638948E+02  0.42501005892E+02  0.10766446839E+03  0.00000000000E+00 0.  1.
</event>
<event>
 7    1  0.2690635E-009  0.1759002E+03  0.7561462E-02  0.1171831E+00
          1   -1    0    0  501    0  0.00000000000E+00  0.00000000000E+00  0.52580643209E+03  0.52580643209E+03  0.00000000000E+00 0. -1.
         -1   -1    0    0    0  501 -0.00000000000E+00 -0.00000000000E+00 -0.71883270851E+02  0.71883270851E+02  0.00000000000E+00 0.  1.
         25    2    1    2    0    0 -0.33418911653E+02 -0.15560515623E+03  0.18901768833E+03  0.27695522970E+03  0.12508686763E+03 0.  0.
          5    1    3    3  502    0  0.19507134694E+02 -0.43587987736E+02  0.13214263444E+03  0.14056880598E+03  0.41800000000E+01 0.  1.
         -5    1    3    3    0  502 -0.52926046347E+02 -0.11201716849E+03  0.56875053893E+02  0.13638642371E+03  0.41800000000E+01 0.  1.
        -11    1    1    2    0    0 -0.89126314886E+01  0.13025708741E+03  0.17723222883E+03  0.22013088551E+03  0.00000000000E+00 0.  1.
         11    1    1    2    0    0  0.42331543141E+02  0.25348068816E+02  0.87673244076E+02  0.10060358773E+03  0.00000000000E+00 0. -1.
</event>
<event>
 7    1  0.2690635E-009  0.1038388E+03  0.7561462E-02  0.1272425E+00
         -2   -1    0    0    0  501 -0.00000000000E+00  0.00000000000E+00  0.10681256532E+03  0.10681256532E+03  0.00000000000E+00 0.  1.
          2   -1    0    0  501    0  0.00000000000E+00 -0.00000000000E+00 -0.20973822873E+03  0.20973822873E+03  0.00000000000E+00 0. -1.
         25    2    1    2    0    0 -0.30890868438E+02 -0.20656593714E+02 -0.15598065359E+03  0.20337581852E+03  0.12510323197E+03 0.  0.
          5    1    3    3  502    0 -0.69062372750E+02 -0.35310792931E+02 -0.57445392865E+02  0.96612157561E+02  0.41800000000E+01 0.  1.
         -5    1    3    3    0  502  0.38171504312E+02  0.14654199217E+02 -0.98535260720E+02  0.10676366096E+03  0.41800000000E+01 0.  1.
        -11    1    1    2    0    0 -0.17936203640E+02 -0.18901989382E+02  0.41914977913E+02  0.49354411931E+02  0.00000000000E+00 0.  1.
         11    1    1    2    0    0  0.48827072078E+02  0.39558583096E+02  0.11140012262E+02  0.63820563595E+02  0.00000000000E+00 0. -1.
</event>
<event>
 7    1  0.3467746E-009  0.1496630E+03  0.7561462E-02  0.1200888E+00
          2   -1    0    0  501    0  0.00000000000E+00  0.00000000000E+00  0.16557938914E+04  0.16557938914E+04  0.00000000000E+00 0. -1.
         -2   -1    0    0    0  501 -0.00000000000E+00 -0.00000000000E+00 -0.18511974286E+02  0.18511974286E+02  0.00000000000E+00 0.  1.
         25    2    1    2    0    0 -0.12709628707E+03  0.47067323684E+02  0.96431164232E+03  0.98179016020E+03  0.12508467528E+03 0.  0.
          5    1    3    3  502    0 -0.23265922966E+02  0.19074340574E+02  0.62681248440E+03  0.62754800345E+03  0.41800000000E+01 0. -1.
         -5    1    3    3    0  502 -0.10383036411E+03  0.27992983109E+02  0.33749915792E+03  0.35424215674E+03  0.41800000000E+01 0. -1.
        -11    1    1    2    0    0  0.88312772484E+02  0.13573884919E+02  0.31763495766E+03  0.32996266828E+03  0.00000000000E+00 0.  1.
         11    1    1    2    0    0  0.38783514589E+02 -0.60641208603E+02  0.35533531714E+03  0.36255303721E+03  0.00000000000E+00 0. -1.
</event>
<event>
 7    1  0.2690635E-009  0.1367460E+03  0.7561462E-02  0.1217776E+00
         -1   -1    0    0    0  501 -0.00000000000E+00  0.00000000000E+00  0.20500646502E+02  0.20500646502E+02  0.00000000000E+00 0.  1.
          1   -1    0    0  501    0  0.00000000000E+00 -0.00000000000E+00 -0.10437634021E+04  0.10437634021E+04  0.00000000000E+00 0. -1.
         25    2    1    2    0    0 -0.85694077715E+02 -0.41098941703E+02 -0.47570431232E+03  0.50097619455E+03  0.12509978730E+03 0.  0.
          5    1    3    3  502    0 -0.11414335296E+03 -0.99436498928E+01 -0.34114980088E+03  0.35990031987E+03  0.41800000000E+01 0.  1.
         -5    1    3    3    0  502  0.28449275245E+02 -0.31155291810E+02 -0.13455451144E+03  0.14107587469E+03  0.41800000000E+01 0.  1.
        -11    1    1    2    0    0  0.18549324612E+02 -0.18838782755E+02 -0.40927495027E+02  0.48724090843E+02  0.00000000000E+00 0.  1.
         11    1    1    2    0    0  0.67144753103E+02  0.59937724458E+02 -0.50663094827E+03  0.51456376323E+03  0.00000000000E+00 0. -1.
</event>
<event>
 7    1  0.2690635E-009  0.3464486E+03  0.7561462E-02  0.1064082E+00
         -2   -1    0    0    0  501 -0.00000000000E+00  0.00000000000E+00  0.23278862122E+03  0.23278862122E+03  0.00000000000E+00 0.  1.
          2   -1    0    0  501    0  0.00000000000E+00 -0.00000000000E+00 -0.66465254349E+03  0.66465254349E+03  0.00000000000E+00 0. -1.
         25    2    1    2    0    0  0.78665014402E+02 -0.32012577368E+03 -0.77476395243E+01  0.35266980197E+03  0.12508903965E+03 0.  0.
          5    1    3    3  502    0  0.62453905917E+02 -0.48405816149E+02  0.10515476977E+02  0.79822685105E+02  0.41800000000E+01 0.  1.
         -5    1    3    3    0  502  0.16211108485E+02 -0.27171995753E+03 -0.18263116501E+02  0.27284711687E+03  0.41800000000E+01 0.  1.
        -11    1    1    2    0    0 -0.84398189429E+02  0.15648514875E+03 -0.20805005305E+03  0.27367038702E+03  0.00000000000E+00 0.  1.
         11    1    1    2    0    0  0.57331750266E+01  0.16364062493E+03 -0.21606622969E+03  0.27110097572E+03  0.00000000000E+00 0. -1.
</event>
<event>
 7    1  0.2690635E-009  0.9154212E+02  0.7561462E-02  0.1299160E+00
          3   -1    0    0  501    0  0.00000000000E+00  0.00000000000E+00  0.78065553658E+02  0.78065553658E+02  0.00000000000E+00 0. -1.
         -3   -1    0    0    0  501 -0.00000000000E+00 -0.00000000000E+00 -0.20129406705E+03  0.20129406705E+03  0.00000000000E+00 0.  1.
         25    2    1    2    0    0  0.10147798998E+02 -0.62317125058E+02 -0.59737772952E+02  0.15232699600E+03  0.12509400582E+03 0.  0.
          5    1    3    3  502    0  0.28707030479E+02 -0.22231400703E+02 -0.90989113836E+02  0.98055188607E+02  0.41800000000E+01 0.  1.
         -5    1    3    3    0  502 -0.18559231481E+02 -0.40085724355E+02  0.31251340884E+02  0.54271807389E+02  0.41800000000E+01 0.  1.
        -11    1    1    2    0    0  0.34249252449E+02  0.39388701002E+02 -0.87665123399E+01  0.52927618485E+02  0.00000000000E+00 0. -1.
         11    1    1    2    0    0 -0.44397051447E+02  0.22928424056E+02 -0.54724228103E+02  0.74105006230E+02  0.00000000000E+00 0.  1.
</event>
<event>
 7    1  0.2690635E-009  0.8468339E+02  0.7561462E-02  0.1316263E+00
          2   -1    0    0  501    0  0.00000000000E+00  0.00000000000E+00  0.32486456549E+03  0.32486456549E+03  0.00000000000E+00 0. -1.
         -2   -1    0    0    0  501 -0.00000000000E+00 -0.00000000000E+00 -0.65881432793E+02  0.65881432793E+02  0.00000000000E+00 0.  1.
         25    2    1    2    0    0  0.17616064427E+02  0.69316637958E+02  0.22709264849E+03  0.26894866952E+03  0.12508874376E+03 0.  0.
          5    1    3    3  502    0  0.74399416262E+01 -0.54507098211E+00  0.18789582134E+03  0.18809030254E+03  0.41800000000E+01 0. -1.
         -5    1    3    3    0  502  0.10176122800E+02  0.69861708940E+02  0.39196827146E+02  0.80858366974E+02  0.41800000000E+01 0. -1.
        -11    1    1    2    0    0  0.18191305957E+02 -0.98733204907E+01 -0.24719627613E+02  0.32240751530E+02  0.00000000000E+00 0.  1.
         11    1    1    2    0    0 -0.35807370383E+02 -0.59443317468E+02  0.56610111823E+02  0.89556577234E+02  0.00000000000E+00 0. -1.
</event>
<event>
 7    1  0.2690635E-009  0.9502929E+02  0.7561462E-02  0.1291110E+00
          2   -1    0    0  501    0  0.00000000000E+00  0.00000000000E+00  0.58492009090E+03  0.58492009090E+03  0.00000000000E+00 0. -1.
         -2   -1    0    0    0  501 -0.00000000000E+00 -0.00000000000E+00 -0.28984534194E+02  0.28984534194E+02  0.00000000000E+00 0.  1.
         25    2    1    2    0    0  0.60317322261E+02  0.32461900440E+02  0.25588278334E+03  0.29294302966E+03  0.12509062904E+03 0.  0.
          5    1    3    3  502    0  0.19171950653E+01  0.44015764582E+02  0.18147563998E+02  0.47831680377E+02  0.41800000000E+01 0.  1.
         -5    1    3    3    0  502  0.58400127195E+02 -0.11553864142E+02  0.23773521934E+03  0.24511134928E+03  0.41800000000E+01 0.  1.
        -11    1    1    2    0    0  0.67539789028E+01 -0.15550863793E+02  0.46666277338E+01  0.17584737989E+02  0.00000000000E+00 0.  1.
         11    1    1    2    0    0 -0.67071301163E+02 -0.16911036647E+02  0.29538614563E+03  0.30337685744E+03  0.00000000000E+00 0. -1.
</event>
<event>
 7    1  0.2690635E-009  0.7520376E+02  0.7561462E-02  0.1343241E+00
         -2   -1    0    0    0  501 -0.00000000000E+00  0.00000000000E+00  0.10540939925E+03  0.10540939925E+03  0.00000000000E+00 0. -1.
          2   -1    0    0  501    0  0.00000000000E+00 -0.00000000000E+00 -0.15299558255E+03  0.15299558255E+03  0.00000000000E+00 0.  1.
         25    2    1    2    0    0 -0.97971314190E+01  0.38844166967E+01 -0.94384589393E+02  0.15705343479E+03  0.12508500384E+03 0.  0.
          5    1    3    3  502    0  0.33237031275E+02  0.39807100914E+02 -0.60877688058E+01  0.52381665306E+02  0.41800000000E+01 0.  1.
         -5    1    3    3    0  502 -0.43034162694E+02 -0.35922684217E+02 -0.88296820587E+02  0.10467176948E+03  0.41800000000E+01 0.  1.
        -11    1    1    2    0    0  0.18261008492E+02  0.13582658735E+02  0.68532223252E+02  0.72212316632E+02  0.00000000000E+00 0. -1.
         11    1    1    2    0    0 -0.84638770733E+01 -0.17467075432E+02 -0.21733817158E+02  0.29139230387E+02  0.00000000000E+00 0.  1.
</event>
<event>
 7    1  0.2690635E-009  0.9210937E+02  0.7561462E-02  0.1297822E+00
         -2   -1    0    0    0  501 -0.00000000000E+00  0.00000000000E+00  0.25670278416E+02  0.25670278416E+02  0.00000000000E+00 0.  1.
          2   -1    0    0  501    0  0.00000000000E+00 -0.00000000000E+00 -0.73840691355E+03  0.73840691355E+03  0.00000000000E+00 0. -1.
         25    2    1    2    0    0  0.43885513102E+02  0.48335865523E+02 -0.55074995435E+03  0.56853879919E+03  0.12509420378E+03 0.  0.
          5    1    3    3  502    0 -0.12619033165E+02  0.52366276578E+02 -0.95208376344E+02  0.10946951286E+03  0.41800000000E+01 0. -1.
         -5    1    3    3    0  502  0.56504546267E+02 -0.40304110544E+01 -0.45554157800E+03  0.45906928633E+03  0.41800000000E+01 0. -1.
        -11    1    1    2    0    0 -0.38811861871E+02 -0.18267420018E+02 -0.15924569537E+03  0.16492195351E+03  0.00000000000E+00 0. -1.
         11    1    1    2    0    0 -0.50736512308E+01 -0.30068445505E+02 -0.27409854164E+01  0.30616439260E+02  0.00000000000E+00 0.  1.
</event>
<event>
 7    1  0.2690635E-009  0.1176346E+03  0.7561462E-02  0.1247051E+00
          1   -1    0    0  501    0  0.00000000000E+00  0.00000000000E+00  0.13492696156E+03  0.13492696156E+03  0.00000000000E+00 0. -1.
         -1   -1    0    0    0  501 -0.00000000000E+00 -0.00000000000E+00 -0.20727437055E+03  0.20727437055E+03  0.00000000000E+00 0.  1.
         25    2    1    2    0    0 -0.82871642408E+02  0.70346111499E+02 -0.10253079986E+03  0.19487408401E+03  0.12508820560E+03 0.  0.
          5    1    3    3  502    0 -0.14650161998E+02 -0.94844730234E+01 -0.86769209832E+02  0.88605590399E+02  0.41800000000E+01 0. -1.
         -5    1    3    3    0  502 -0.68221480410E+02  0.79830584522E+02 -0.15761590032E+02  0.10626849361E+03  0.41800000000E+01 0. -1.
        -11    1    1    2    0    0  0.54722095653E+02 -0.28235094109E+02  0.62102988080E+02  0.87455756932E+02  0.00000000000E+00 0. -1.
         11    1    1    2    0    0  0.28149546755E+02 -0.42111017390E+02 -0.31919597212E+02  0.59871491165E+02  0.00000000000E+00 0.  1.
</event>
<event>
 7    1  0.2690635E-009  0.2105400E+03  0.7561462E-02  0.1141139E+00
          3   -1    0    0  501    0  0.00000000000E+00  0.00000000000E+00  0.23741569713E+03  0.23741569713E+03  0.00000000000E+00 0. -1.
         -3   -1    0    0    0  501 -0.00000000000E+00 -0.00000000000E+00 -0.20192152374E+03  0.20192152374E+03  0.00000000000E+00 0.  1.
         25    2    1    2    0    0 -0.87519756297E+02 -0.16859740550E+03  0.29852812448E+02  0.22939885406E+03  0.12509137041E+03 0.  0.
          5    1    3    3  502    0 -0.11314690301E+03 -0.14698333753E+03  0.47164218643E+02  0.19143735031E+03  0.41800000000E+01 0. -1.
         -5    1    3    3    0  502  0.25627146716E+02 -0.21614067964E+02 -0.17311406195E+02  0.37961503754E+02  0.41800000000E+01 0. -1.
        -11    1    1    2    0    0  0.77402677140E+00  0.71704653595E+02 -0.25682358264E+02  0.76169153800E+02  0.00000000000E+00 0.  1.
         11    1    1    2    0    0  0.86745729526E+02  0.96892751902E+02  0.31323719208E+02  0.13376921300E+03  0.00000000000E+00 0. -1.
</event>
<event>
 7    1  0.2690635E-009  0.1496470E+03  0.7561462E-02  0.1200907E+00
          1   -1    0    0  501    0  0.00000000000E+00  0.00000000000E+00  0.75019538902E+03  0.75019538902E+03  0.00000000000E+00 0. -1.
         -1   -1    0    0    0  501 -0.00000000000E+00 -0.00000000000E+00 -0.39866913567E+02  0.39866913567E+02  0.00000000000E+00 0.  1.
         25    2    1    2    0    0  0.12905364390E+03  0.35996813712E+02  0.36435465807E+03  0.40786237489E+03  0.12508711523E+03 0.  0.
          5    1    3    3  502    0  0.12997694868E+03  0.41485226877E+02  0.37274979065E+03  0.39695706326E+03  0.41800000000E+01 0. -1.
         -5    1    3    3    0  502 -0.92330478018E+00 -0.54884131650E+01 -0.83951325848E+01  0.10905311637E+02  0.41800000000E+01 0. -1.
        -11    1    1    2    0    0 -0.80241475506E+02  0.18834319325E+02  0.23596941811E+03  0.24994997951E+03  0.00000000000E+00 0. -1.
         11    1    1    2    0    0 -0.48812168396E+02 -0.54831133037E+02  0.11000439928E+03  0.13224994818E+03  0.00000000000E+00 0.  1.
</event>
<event>
 7    1  0.2690635E-009  0.1257834E+03  0.7561462E-02  0.1233850E+00
         -1   -1    0    0    0  501 -0.00000000000E+00  0.00000000000E+00  0.17040125804E+02  0.17040125804E+02  0.00000000000E+00 0.  1.
          1   -1    0    0  501    0  0.00000000000E+00 -0.00000000000E+00 -0.12499933391E+04  0.12499933391E+04  0.00000000000E+00 0. -1.
         25    2    1    2    0    0  0.56043716961E+02 -0.47668941240E+02 -0.94083240674E+03  0.95195880572E+03  0.12508686605E+03 0.  0.
          5    1    3    3  502    0 -0.95907578503E+01  0.35842300557E+02 -0.18943124499E+03  0.19307594911E+03  0.41800000000E+01 0.  1.
         -5    1    3    3    0  502  0.65634474811E+02 -0.83511241798E+02 -0.75140116174E+03  0.75888285661E+03  0.41800000000E+01 0.  1.
        -11    1    1    2    0    0 -0.64730396436E+01  0.57103632031E+02 -0.90262643739E+02  0.10700499936E+03  0.00000000000E+00 0.  1.
         11    1    1    2    0    0 -0.49570677317E+02 -0.94346907910E+01 -0.20185816280E+03  0.20806965979E+03  0.00000000000E+00 0. -1.
</event>
<event>
 7    1  0.2690635E-009  0.1702478E+03  0.7561462E-02  0.1177590E+00
         -3   -1    0    0    0  501 -0.00000000000E+00  0.00000000000E+00  0.72235421543E+02  0.72235421543E+02  0.00000000000E+00 0.  1.
          3   -1    0    0  501    0  0.00000000000E+00 -0.00000000000E+00 -0.41859953271E+03  0.41859953271E+03  0.00000000000E+00 0. -1.
         25    2    1    2    0    0 -0.12215087439E+02  0.12331135243E+03 -0.13151171708E+03  0.21977027630E+03  0.12509494241E+03 0.  0.
          5    1    3    3  502    0  0.14385198198E+02 -0.22501471932E+02 -0.28110717513E+02  0.38999166727E+02  0.41800000000E+01 0.  1.
         -5    1    3    3    0  502 -0.26600285637E+02  0.14581282436E+03 -0.10340099957E+03  0.18077110957E+03  0.41800000000E+01 0.  1.
        -11    1    1    2    0    0 -0.33400885660E+02  0.32509332169E+00 -0.40010503095E+02  0.52120679259E+02  0.00000000000E+00 0.  1.
         11    1    1    2    0    0  0.45615973099E+02 -0.12363644575E+03 -0.17484189100E+03  0.21894399870E+03  0.00000000000E+00 0. -1.
</event>
<event>
 7    1  0.2690635E-009  0.9741662E+02  0.7561462E-02  0.1285824E+00
         -1   -1    0    0    0  501 -0.00000000000E+00  0.00000000000E+00  0.22763544712E+03  0.22763544712E+03  0.00000000000E+00 0.  1.
          1   -1    0    0  501    0  0.00000000000E+00 -0.00000000000E+00 -0.57913457441E+02  0.57913457441E+02  0.00000000000E+00 0. -1.
         25    2    1    2    0    0  0.11936907525E+02 -0.60617110063E+02  0.10214382900E+03  0.17291021617E+03  0.12509059620E+03 0.  0.
          5    1    3    3  502    0  0.58776789336E+02 -0.85205595214E+01  0.79179953535E+02  0.99066888217E+02  0.41800000000E+01 0.  1.
         -5    1    3    3    0  502 -0.46839881811E+02 -0.52096550541E+02  0.22963875466E+02  0.73843327951E+02  0.41800000000E+01 0.  1.
        -11    1    1    2    0    0 -0.96560886365E+01  0.82613926843E+01 -0.11918818940E+02  0.17422654842E+02  0.00000000000E+00 0. -1.
         11    1    1    2    0    0 -0.22808188884E+01  0.52355717378E+02  0.79496979621E+02  0.95216033555E+02  0.00000000000E+00 0.  1.
</event>
<event>
 7    1  0.2690635E-009  0.1071538E+03  0.7561462E-02  0.1265933E+00
         -3   -1    0    0    0  501 -0.00000000000E+00  0.00000000000E+00  0.21609741723E+03  0.21609741723E+03  0.00000000000E+00 0.  1.
          3   -1    0    0  501    0  0.00000000000E+00 -0.00000000000E+00 -0.73132868359E+02  0.73132868359E+02  0.00000000000E+00 0. -1.
         25    2    1    2    0    0 -0.23515268787E+02 -0.39156085901E+02  0.12833747910E+03  0.18494666144E+03  0.12509433283E+03 0.  0.
          5    1    3    3  502    0  0.11964455129E+02 -0.67467533518E+02  0.26885348926E+02  0.73724559357E+02  0.41800000000E+01 0. -1.
         -5    1    3    3    0  502 -0.35479723916E+02  0.28311447617E+02  0.10145213017E+03  0.11122210208E+03  0.41800000000E+01 0. -1.
        -11    1    1    2    0    0  0.95519625242E+01 -0.28985814050E+02  0.16513262658E+02  0.34700219708E+02  0.00000000000E+00 0. -1.
         11    1    1    2    0    0  0.13963306263E+02  0.68141899951E+02 -0.18861928795E+01  0.69583404446E+02  0.00000000000E+00 0.  1.
</event>
<event>
 7    1  0.2804731E-009  0.1113259E+03  0.7561462E-02  0.1258134E+00
         -1   -1    0    0    0  501 -0.00000000000E+00  0.00000000000E+00  0.62578883846E+02  0.62578883846E+02  0.00000000000E+00 0.  1.
          1   -1    0    0  501    0  0.00000000000E+00 -0.00000000000E+00 -0.28033152126E+03  0.28033152126E+03  0.00000000000E+00 0. -1.
         25    2    1    2    0    0  0.47245756428E+02 -0.20729511773E+02 -0.19158665660E+03  0.23455320307E+03  0.12509150220E+03 0.  0.
          5    1    3    3  502    0  0.79427379510E+02  0.16996473150E+02 -0.14569551148E+03  0.16685995080E+03  0.41800000000E+01 0. -1.
         -5    1    3    3    0  502 -0.32181623082E+02 -0.37725984923E+02 -0.45891145129E+02  0.67693252277E+02  0.41800000000E+01 0. -1.
        -11    1    1    2    0    0 -0.16228410417E+02  0.47741936328E+02  0.12450733029E+02  0.51939142676E+02  0.00000000000E+00 0.  1.
         11    1    1    2    0    0 -0.31017346012E+02 -0.27012424554E+02 -0.38616713837E+02  0.56418059356E+02  0.00000000000E+00 0. -1.
</event>
<event>
 7    1  0.2690635E-009  0.1306119E+03  0.7561462E-02  0.1226551E+00
         -1   -1    0    0    0  501 -0.00000000000E+00  0.00000000000E+00  0.29142599762E+02  0.29142599762E+02  0.00000000000E+00 0.  1.
          1   -1    0    0  501    0  0.00000000000E+00 -0.00000000000E+00 -0.94548895529E+03  0.94548895529E+03  0.00000000000E+00 0. -1.
         25    2    1    2    0    0  0.10987375178E+02  0.11247002701E+03 -0.33319165835E+03  0.37340724515E+03  0.12508421223E+03 0.  0.
          5    1    3    3  502    0 -0.64962777510E+01 -0.19441531209E+01  0.90755363400E+01  0.12075558614E+02  0.41800000000E+01 0.  1.
         -5    1    3    3    0  502  0.17483652929E+02  0.11441418013E+03 -0.34226719469E+03  0.36133168653E+03  0.41800000000E+01 0.  1.
        -11    1    1    2    0    0  0.23533371383E+02 -0.43357937608E+01 -0.42419686727E+02  0.48703680540E+02  0.00000000000E+00 0.  1.
         11    1    1    2    0    0 -0.34520746561E+02 -0.10813423325E+03 -0.54073501045E+03  0.55252062936E+03  0.00000000000E+00 0. -1.
</event>
<event>
 7    1  0.2690635E-009  0.1797061E+03  0.7561462E-02  0.1168088E+00
          2   -1    0    0  501    0  0.00000000000E+00  0.00000000000E+00  0.36598526073E+03  0.36598526073E+03  0.00000000000E+00 0. -1.
         -2   -1    0    0    0  501 -0.00000000000E+00 -0.00000000000E+00 -0.12217846381E+03  0.12217846381E+03  0.00000000000E+00 0.  1.
         25    2    1    2    0    0 -0.13915778321E+03  0.60924032930E+02  0.24076067995E+03  0.31094941862E+03  0.12508880651E+03 0.  0.
          5    1    3    3  502    0 -0.14797672685E+03  0.28291255307E+02  0.23045705365E+03  0.27536418211E+03  0.41800000000E+01 0.  1.
         -5    1    3    3    0  502  0.88189436377E+01  0.32632777622E+02  0.10303626305E+02  0.35585236507E+02  0.41800000000E+01 0.  1.
        -11    1    1    2    0    0  0.86564654820E+02  0.91218131500E+01  0.16501566117E+02  0.88594292274E+02  0.00000000000E+00 0. -1.
         11    1    1    2    0    0  0.52593128390E+02 -0.70045846079E+02 -0.13455449148E+02  0.88620013646E+02  0.00000000000E+00 0.  1.
</event>
<event>
 7    1  0.2690635E-009  0.1639162E+03  0.7561462E-02  0.1184345E+00
          1   -1    0    0  501    0  0.00000000000E+00  0.00000000000E+00  0.93428332978E+02  0.93428332978E+02  0.00000000000E+00 0. -1.
         -1   -1    0    0    0  501 -0.00000000000E+00 -0.00000000000E+00 -0.33195398899E+03  0.33195398899E+03  0.00000000000E+00 0.  1.
         25    2    1    2    0    0 -0.13724255036E+03  0.11929247647E+02 -0.13996446592E+03  0.23284046701E+03  0.12508719669E+03 0.  0.
          5    1    3    3  502    0 -0.14919920805E+03  0.94597903800E+01 -0.15337978984E+03  0.21422587063E+03  0.41800000000E+01 0. -1.
         -5    1    3    3    0  502  0.11956657693E+02  0.24694572668E+01  0.13415323915E+02  0.18614596373E+02  0.41800000000E+01 0. -1.
        -11    1    1    2    0    0 -0.41246551005E+01 -0.23191406435E+02 -0.15382294938E+02  0.28133060795E+02  0.00000000000E+00 0.  1.
         11    1    1    2    0    0  0.14136720546E+03  0.11262158788E+02 -0.83178895151E+02  0.16440879417E+03  0.00000000000E+00 0. -1.
</event>
<event>
 7    1  0.2690635E-009  0.8332252E+02  0.7561462E-02  0.1319879E+00
          1   -1    0    0  501    0  0.00000000000E+00  0.00000000000E+00  0.10946269427E+03  0.10946269427E+03  0.00000000000E+00 0. -1.
         -1   -1    0    0    0  501 -0.00000000000E+00 -0.00000000000E+00 -0.15679583892E+03  0.15679583892E+03  0.00000000000E+00 0.  1.
         25    2    1    2    0    0  0.39240820476E+02  0.35760580205E+02 -0.77072266140E+02  0.15623284783E+03  0.12509959011E+03 0.  0.
          5    1    3    3  502    0  0.62836481567E+02  0.31847009335E+02  0.49002433335E+01  0.70739947724E+02  0.41800000000E+01 0.  1.
         -5    1    3    3    0  502 -0.23595661092E+02  0.39135708703E+01 -0.81972509473E+02  0.85492900107E+02  0.41800000000E+01 0.  1.
        -11    1    1    2    0    0 -0.30381611994E+02 -0.47926366440E+02 -0.18348856068E+02  0.59637735256E+02  0.00000000000E+00 0.  1.
         11    1    1    2    0    0 -0.88592084815E+01  0.12165786235E+02  0.48087977564E+02  0.50387950105E+02  0.00000000000E+00 0. -1.
</event>
<event>
 7    1  0.2690635E-009  0.9839014E+02  0.7561462E-02  0.1283718E+00
         -2   -1    0    0    0  501 -0.00000000000E+00  0.00000000000E+00  0.60453675625E+02  0.60453675625E+02  0.00000000000E+00 0.  1.
          2   -1    0    0  501    0  0.00000000000E+00 -0.00000000000E+00 -0.22419401298E+03  0.22419401298E+03  0.00000000000E+00 0. -1.
         25    2    1    2    0    0 -0.17110989849E+02  0.12134993865E+02 -0.13136937753E+03  0.18260775848E+03  0.12509051145E+03 0.  0.
          5    1    3    3  502    0  0.49976066610E+02  0.28160685120E+02 -0.65047902826E+02  0.86829335379E+02  0.41800000000E+01 0. -1.
         -5    1    3    3    0  502 -0.67087056459E+02 -0.16025691255E+02 -0.66321474705E+02  0.95778423101E+02  0.41800000000E+01 0. -1.
        -11    1    1    2    0    0  0.36008599057E+02  0.13378075754E+02 -0.52047156252E+02  0.64687700460E+02  0.00000000000E+00 0. -1.
         11    1    1    2    0    0 -0.18897609208E+02 -0.25513069619E+02  0.19676196428E+02  0.37352229666E+02  0.00000000000E+00 0.  1.
</event>
<event>
 7    1  0.2690635E-009  0.1182758E+03  0.7561462E-02  0.1245969E+00
         -2   -1    0    0    0  501 -0.00000000000E+00  0.00000000000E+00  0.68792747826E+03  0.68792747826E+03  0.00000000000E+00 0.  1.
          2   -1    0    0  501    0  0.00000000000E+00 -0.00000000000E+00 -0.47269175381E+02  0.47269175381E+02  0.00000000000E+00 0. -1.
         25    2    1    2    0    0 -0.47196897973E+01 -0.92033160873E+02  0.11370522066E+03  0.19253425295E+03  0.12509269835E+03 0.  0.
          5    1    3    3  502    0  0.22885194332E+02 -0.17455696117E+02 -0.21123117508E+02  0.35945680405E+02  0.41800000000E+01 0. -1.
         -5    1    3    3    0  502 -0.27604884130E+02 -0.74577464756E+02  0.13482833817E+03  0.15658857255E+03  0.41800000000E+01 0. -1.
        -11    1    1    2    0    0 -0.32466026665E+02  0.45586809652E+01  0.99238659406E+02  0.10451380761E+03  0.00000000000E+00 0.  1.
         11    1    1    2    0    0  0.37185716462E+02  0.87474479908E+02  0.42771442281E+03  0.43814859308E+03  0.00000000000E+00 0. -1.
</event>
<event>
 7    1  0.2690635E-009  0.7686659E+02  0.7561462E-02  0.1338186E+00
          1   -1    0    0  501    0  0.00000000000E+00  0.00000000000E+00  0.55333764079E+03  0.55333764079E+03  0.00000000000E+00 0. -1.
         -1   -1    0    0    0  501 -0.00000000000E+00 -0.00000000000E+00 -0.40809510305E+02  0.40809510305E+02  0.00000000000E+00 0.  1.
         25    2    1    2    0    0 -0.48602593623E+02  0.23305756108E+02  0.44976155421E+03  0.46993416548E+03  0.12508914367E+03 0.  0.
          5    1    3    3  502    0 -0.42863111582E+02  0.81939375480E+01  0.38532224473E+02  0.58366014682E+02  0.41800000000E+01 0. -1.
         -5    1    3    3    0  502 -0.57394820411E+01  0.15111818560E+02  0.41122932974E+03  0.41156815080E+03  0.41800000000E+01 0. -1.
        -11    1    1    2    0    0  0.56756169470E+02  0.11106281629E+02  0.71056697306E+01  0.58267510731E+02  0.00000000000E+00 0.  1.
         11    1    1    2    0    0 -0.81535758468E+01 -0.34412037737E+02  0.55660906539E+02  0.65945474880E+02  0.00000000000E+00 0. -1.
</event>
<event>
 7    1  0.2690635E-009  0.1263850E+03  0.7561462E-02  0.1232921E+00
         -1   -1    0    0    0  501 -0.00000000000E+00  0.00000000000E+00  0.27164041839E+02  0.27164041839E+02  0.00000000000E+00 0.  1.
          1   -1    0    0  501    0  0.00000000000E+00 -0.00000000000E+00 -0.10023238120E+04  0.10023238120E+04  0.00000000000E+00 0. -1.
         25    2    1    2    0    0 -0.10784130964E+03  0.59449909563E+02 -0.54902843132E+03  0.57640520723E+03  0.12508678874E+03 0.  0.
          5    1    3    3  502    0 -0.94160497358E+02  0.62825532544E+02 -0.22368865772E+03  0.25073359327E+03  0.41800000000E+01 0.  1.
         -5    1    3    3    0  502 -0.13680812284E+02 -0.33756229811E+01 -0.32533977360E+03  0.32567161396E+03  0.41800000000E+01 0.  1.
        -11    1    1    2    0    0  0.65770042455E+02 -0.24780486994E+02 -0.36268479018E+03  0.36943203441E+03  0.00000000000E+00 0. -1.
         11    1    1    2    0    0  0.42071267186E+02 -0.34669422569E+02 -0.63446548668E+02  0.83650612202E+02  0.00000000000E+00 0.  1.
</event>
<event>
 7    1  0.2690635E-009  0.1282525E+03  0.7561462E-02  0.1230072E+00
          1   -1    0    0  501    0  0.00000000000E+00  0.00000000000E+00  0.83313570160E+02  0.83313570160E+02  0.00000000000E+00 0. -1.
         -1   -1    0    0    0  501 -0.00000000000E+00 -0.00000000000E+00 -0.38728753135E+03  0.38728753135E+03  0.00000000000E+00 0.  1.
         25    2    1    2    0    0 -0.30774473393E+02 -0.85794590917E+02 -0.30661650928E+03  0.34346624889E+03  0.12509036862E+03 0.  0.
          5    1    3    3  502    0  0.13161263323E+02 -0.10191229318E+03 -0.16670212262E+03  0.19587343985E+03  0.41800000000E+01 0. -1.
         -5    1    3    3    0  502 -0.43935736716E+02  0.16117702259E+02 -0.13991438666E+03  0.14759280904E+03  0.41800000000E+01 0. -1.
        -11    1    1    2    0    0  0.23308464396E+02  0.93253733034E+02 -0.23490500475E+02  0.98951234706E+02  0.00000000000E+00 0. -1.
         11    1    1    2    0    0  0.74660089977E+01 -0.74591421176E+01  0.26133048563E+02  0.28183617913E+02  0.00000000000E+00 0.  1.
</event>
<event>
 7    1  0.2690635E-009  0.1111542E+03  0.7561462E-02  0.1258447E+00
         -1   -1    0    0    0  501 -0.00000000000E+00  0.00000000000E+00  0.17748289065E+02  0.17748289065E+02  0.00000000000E+00 0.  1.
          1   -1    0    0  501    0  0.00000000000E+00 -0.00000000000E+00 -0.98884132635E+03  0.98884132635E+03  0.00000000000E+00 0. -1.
         25    2    1    2    0    0  0.54560251989E+02 -0.41855134904E+02 -0.40070870318E+03  0.42537409263E+03  0.12508789094E+03 0.  0.
          5    1    3    3  502    0 -0.24804420669E+02 -0.15459240576E+01 -0.24240882517E+03  0.24371532592E+03  0.41800000000E+01 0. -1.
         -5    1    3    3    0  502  0.79364672659E+02 -0.40309210847E+02 -0.15829987800E+03  0.18165876671E+03  0.41800000000E+01 0. -1.
        -11    1    1    2    0    0 -0.44110252316E+02  0.67311078648E+02 -0.48117995837E+03  0.48786334973E+03  0.00000000000E+00 0.  1.
         11    1    1    2    0    0 -0.10449999673E+02 -0.25455943743E+02 -0.89204375734E+02  0.93352173060E+02  0.00000000000E+00 0. -1.
</event>
<event>
 7    1  0.2690635E-009  0.1195920E+03  0.7561462E-02  0.1243772E+00
          2   -1    0    0  501    0  0.00000000000E+00  0.00000000000E+00  0.15522256600E+04  0.15522256600E+04  0.00000000000E+00 0. -1.
         -2   -1    0    0    0  501 -0.00000000000E+00 -0.00000000000E+00 -0.11976489569E+02  0.11976489569E+02  0.00000000000E+00 0.  1.
         25    2    1    2    0    0  0.74964092316E+01 -0.53510535939E+02  0.12100582180E+04  0.12177063441E+04  0.12509306905E+03 0.  0.
          5    1    3    3  502    0 -0.56375873544E+02 -0.10490428005E+02  0.61229352571E+03  0.61498709110E+03  0.41800000000E+01 0.  1.
         -5    1    3    3    0  502  0.63872282776E+02 -0.43020107935E+02  0.59776469226E+03  0.60271925298E+03  0.41800000000E+01 0.  1.
        -11    1    1    2    0    0  0.35138876496E+02 -0.12545440701E+01  0.12705307121E+03  0.13182866694E+03  0.00000000000E+00 0. -1.
         11    1    1    2    0    0 -0.42635285728E+02  0.54765080010E+02  0.20313788130E+03  0.21466713860E+03  0.00000000000E+00 0.  1.
</event>
<event>
 7    1  0.2690635E-009  0.9649393E+02  0.7561462E-02  0.1287846E+00
          1   -1    0    0  501    0  0.00000000000E+00  0.00000000000E+00  0.37677836590E+03  0.37677836590E+03  0.00000000000E+00 0. -1.
         -1   -1    0    0    0  501 -0.00000000000E+00 -0.00000000000E+00 -0.35781136083E+02  0.35781136083E+02  0.00000000000E+00 0.  1.
         25    2    1    2    0    0  0.37803931533E+02  0.20769187225E+02  0.19193742694E+03  0.23312595992E+03  0.12508893216E+03 0.  0.
          5    1    3    3  502    0 -0.79423667114E+01 -0.41406507034E+02  0.25089774253E+02  0.49239711471E+02  0.41800000000E+01 0.  1.
         -5    1    3    3    0  502  0.45746298244E+02  0.62175694260E+02  0.16684765269E+03  0.18388624845E+03  0.41800000000E+01 0.  1.
        -11    1    1    2    0    0  0.13649395560E+02  0.64602088969E+01 -0.40463558892E+01  0.15633722977E+02  0.00000000000E+00 0.  1.
         11    1    1    2    0    0 -0.51453327093E+02 -0.27229396122E+02  0.15310615876E+03  0.16379981909E+03  0.00000000000E+00 0. -1.
</event>
<event>
 7    1  0.2690635E-009  0.1711203E+03  0.7561462E-02  0.1176685E+00
          1   -1    0    0  501    0  0.00000000000E+00  0.00000000000E+00  0.65432951904E+03  0.65432951904E+03  0.00000000000E+00 0. -1.
         -1   -1    0    0    0  501 -0.00000000000E+00 -0.00000000000E+00 -0.52072066252E+02  0.52072066252E+02  0.00000000000E+00 0.  1.
         25    2    1    2    0    0 -0.50971061499E+02  0.14030099086E+03  0.30275706050E+03  0.35998216069E+03  0.12507158425E+03 0.  0.
          5    1    3    3  502    0  0.20248813030E+02  0.10203813764E+03  0.11284902491E+03  0.15353882501E+03  0.41800000000E+01 0.  1.
         -5    1    3    3    0  502 -0.71219874529E+02  0.38262853212E+02  0.18990803559E+03  0.20644333568E+03  0.41800000000E+01 0.  1.
        -11    1    1    2    0    0  0.51290874035E+02 -0.69527908352E+02  0.23605800620E+03  0.25137276322E+03  0.00000000000E+00 0. -1.
         11    1    1    2    0    0 -0.31981253619E+00 -0.70773082504E+02  0.63442386093E+02  0.95046661385E+02  0.00000000000E+00 0.  1.
</event>
<event>
 7    1  0.2690635E-009  0.1637973E+03  0.7561462E-02  0.1184475E+00
          1   -1    0    0  501    0  0.00000000000E+00  0.00000000000E+00  0.11521470231E+04  0.11521470231E+04  0.00000000000E+00 0. -1.
         -1   -1    0    0    0  501 -0.00000000000E+00 -0.00000000000E+00 -0.33682227005E+02  0.33682227005E+02  0.00000000000E+00 0.  1.
         25    2    1    2    0    0 -0.77310952945E+01 -0.16310593225E+03  0.59942119908E+03  0.63373209053E+03  0.12508906304E+03 0.  0.
          5    1    3    3  502    0 -0.44524976324E+00 -0.35064076075E+02  0.36316884536E+03  0.36488185803E+03  0.41800000000E+01 0.  1.
         -5    1    3    3    0  502 -0.72858455313E+01 -0.12804185617E+03  0.23625235372E+03  0.26885023250E+03  0.41800000000E+01 0.  1.
        -11    1    1    2    0    0  0.12226183050E+02  0.12225416312E+03  0.47976534555E+03  0.49524776299E+03  0.00000000000E+00 0. -1.
         11    1    1    2    0    0 -0.44950877559E+01  0.40851769133E+02  0.39278251482E+02  0.56849396608E+02  0.00000000000E+00 0.  1.
</event>
<event>
 7    1  0.2690635E-009  0.7193522E+02  0.7561462E-02  0.1353633E+00
          4   -1    0    0  501    0  0.00000000000E+00  0.00000000000E+00  0.28146263991E+03  0.28146263991E+03  0.00000000000E+00 0. -1.
         -4   -1    0    0    0  501 -0.00000000000E+00 -0.00000000000E+00 -0.45462747294E+02  0.45462747294E+02  0.00000000000E+00 0.  1.
         25    2    1    2    0    0 -0.10222337171E+02 -0.26591739636E+02  0.13348961149E+03  0.18514537039E+03  0.12509082703E+03 0.  0.
          5    1    3    3  502    0  0.35154984025E+02 -0.26410061335E+02  0.13238879203E+03  0.13956227605E+03  0.41800000000E+01 0.  1.
         -5    1    3    3    0  502 -0.45377321196E+02 -0.18167830133E+00  0.11008194562E+01  0.45583094338E+02  0.41800000000E+01 0.  1.
        -11    1    1    2    0    0  0.28642055569E+02  0.14550641818E+02 -0.45809789458E+01  0.32451100022E+02  0.00000000000E+00 0.  1.
         11    1    1    2    0    0 -0.18419718398E+02  0.12041097818E+02  0.10709126007E+03  0.10932891679E+03  0.00000000000E+00 0. -1.
</event>
<event>
 7    1  0.2690635E-009  0.1620271E+03  0.7561462E-02  0.1186427E+00
          2   -1    0    0  501    0  0.00000000000E+00  0.00000000000E+00  0.94777869572E+03  0.94777869572E+03  0.00000000000E+00 0. -1.
         -2   -1    0    0    0  501 -0.00000000000E+00 -0.00000000000E+00 -0.43405100923E+02  0.43405100923E+02  0.00000000000E+00 0.  1.
         25    2    1    2    0    0  0.14523112156E+03  0.37906839504E+02  0.66410783363E+03  0.69225424350E+03  0.12509083021E+03 0.  0.
          5    1    3    3  502    0  0.30652486399E+02 -0.25680554057E+02  0.49268862730E+02  0.63592130125E+02  0.41800000000E+01 0.  1.
         -5    1    3    3    0  502  0.11457863516E+03  0.63587393561E+02  0.61483897090E+03  0.62866211337E+03  0.41800000000E+01 0.  1.
        -11    1    1    2    0    0 -0.91740970115E+02 -0.37872241211E+02  0.22067043191E+03  0.24196312069E+03  0.00000000000E+00 0. -1.
         11    1    1    2    0    0 -0.53490151445E+02 -0.34598292654E-01  0.19595329260E+02  0.56966432462E+02  0.00000000000E+00 0.  1.
</event>
<event>
 7    1  0.2690635E-009  0.1532679E+03  0.7561462E-02  0.1196514E+00
          1   -1    0    0  501    0  0.00000000000E+00  0.00000000000E+00  0.23258834132E+03  0.23258834132E+03  0.00000000000E+00 0. -1.
         -1   -1    0    0    0  501 -0.00000000000E+00 -0.00000000000E+00 -0.11575617111E+03  0.11575617111E+03  0.00000000000E+00 0.  1.
         25    2    1    2    0    0 -0.42451021846E+02 -0.10197215845E+03  0.60251957859E+01  0.16698716363E+03  0.12509196409E+03 0.  0.
          5    1    3    3  502    0  0.10647127047E+02 -0.10868887798E+03 -0.12937638406E+02  0.11005220761E+03  0.41800000000E+01 0.  1.
         -5    1    3    3    0  502 -0.53098148893E+02  0.67167195362E+01  0.18962834192E+02  0.56934956026E+02  0.41800000000E+01 0.  1.
        -11    1    1    2    0    0  0.65826775638E+02  0.10050160972E+03  0.92044960761E+02  0.15134732488E+03  0.00000000000E+00 0.  1.
         11    1    1    2    0    0 -0.23375753792E+02  0.14705487245E+01  0.18762013655E+02  0.30010023914E+02  0.00000000000E+00 0. -1.
</event>
<event>
 7    1  0.2690635E-009  0.1147596E+03  0.7561462E-02  0.1252001E+00
          2   -1    0    0  501    0  0.00000000000E+00  0.00000000000E+00  0.72108899086E+02  0.72108899086E+02  0.00000000000E+00 0. -1.
         -2   -1    0    0    0  501 -0.00000000000E+00 -0.00000000000E+00 -0.21716602331E+03  0.21716602331E+03  0.00000000000E+00 0.  1.
         25    2    1    2    0    0  0.34430074447E+02  0.51256020619E+02 -0.73201408447E+02  0.15753809953E+03  0.12508875621E+03 0.  0.
          5    1    3    3  502    0 -0.21049528013E+02  0.67516455336E+02 -0.69831449008E+02  0.99475916891E+02  0.41800000000E+01 0.  1.
         -5    1    3    3    0  502  0.55479602460E+02 -0.16260434717E+02 -0.33699594387E+01  0.58062182640E+02  0.41800000000E+01 0.  1.
        -11    1    1    2    0    0 -0.16492664036E+02 -0.71665195318E+02 -0.74195665822E+02  0.10446485061E+03  0.00000000000E+00 0.  1.
         11    1    1    2    0    0 -0.17937410411E+02  0.20409174700E+02  0.23399500458E+01  0.27271972250E+02  0.00000000000E+00 0. -1.
</event>
<event>
 7    1  0.2690635E-009  0.1162096E+03  0.7561462E-02  0.1249484E+00
          3   -1    0    0  501    0  0.00000000000E+00  0.00000000000E+00  0.32172301187E+02  0.32172301187E+02  0.00000000000E+00 0. -1.
         -3   -1    0    0    0  501 -0.00000000000E+00 -0.00000000000E+00 -0.46296973983E+03  0.46296973983E+03  0.00000000000E+00 0.  1.
         25    2    1    2    0    0  0.52290160918E+02  0.12009382409E+02 -0.27969600010E+03  0.31105590008E+03  0.12508970506E+03 0.  0.
          5    1    3    3  502    0 -0.39749599084E+01  0.56046493802E+02 -0.72322745936E+02  0.91679123869E+02  0.41800000000E+01 0. -1.
         -5    1    3    3    0  502  0.56265120827E+02 -0.44037111393E+02 -0.20737325416E+03  0.21937677621E+03  0.41800000000E+01 0. -1.
        -11    1    1    2    0    0  0.25597816850E+02 -0.65692442025E+01 -0.29814551924E+02  0.39841068049E+02  0.00000000000E+00 0.  1.
         11    1    1    2    0    0 -0.77887977768E+02 -0.54401382064E+01 -0.12128688662E+03  0.14424507288E+03  0.00000000000E+00 0. -1.
</event>
<event>
 7    1  0.2690635E-009  0.9305354E+02  0.7561462E-02  0.1295621E+00
         -2   -1    0    0    0  501 -0.00000000000E+00  0.00000000000E+00  0.15511849880E+03  0.15511849880E+03  0.00000000000E+00 0.  1.
          2   -1    0    0  501    0  0.00000000000E+00 -0.00000000000E+00 -0.13004554496E+03  0.13004554496E+03  0.00000000000E+00 0. -1.
         25    2    1    2    0    0  0.22164213079E+02 -0.88626333809E+02  0.28488128730E+02  0.15749707562E+03  0.12509147039E+03 0.  0.
          5    1    3    3  502    0  0.18694346272E+02 -0.59553642929E+02 -0.45803853688E+02  0.77534381931E+02  0.41800000000E+01 0.  1.
         -5    1    3    3    0  502  0.34698668062E+01 -0.29072690880E+02  0.74291982419E+02  0.79962693691E+02  0.41800000000E+01 0.  1.
        -11    1    1    2    0    0  0.35983692510E+01  0.26097022117E+02  0.39567379141E+02  0.47535043039E+02  0.00000000000E+00 0.  1.
         11    1    1    2    0    0 -0.25762582330E+02  0.62529311692E+02 -0.42982554035E+02  0.80131925100E+02  0.00000000000E+00 0. -1.
</event>
<event>
 7    1  0.2690635E-009  0.1349771E+03  0.7561462E-02  0.1220252E+00
          2   -1    0    0  501    0  0.00000000000E+00  0.00000000000E+00  0.11718561566E+03  0.11718561566E+03  0.00000000000E+00 0. -1.
         -2   -1    0    0    0  501 -0.00000000000E+00 -0.00000000000E+00 -0.18536930738E+03  0.18536930738E+03  0.00000000000E+00 0.  1.
         25    2    1    2    0    0  0.93180595492E+02  0.30013763891E+02 -0.42378527166E+02  0.16439836369E+03  0.12508969989E+03 0.  0.
          5    1    3    3  502    0 -0.78313594303E+01  0.31956818324E+02 -0.53212493295E+02  0.62702553940E+02  0.41800000000E+01 0.  1.
         -5    1    3    3    0  502  0.10101195492E+03 -0.19430544331E+01  0.10833966129E+02  0.10169580975E+03  0.41800000000E+01 0.  1.
        -11    1    1    2    0    0 -0.22733716823E+02 -0.56113655901E+02 -0.95627869027E+01  0.61294462657E+02  0.00000000000E+00 0. -1.
         11    1    1    2    0    0 -0.70446878669E+02  0.26099892010E+02 -0.16242377645E+02  0.76862096698E+02  0.00000000000E+00 0.  1.
</event>
<event>
 7    1  0.2690635E-009  0.1053277E+03  0.7561462E-02  0.1269475E+00
         -1   -1    0    0    0  501 -0.00000000000E+00  0.00000000000E+00  0.41278115039E+03  0.41278115039E+03  0.00000000000E+00 0.  1.
          1   -1    0    0  501    0  0.00000000000E+00 -0.00000000000E+00 -0.30130197587E+02  0.30130197587E+02  0.00000000000E+00 0. -1.
         25    2    1    2    0    0 -0.39307824798E+02 -0.24094354242E+02  0.19116919809E+03  0.23305968485E+03  0.12508201872E+03 0.  0.
          5    1    3    3  502    0 -0.42856620307E+02 -0.69282767111E+02  0.86375369819E+02  0.11880643347E+03  0.41800000000E+01 0. -1.
         -5    1    3    3    0  502  0.35487955090E+01  0.45188412869E+02  0.10479382827E+03  0.11425325138E+03  0.41800000000E+01 0. -1.
        -11    1    1    2    0    0  0.55721196299E+02  0.33129402808E+02  0.12539775315E+03  0.14116304595E+03  0.00000000000E+00 0. -1.
         11    1    1    2    0    0 -0.16413371500E+02 -0.90350485658E+01  0.66084001563E+02  0.68688617173E+02  0.00000000000E+00 0.  1.
</event>
<event>
 7    1  0.2690635E-009  0.1499366E+03  0.7561462E-02  0.1200551E+00
         -1   -1    0    0    0  501 -0.00000000000E+00  0.00000000000E+00  0.32552912980E+03  0.32552912980E+03  0.00000000000E+00 0.  1.
          1   -1    0    0  501    0  0.00000000000E+00 -0.00000000000E+00 -0.70120944531E+02  0.70120944531E+02  0.00000000000E+00 0. -1.
         25    2    1    2    0    0  0.59023368183E+02 -0.10655020171E+03  0.16569451399E+03  0.24070897643E+03  0.12509770538E+03 0.  0.
          5    1    3    3  502    0  0.98462756316E+02 -0.77014464889E+02  0.12196506478E+03  0.17469714253E+03  0.41800000000E+01 0. -1.
         -5    1    3    3    0  502 -0.39439388133E+02 -0.29535736820E+02  0.43729449218E+02  0.66011833899E+02  0.41800000000E+01 0. -1.
        -11    1    1    2    0    0 -0.19961646631E+02  0.12609816283E+02  0.97729951069E+01  0.25553595368E+02  0.00000000000E+00 0.  1.
         11    1    1    2    0    0 -0.39061721552E+02  0.93940385427E+02  0.79940676168E+02  0.12938750253E+03  0.00000000000E+00 0. -1.
</event>
<event>
 7    1  0.2690635E-009  0.1989539E+03  0.7561462E-02  0.1150625E+00
          2   -1    0    0  501    0  0.00000000000E+00  0.00000000000E+00  0.79682790780E+02  0.79682790780E+02  0.00000000000E+00 0. -1.
         -2   -1    0    0    0  501 -0.00000000000E+00 -0.00000000000E+00 -0.62865601679E+03  0.62865601679E+03  0.00000000000E+00 0.  1.
         25    2    1    2    0    0  0.17850120048E+03 -0.74086381036E+02 -0.32569295429E+03  0.39884471852E+03  0.12509891520E+03 0.  0.
          5    1    3    3  502    0  0.90610726464E+02 -0.71106139429E+02 -0.86917769003E+02  0.14435566419E+03  0.41800000000E+01 0. -1.
         -5    1    3    3    0  502  0.87890474019E+02 -0.29802416067E+01 -0.23877518529E+03  0.25448905433E+03  0.41800000000E+01 0. -1.
        -11    1    1    2    0    0 -0.15428501144E+03  0.55060127658E+02 -0.22538182669E+03  0.27862600420E+03  0.00000000000E+00 0.  1.
         11    1    1    2    0    0 -0.24216189042E+02  0.19026253378E+02  0.21015549727E+01  0.30868084855E+02  0.00000000000E+00 0. -1.
</event>
<event>
 7    1  0.2690635E-009  0.1046704E+03  0.7561462E-02  0.1270770E+00
         -2   -1    0    0    0  501 -0.00000000000E+00  0.00000000000E+00  0.36863799619E+02  0.36863799619E+02  0.00000000000E+00 0.  1.
          2   -1    0    0  501    0  0.00000000000E+00 -0.00000000000E+00 -0.52696205458E+03  0.52696205458E+03  0.00000000000E+00 0. -1.
         25    2    1    2    0    0 -0.37439503904E+02  0.78374343446E+02 -0.28214467019E+03  0.32062034080E+03  0.12509010294E+03 0.  0.
          5    1    3    3  502    0 -0.27997325891E+02  0.36994019820E+02 -0.27307221311E+03  0.27701681128E+03  0.41800000000E+01 0.  1.
         -5    1    3    3    0  502 -0.94421780133E+01  0.41380323626E+02 -0.90724570805E+01  0.43603529519E+02  0.41800000000E+01 0.  1.
        -11    1    1    2    0    0  0.11368349342E+02 -0.90602687343E+02 -0.12087352957E+03  0.15148761161E+03  0.00000000000E+00 0.  1.
         11    1    1    2    0    0  0.26071154562E+02  0.12228343897E+02 -0.87080055199E+02  0.91717901786E+02  0.00000000000E+00 0. -1.
</event>
<event>
 7    1  0.2980327E-009  0.1143792E+03  0.7561462E-02  0.1252669E+00
          2   -1    0    0  501    0  0.00000000000E+00  0.00000000000E+00  0.16425443467E+03  0.16425443467E+03  0.00000000000E+00 0.  1.
         -2   -1    0    0    0  501 -0.00000000000E+00 -0.00000000000E+00 -0.12391481512E+03  0.12391481512E+03  0.00000000000E+00 0. -1.
         25    2    1    2    0    0  0.84355284967E+02 -0.34586903721E+02  0.54078347008E+01  0.15488922376E+03  0.12509739785E+03 0.  0.
          5    1    3    3  502    0 -0.13968132841E+02 -0.23631708492E+02  0.41127321605E+02  0.49623536389E+02  0.41800000000E+01 0.  1.
         -5    1    3    3    0  502  0.98323417808E+02 -0.10955195229E+02 -0.35719486905E+02  0.10526568737E+03  0.41800000000E+01 0.  1.
        -11    1    1    2    0    0 -0.10104436597E+02  0.25173335077E+02 -0.25388479582E+02  0.37153348885E+02  0.00000000000E+00 0. -1.
         11    1    1    2    0    0 -0.74250848370E+02  0.94135686435E+01  0.60320264430E+02  0.96126677146E+02  0.00000000000E+00 0.  1.
</event>
<event>
 7    1  0.2690635E-009  0.1561684E+03  0.7561462E-02  0.1193092E+00
          1   -1    0    0  501    0  0.00000000000E+00  0.00000000000E+00  0.37693315747E+03  0.37693315747E+03  0.00000000000E+00 0. -1.
         -1   -1    0    0    0  501 -0.00000000000E+00 -0.00000000000E+00 -0.73109820758E+02  0.73109820758E+02  0.00000000000E+00 0.  1.
         25    2    1    2    0    0 -0.77711139531E+02 -0.92830189945E+02  0.20487589963E+03  0.26884233580E+03  0.12508238044E+03 0.  0.
          5    1    3    3  502    0 -0.44528805907E+02  0.24370182476E+02  0.75749900040E+02  0.91281104865E+02  0.41800000000E+01 0. -1.
         -5    1    3    3    0  502 -0.33182333624E+02 -0.11720037242E+03  0.12912599959E+03  0.17756123093E+03  0.41800000000E+01 0. -1.
        -11    1    1    2    0    0 -0.12904269830E+02  0.17150013311E+02 -0.69951827850E+01  0.22573783879E+02  0.00000000000E+00 0.  1.
         11    1    1    2    0    0  0.90615409361E+02  0.75680176634E+02  0.10594261987E+03  0.15862685855E+03  0.00000000000E+00 0. -1.
</event>
<event>
 7    1  0.2690635E-009  0.8449789E+02  0.7561462E-02  0.1316751E+00
         -2   -1    0    0    0  501 -0.00000000000E+00  0.00000000000E+00  0.73065801023E+03  0.73065801023E+03  0.00000000000E+00 0.  1.
          2   -1    0    0  501    0  0.00000000000E+00 -0.00000000000E+00 -0.22748664613E+02  0.22748664613E+02  0.00000000000E+00 0. -1.
         25    2    1    2    0    0  0.38875828210E+02  0.22666731484E+02  0.55259077752E+03  0.56835631706E+03  0.12508886845E+03 0.  0.
          5    1    3    3  502    0  0.21553125176E+00  0.61314976903E+02  0.42590416799E+03  0.43031547214E+03  0.41800000000E+01 0. -1.
         -5    1    3    3    0  502  0.38660296958E+02 -0.38648245418E+02  0.12668660953E+03  0.13804084493E+03  0.41800000000E+01 0. -1.
        -11    1    1    2    0    0 -0.40707567675E+02 -0.12792277067E+02  0.16540289136E+03  0.17081822177E+03  0.00000000000E+00 0.  1.
         11    1    1    2    0    0  0.18317394654E+01 -0.98744544171E+01 -0.10084323267E+02  0.14232136004E+02  0.00000000000E+00 0. -1.
</event>
<event>
 7    1  0.2690635E-009  0.8078810E+02  0.7561462E-02  0.1326830E+00
         -2   -1    0    0    0  501 -0.00000000000E+00  0.00000000000E+00  0.30514183018E+03  0.30514183018E+03  0.00000000000E+00 0. -1.
          2   -1    0    0  501    0  0.00000000000E+00 -0.00000000000E+00 -0.46853437240E+02  0.46853437240E+02  0.00000000000E+00 0.  1.
         25    2    1    2    0    0 -0.50985172364E+02 -0.88278539007E+01  0.14189738299E+03  0.19611032757E+03  0.12508786701E+03 0.  0.
          5    1    3    3  502    0 -0.30097819913E+02  0.43035569064E+02  0.11151045247E+02  0.53849393481E+02  0.41800000000E+01 0.  1.
         -5    1    3    3    0  502 -0.20887352450E+02 -0.51863422965E+02  0.13074633775E+03  0.14226093409E+03  0.41800000000E+01 0.  1.
        -11    1    1    2    0    0  0.10366734599E+02  0.62968240317E+01 -0.14447004573E+02  0.18863592454E+02  0.00000000000E+00 0.  1.
         11    1    1    2    0    0  0.40618437764E+02  0.25310298691E+01  0.13083801452E+03  0.13702134739E+03  0.00000000000E+00 0. -1.
</event>
<event>
 7    1  0.2690635E-009  0.1234654E+03  0.7561462E-02  0.1237487E+00
         -1   -1    0    0    0  501 -0.00000000000E+00  0.00000000000E+00  0.47410092574E+02  0.47410092574E+02  0.00000000000E+00 0.  1.
          1   -1    0    0  501    0  0.00000000000E+00 -0.00000000000E+00 -0.32179870222E+03  0.32179870222E+03  0.00000000000E+00 0. -1.
         25    2    1    2    0    0  0.37994857602E+02 -0.45214542616E+02 -0.15475838986E+03  0.20758136344E+03  0.12510755031E+03 0.  0.
          5    1    3    3  502    0  0.32640702215E+02  0.40601464632E+02 -0.58465096359E+02  0.78418966223E+02  0.41800000000E+01 0. -1.
         -5    1    3    3    0  502  0.53541553870E+01 -0.85816007248E+02 -0.96293293505E+02  0.12916239721E+03  0.41800000000E+01 0. -1.
        -11    1    1    2    0    0 -0.61741082798E+02  0.55204284829E+02 -0.88250576149E+02  0.12102742895E+03  0.00000000000E+00 0.  1.
         11    1    1    2    0    0  0.23746225196E+02 -0.99897422129E+01 -0.31379643631E+02  0.40600002400E+02  0.00000000000E+00 0. -1.
</event>
<event>
 7    1  0.2690635E-009  0.1165013E+03  0.7561462E-02  0.1248983E+00
          2   -1    0    0  501    0  0.00000000000E+00  0.00000000000E+00  0.31619690542E+02  0.31619690542E+02  0.00000000000E+00 0. -1.
         -2   -1    0    0    0  501 -0.00000000000E+00 -0.00000000000E+00 -0.43192148114E+03  0.43192148114E+03  0.00000000000E+00 0.  1.
         25    2    1    2    0    0 -0.41479186225E+02 -0.79675326888E+01 -0.23124162385E+03  0.26627848160E+03  0.12509011429E+03 0.  0.
          5    1    3    3  502    0 -0.53291847026E+02  0.49494022175E+02 -0.13773683368E+03  0.15581587513E+03  0.41800000000E+01 0.  1.
         -5    1    3    3    0  502  0.11812660802E+02 -0.57461554864E+02 -0.93504790168E+02  0.11046260646E+03  0.41800000000E+01 0.  1.
        -11    1    1    2    0    0  0.60578686980E+02 -0.23131473731E+02 -0.10073824635E+03  0.11980415966E+03  0.00000000000E+00 0.  1.
         11    1    1    2    0    0 -0.19099500755E+02  0.31099006420E+02 -0.68321920392E+02  0.77458530424E+02  0.00000000000E+00 0. -1.
</event>
<event>
 7    1  0.2690635E-009  0.1335454E+03  0.7561462E-02  0.1222288E+00
         -1   -1    0    0    0  501 -0.00000000000E+00  0.00000000000E+00  0.33307264276E+03  0.33307264276E+03  0.00000000000E+00 0.  1.
          1   -1    0    0  501    0  0.00000000000E+00 -0.00000000000E+00 -0.82896653463E+02  0.82896653463E+02  0.00000000000E+00 0. -1.
         25    2    1    2    0    0  0.10962722451E+03 -0.45054925694E+02  0.84947012305E+02  0.19212355507E+03  0.12508953126E+03 0.  0.
          5    1    3    3  502    0  0.26499481018E+02  0.92007809957E+01  0.88268882814E+02  0.92713240361E+02  0.41800000000E+01 0. -1.
         -5    1    3    3    0  502  0.83127743492E+02 -0.54255706689E+02 -0.33218705089E+01  0.99410314707E+02  0.41800000000E+01 0. -1.
        -11    1    1    2    0    0 -0.11012298361E+02 -0.18873707401E+02  0.67654280081E+02  0.71095633899E+02  0.00000000000E+00 0.  1.
         11    1    1    2    0    0 -0.98614926149E+02  0.63928633094E+02  0.97574696910E+02  0.15275010725E+03  0.00000000000E+00 0. -1.
</event>
<event>
 7    1  0.2690635E-009  0.9956974E+02  0.7561462E-02  0.1281203E+00
         -1   -1    0    0    0  501 -0.00000000000E+00  0.00000000000E+00  0.71171135091E+02  0.71171135091E+02  0.00000000000E+00 0.  1.
          1   -1    0    0  501    0  0.00000000000E+00 -0.00000000000E+00 -0.31627343283E+03  0.31627343283E+03  0.00000000000E+00 0. -1.
         25    2    1    2    0    0  0.51095061507E+02 -0.12716551525E+02 -0.24702261221E+03  0.28185128597E+03  0.12509020932E+03 0.  0.
          5    1    3    3  502    0  0.65588815070E+02  0.34986481667E+02 -0.19912291524E+03  0.21258728639E+03  0.41800000000E+01 0. -1.
         -5    1    3    3    0  502 -0.14493753563E+02 -0.47703033192E+02 -0.47899696972E+02  0.69263999582E+02  0.41800000000E+01 0. -1.
        -11    1    1    2    0    0 -0.34264734706E+02  0.33493736755E+02 -0.35477394045E+02  0.59620029642E+02  0.00000000000E+00 0. -1.
         11    1    1    2    0    0 -0.16830326802E+02 -0.20777185230E+02  0.37397708511E+02  0.45973252313E+02  0.00000000000E+00 0.  1.
</event>
<event>
 7    1  0.2690635E-009  0.2063895E+03  0.7561462E-02  0.1144457E+00
         -2   -1    0    0    0  501 -0.00000000000E+00  0.00000000000E+00  0.34613039669E+02  0.34613039669E+02  0.00000000000E+00 0.  1.
          2   -1    0    0  501    0  0.00000000000E+00 -0.00000000000E+00 -0.14511259308E+04  0.14511259308E+04  0.00000000000E+00 0. -1.
         25    2    1    2    0    0 -0.67752248323E+02  0.17974987496E+03 -0.60139094285E+03  0.64359884472E+03  0.12509205443E+03 0.  0.
          5    1    3    3  502    0 -0.61708798934E+02  0.69037930521E+02 -0.13213952472E+03  0.16140798651E+03  0.41800000000E+01 0.  1.
         -5    1    3    3    0  502 -0.60434493895E+01  0.11071194444E+03 -0.46925141813E+03  0.48219085821E+03  0.41800000000E+01 0.  1.
        -11    1    1    2    0    0  0.21367773565E+02 -0.15517602905E+03 -0.54995359355E+03  0.57182614211E+03  0.00000000000E+00 0.  1.
         11    1    1    2    0    0  0.46384474758E+02 -0.24573845910E+02 -0.26516835474E+03  0.27031398365E+03  0.00000000000E+00 0. -1.
</event>
<event>
 7    1  0.2690635E-009  0.1639497E+03  0.7561462E-02  0.1184308E+00
         -2   -1    0    0    0  501 -0.00000000000E+00  0.00000000000E+00  0.36152071366E+03  0.36152071366E+03  0.00000000000E+00 0.  1.
          2   -1    0    0  501    0  0.00000000000E+00 -0.00000000000E+00 -0.10786037172E+03  0.10786037172E+03  0.00000000000E+00 0. -1.
         25    2    1    2    0    0  0.96508482268E+02  0.11220608718E+03  0.22115841375E+03  0.29404546746E+03  0.12509036657E+03 0.  0.
          5    1    3    3  502    0 -0.14015815534E+02  0.14105560351E+02 -0.75813993256E+01  0.21687783050E+02  0.41800000000E+01 0.  1.
         -5    1    3    3    0  502  0.11052429780E+03  0.98100526827E+02  0.22873981308E+03  0.27235768441E+03  0.41800000000E+01 0.  1.
        -11    1    1    2    0    0 -0.27756175598E+02 -0.78314196428E+02 -0.16018622525E+02  0.84617462227E+02  0.00000000000E+00 0. -1.
         11    1    1    2    0    0 -0.68752306669E+02 -0.33891890749E+02  0.48520550716E+02  0.90718155695E+02  0.00000000000E+00 0.  1.
</event>
<event>
 7    1  0.2690635E-009  0.1754210E+03  0.7561462E-02  0.1172310E+00
         -2   -1    0    0    0  501 -0.00000000000E+00  0.00000000000E+00  0.12247222085E+03  0.12247222085E+03  0.00000000000E+00 0.  1.
          2   -1    0    0  501    0  0.00000000000E+00 -0.00000000000E+00 -0.35814669460E+03  0.35814669460E+03  0.00000000000E+00 0. -1.
         25    2    1    2    0    0  0.72045153651E+01  0.16748237945E+03 -0.20342892747E+03  0.29177602565E+03  0.12509063972E+03 0.  0.
          5    1    3    3  502    0 -0.16241517620E+02  0.19310884207E+02  0.12776393077E+02  0.28590308909E+02  0.41800000000E+01 0.  1.
         -5    1    3    3    0  502  0.23446032985E+02  0.14817149524E+03 -0.21620532054E+03  0.26318571674E+03  0.41800000000E+01 0.  1.
        -11    1    1    2    0    0 -0.28620938656E+02 -0.75335886341E+02  0.16740737089E+02  0.82309818239E+02  0.00000000000E+00 0.  1.
         11    1    1    2    0    0  0.21416423291E+02 -0.92146493104E+02 -0.48986283368E+02  0.10653307156E+03  0.00000000000E+00 0. -1.
</event>
<event>
 7    1  0.2690635E-009  0.1003501E+03  0.7561462E-02  0.1279561E+00
          1   -1    0    0  501    0  0.00000000000E+00  0.00000000000E+00  0.24985761133E+03  0.24985761133E+03  0.00000000000E+00 0. -1.
         -1   -1    0    0    0  501 -0.00000000000E+00 -0.00000000000E+00 -0.62133438818E+02  0.62133438818E+02  0.00000000000E+00 0.  1.
         25    2    1    2    0    0 -0.11146895142E+02 -0.56764593246E+02  0.12855860378E+03  0.18847106562E+03  0.12509019006E+03 0.  0.
          5    1    3    3  502    0  0.31800544658E+02 -0.15231877228E+02  0.12334461863E+03  0.12835362117E+03  0.41800000000E+01 0.  1.
         -5    1    3    3    0  502 -0.42947439800E+02 -0.41532716018E+02  0.52139851583E+01  0.60117444443E+02  0.41800000000E+01 0.  1.
        -11    1    1    2    0    0  0.45550687680E+02  0.54205600434E+02  0.53074952741E+02  0.88487642499E+02  0.00000000000E+00 0.  1.
         11    1    1    2    0    0 -0.34403792538E+02  0.25589928121E+01  0.60906159872E+01  0.35032342033E+02  0.00000000000E+00 0. -1.
</event>
<event>
 7    1  0.2690635E-009  0.9113927E+02  0.7561462E-02  0.1300116E+00
          2   -1    0    0  501    0  0.00000000000E+00  0.00000000000E+00  0.23842263585E+03  0.23842263585E+03  0.00000000000E+00 0. -1.
         -2   -1    0    0    0  501 -0.00000000000E+00 -0.00000000000E+00 -0.10697088377E+03  0.10697088377E+03  0.00000000000E+00 0.  1.
         25    2    1    2    0    0 -0.77180887764E+02 -0.28689864532E+02  0.16076514261E+03  0.21970644376E+03  0.12508194350E+03 0.  0.
          5    1    3    3  502    0 -0.11710749537E+02 -0.31700865319E+02 -0.11024069249E+02  0.35792303914E+02  0.41800000000E+01 0.  1.
         -5    1    3    3    0  502 -0.65470138228E+02  0.30110007866E+01  0.17178921186E+03  0.18391413985E+03  0.41800000000E+01 0.  1.
        -11    1    1    2    0    0  0.22688238175E+02  0.11349438237E+02 -0.56823230087E+02  0.62228975383E+02  0.00000000000E+00 0.  1.
         11    1    1    2    0    0  0.54492649589E+02  0.17340426295E+02  0.27509839561E+02  0.63458100476E+02  0.00000000000E+00 0. -1.
</event>
<event>
 7    1  0.2690635E-009  0.1028568E+03  0.7561462E-02  0.1274401E+00
          2   -1    0    0  501    0  0.00000000000E+00  0.00000000000E+00  0.47448704348E+03  0.47448704348E+03  0.00000000000E+00 0. -1.
         -2   -1    0    0    0  501 -0.00000000000E+00 -0.00000000000E+00 -0.34848567603E+02  0.34848567603E+02  0.00000000000E+00 0.  1.
         25    2    1    2    0    0  0.31846192317E+02 -0.75494173453E+01  0.36663793739E+03  0.38876444606E+03  0.12507295360E+03 0.  0.
          5    1    3    3  502    0  0.53248870418E+02 -0.43293446649E+02  0.31433251624E+03  0.32176414948E+03  0.41800000000E+01 0. -1.
         -5    1    3    3    0  502 -0.21402678100E+02  0.35744029304E+02  0.52305421145E+02  0.67000296581E+02  0.41800000000E+01 0. -1.
        -11    1    1    2    0    0  0.28638756137E+02  0.17829620098E+02  0.18323993979E+02  0.38390655911E+02  0.00000000000E+00 0.  1.
         11    1    1    2    0    0 -0.60484948455E+02 -0.10280202753E+02  0.54676544515E+02  0.82180509114E+02  0.00000000000E+00 0. -1.
</event>
<event>
 7    1  0.2690635E-009  0.2025999E+03  0.7561462E-02  0.1147564E+00
          1   -1    0    0  501    0  0.00000000000E+00  0.00000000000E+00  0.19334986151E+03  0.19334986151E+03  0.00000000000E+00 0.  1.
         -1   -1    0    0    0  501 -0.00000000000E+00 -0.00000000000E+00 -0.26386411619E+03  0.26386411619E+03  0.00000000000E+00 0. -1.
         25    2    1    2    0    0  0.17552338636E+03 -0.28066887211E+02  0.52148203991E+02  0.22352413234E+03  0.12508954090E+03 0.  0.
          5    1    3    3  502    0  0.33349252562E+02  0.45355038160E+02  0.50787223321E+01  0.56679078622E+02  0.41800000000E+01 0. -1.
         -5    1    3    3    0  502  0.14217413380E+03 -0.73421925371E+02  0.47069481658E+02  0.16684505372E+03  0.41800000000E+01 0. -1.
        -11    1    1    2    0    0 -0.11118846972E+03 -0.13621626921E+02 -0.10807062624E+03  0.15565244866E+03  0.00000000000E+00 0. -1.
         11    1    1    2    0    0 -0.64334916640E+02  0.41688514132E+02 -0.14591832434E+02  0.78037396698E+02  0.00000000000E+00 0.  1.
</event>
<event>
 7    1  0.2690635E-009  0.1187996E+03  0.7561462E-02  0.1245091E+00
          2   -1    0    0  501    0  0.00000000000E+00  0.00000000000E+00  0.17487688276E+03  0.17487688276E+03  0.00000000000E+00 0. -1.
         -2   -1    0    0    0  501 -0.00000000000E+00 -0.00000000000E+00 -0.87909795623E+02  0.87909795623E+02  0.00000000000E+00 0.  1.
         25    2    1    2    0    0  0.48592129942E+02  0.80858954684E+01  0.22425198899E+02  0.13630206868E+03  0.12509511415E+03 0.  0.
          5    1    3    3  502    0  0.84434023097E+02  0.32724654468E+02  0.17590166179E+02  0.92341180481E+02  0.41800000000E+01 0. -1.
         -5    1    3    3    0  502 -0.35841893155E+02 -0.24638758999E+02  0.48350327197E+01  0.43960888201E+02  0.41800000000E+01 0. -1.
        -11    1    1    2    0    0 -0.96845842180E+01 -0.47141718111E+02  0.10443973188E+02  0.49246414427E+02  0.00000000000E+00 0. -1.
         11    1    1    2    0    0 -0.38907545724E+02  0.39055822643E+02  0.54097915050E+02  0.77238195275E+02  0.00000000000E+00 0.  1.
</event>
<event>
 7    1  0.2690635E-009  0.1333879E+03  0.7561462E-02  0.1222514E+00
         -2   -1    0    0    0  501 -0.00000000000E+00  0.00000000000E+00  0.22114669671E+02  0.22114669671E+02  0.00000000000E+00 0.  1.
          2   -1    0    0  501    0  0.00000000000E+00 -0.00000000000E+00 -0.12136223088E+04  0.12136223088E+04  0.00000000000E+00 0. -1.
         25    2    1    2    0    0 -0.30890256395E+02  0.89036185195E+02 -0.93630553516E+03  0.94931415261E+03  0.12509058704E+03 0.  0.
          5    1    3    3  502    0 -0.66045798853E+02  0.79095607113E+02 -0.45205511222E+03  0.46366955852E+03  0.41800000000E+01 0.  1.
         -5    1    3    3    0  502  0.35155542458E+02  0.99405780816E+01 -0.48425042294E+03  0.48564459409E+03  0.41800000000E+01 0.  1.
        -11    1    1    2    0    0 -0.44668533589E+01 -0.91333447952E+02 -0.20956166575E+03  0.22864348503E+03  0.00000000000E+00 0.  1.
         11    1    1    2    0    0  0.35357109754E+02  0.22972627571E+01 -0.45640438240E+02  0.57779340850E+02  0.00000000000E+00 0. -1.
</event>
<event>
 7    1  0.2690635E-009  0.1280169E+03  0.7561462E-02  0.1230428E+00
         -1   -1    0    0    0  501 -0.00000000000E+00  0.00000000000E+00  0.73449332532E+02  0.73449332532E+02  0.00000000000E+00 0.  1.
          1   -1    0    0  501    0  0.00000000000E+00 -0.00000000000E+00 -0.31931253700E+03  0.31931253700E+03  0.00000000000E+00 0. -1.
         25    2    1    2    0    0  0.38260936863E+02  0.73461453141E+02 -0.22155164544E+03  0.26756902258E+03  0.12509023087E+03 0.  0.
          5    1    3    3  502    0 -0.35720761616E+02  0.54011034312E+02 -0.58287814612E+02  0.87224459701E+02  0.41800000000E+01 0.  1.
         -5    1    3    3    0  502  0.73981698479E+02  0.19450418828E+02 -0.16326383083E+03  0.18034456288E+03  0.41800000000E+01 0.  1.
        -11    1    1    2    0    0 -0.25627428764E+02  0.11891285930E+02  0.13108972122E+02  0.31145030683E+02  0.00000000000E+00 0. -1.
         11    1    1    2    0    0 -0.12633508099E+02 -0.85352739071E+02 -0.37420531150E+02  0.94047816271E+02  0.00000000000E+00 0.  1.
</event>
<event>
 7    1  0.2690635E-009  0.7742839E+02  0.7561462E-02  0.1336512E+00
          1   -1    0    0  501    0  0.00000000000E+00  0.00000000000E+00  0.44269703902E+02  0.44269703902E+02  0.00000000000E+00 0. -1.
         -1   -1    0    0    0  501 -0.00000000000E+00 -0.00000000000E+00 -0.49508962557E+03  0.49508962557E+03  0.00000000000E+00 0.  1.
         25    2    1    2    0    0 -0.20809339841E+01 -0.36121211660E+02 -0.41547101032E+03  0.43539838369E+03  0.12508604992E+03 0.  0.
          5    1    3    3  502    0 -0.12672082726E+02  0.17327644046E+02 -0.65328946086E+01  0.22824987202E+02  0.41800000000E+01 0.  1.
         -5    1    3    3    0  502  0.10591148741E+02 -0.53448855706E+02 -0.40893811571E+03  0.41257339648E+03  0.41800000000E+01 0.  1.
        -11    1    1    2    0    0  0.11578659082E+02  0.55533270491E+02  0.62626752086E+01  0.57072152389E+02  0.00000000000E+00 0.  1.
         11    1    1    2    0    0 -0.94977250977E+01 -0.19412058831E+02 -0.41611586560E+02  0.46888793396E+02  0.00000000000E+00 0. -1.
</event>
<event>
 7    1  0.2690635E-009  0.1217603E+03  0.7561462E-02  0.1240221E+00
         -1   -1    0    0    0  501 -0.00000000000E+00  0.00000000000E+00  0.76944830505E+02  0.76944830505E+02  0.00000000000E+00 0.  1.
          1   -1    0    0  501    0  0.00000000000E+00 -0.00000000000E+00 -0.32459784522E+03  0.32459784522E+03  0.00000000000E+00 0. -1.
         25    2    1    2    0    0 -0.11467907059E+02  0.85429284366E+02 -0.37912345279E+02  0.15657040216E+03  0.12508904584E+03 0.  0.
          5    1    3    3  502    0 -0.63146534782E+02  0.46411815638E+02  0.52224670231E+01  0.78652959561E+02  0.41800000000E+01 0.  1.
         -5    1    3    3    0  502  0.51678627723E+02  0.39017468727E+02 -0.43134812302E+02  0.77917442601E+02  0.41800000000E+01 0.  1.
        -11    1    1    2    0    0  0.29021077792E+02 -0.73246140704E+02 -0.20925998738E+03  0.22360000538E+03  0.00000000000E+00 0. -1.
         11    1    1    2    0    0 -0.17553170733E+02 -0.12183143661E+02 -0.48068205413E+00  0.21372268188E+02  0.00000000000E+00 0.  1.
</event>
<event>
 7    1  0.2690635E-009  0.1073083E+03  0.7561462E-02  0.1265637E+00
         -2   -1    0    0    0  501 -0.00000000000E+00  0.00000000000E+00  0.35887007458E+02  0.35887007458E+02  0.00000000000E+00 0.  1.
          2   -1    0    0  501    0  0.00000000000E+00 -0.00000000000E+00 -0.35211770882E+03  0.35211770882E+03  0.00000000000E+00 0. -1.
         25    2    1    2    0    0  0.82782375196E+01  0.23570011137E+02 -0.21184988187E+03  0.24728765490E+03  0.12508691849E+03 0.  0.
          5    1    3    3  502    0 -0.53997787895E+02  0.22974250412E+02 -0.64708297291E+02  0.87454064615E+02  0.41800000000E+01 0. -1.
         -5    1    3    3    0  502  0.62276025414E+02  0.59576072547E+00 -0.14714158458E+03  0.15983359029E+03  0.41800000000E+01 0. -1.
        -11    1    1    2    0    0  0.28167508939E+02 -0.43503335063E+02 -0.47641112011E+02  0.70396195033E+02  0.00000000000E+00 0.  1.
         11    1    1    2    0    0 -0.36445746459E+02  0.19933323926E+02 -0.56739707483E+02  0.70320866341E+02  0.00000000000E+00 0. -1.
</event>
<event>
 7    1  0.2690635E-009  0.1244105E+03  0.7561462E-02  0.1235993E+00
         -2   -1    0    0    0  501 -0.00000000000E+00  0.00000000000E+00  0.18653443038E+02  0.18653443038E+02  0.00000000000E+00 0.  1.
          2   -1    0    0  501    0  0.00000000000E+00 -0.00000000000E+00 -0.90873867981E+03  0.90873867981E+03  0.00000000000E+00 0. -1.
         25    2    1    2    0    0 -0.51195333975E+02 -0.44461046296E+02 -0.38165007225E+03  0.40731028753E+03  0.12508855193E+03 0.  0.
          5    1    3    3  502    0  0.31147650013E+02 -0.50554098906E+02 -0.16672435742E+03  0.17703213486E+03  0.41800000000E+01 0.  1.
         -5    1    3    3    0  502 -0.82342983988E+02  0.60930526105E+01 -0.21492571482E+03  0.23027815267E+03  0.41800000000E+01 0.  1.
        -11    1    1    2    0    0  0.41998786991E+02 -0.16386559476E+02 -0.15893082831E+03  0.16520116715E+03  0.00000000000E+00 0.  1.
         11    1    1    2    0    0  0.91965469841E+01  0.60847605772E+02 -0.34950433622E+03  0.35488066817E+03  0.00000000000E+00 0. -1.
</event>
<event>
 7    1  0.2690635E-009  0.1030515E+03  0.7561462E-02  0.1274007E+00
          1   -1    0    0  501    0  0.00000000000E+00  0.00000000000E+00  0.37221654810E+03  0.37221654810E+03  0.00000000000E+00 0. -1.
         -1   -1    0    0    0  501 -0.00000000000E+00 -0.00000000000E+00 -0.55224969553E+02  0.55224969553E+02  0.00000000000E+00 0.  1.
         25    2    1    2    0    0  0.37900762140E+02  0.33504421121E+02  0.58117014466E+02  0.14690423213E+03  0.12507698446E+03 0.  0.
          5    1    3    3  502    0 -0.53810585788E+01  0.67502964986E+02  0.61544176701E+02  0.91601114399E+02  0.41800000000E+01 0.  1.
         -5    1    3    3    0  502  0.43281820719E+02 -0.33998543865E+02 -0.34271622351E+01  0.55303117730E+02  0.41800000000E+01 0.  1.
        -11    1    1    2    0    0 -0.29280083527E+02 -0.53665444967E+02  0.24916825308E+03  0.25655822266E+03  0.00000000000E+00 0. -1.
         11    1    1    2    0    0 -0.86206786126E+01  0.20161023846E+02  0.97063110014E+01  0.23979062857E+02  0.00000000000E+00 0.  1.
</event>
<event>
 7    1  0.2690635E-009  0.1053752E+03  0.7561462E-02  0.1269382E+00
          2   -1    0    0  501    0  0.00000000000E+00  0.00000000000E+00  0.79469986618E+02  0.79469986618E+02  0.00000000000E+00 0. -1.
         -2   -1    0    0    0  501 -0.00000000000E+00 -0.00000000000E+00 -0.17599486298E+03  0.17599486298E+03  0.00000000000E+00 0.  1.
         25    2    1    2    0    0 -0.14880640422E+02 -0.15551108395E+02 -0.89715566788E+01  0.12724379241E+03  0.12508886220E+03 0.  0.
          5    1    3    3  502    0 -0.42301020758E+02  0.44002333876E+02 -0.25305205915E+01  0.61232815370E+02  0.41800000000E+01 0. -1.
         -5    1    3    3    0  502  0.27420380336E+02 -0.59553442271E+02 -0.64410360873E+01  0.66010977042E+02  0.41800000000E+01 0. -1.
        -11    1    1    2    0    0 -0.25316627436E+02 -0.18367933588E+02 -0.70556589785E+01  0.32063919484E+02  0.00000000000E+00 0. -1.
         11    1    1    2    0    0  0.40197267858E+02  0.33919041983E+02 -0.80497660708E+02  0.96157137706E+02  0.00000000000E+00 0.  1.
</event>
<event>
 7    1  0.2690635E-009  0.1015676E+03  0.7561462E-02  0.1277034E+00
          1   -1    0    0  501    0  0.00000000000E+00  0.00000000000E+00  0.14584677364E+04  0.14584677364E+04  0.00000000000E+00 0. -1.
         -1   -1    0    0    0  501 -0.00000000000E+00 -0.00000000000E+00 -0.88178950755E+01  0.88178950755E+01  0.00000000000E+00 0.  1.
         25    2    1    2    0    0  0.16355622441E+02  0.52516299264E+02  0.10556708388E+04  0.10644787279E+04  0.12509426087E+03 0.  0.
          5    1    3    3  502    0  0.18281780709E+01  0.84165068096E+02  0.93562637376E+03  0.93941539512E+03  0.41800000000E+01 0.  1.
         -5    1    3    3    0  502  0.14527444370E+02 -0.31648768832E+02  0.12004446506E+03  0.12506333275E+03  0.41800000000E+01 0.  1.
        -11    1    1    2    0    0  0.12908632806E+02  0.89417479325E+01  0.81648774330E+02  0.83145114147E+02  0.00000000000E+00 0. -1.
         11    1    1    2    0    0 -0.29264255247E+02 -0.61458047197E+02  0.31233022815E+03  0.31966178942E+03  0.00000000000E+00 0.  1.
</event>
<event>
 7    1  0.2690635E-009  0.1491172E+03  0.7561462E-02  0.1201562E+00
         -2   -1    0    0    0  501 -0.00000000000E+00  0.00000000000E+00  0.28868194439E+02  0.28868194439E+02  0.00000000000E+00 0.  1.
          2   -1    0    0  501    0  0.00000000000E+00 -0.00000000000E+00 -0.85686761567E+03  0.85686761567E+03  0.00000000000E+00 0. -1.
         25    2    1    2    0    0  0.47545600075E+02 -0.10259992265E+03 -0.47587887840E+03  0.50487320801E+03  0.12509564759E+03 0.  0.
          5    1    3    3  502    0 -0.40775872024E+02 -0.53495525095E+02 -0.19870697097E+03  0.20982463072E+03  0.41800000000E+01 0. -1.
         -5    1    3    3    0  502  0.88321472099E+02 -0.49104397556E+02 -0.27717190743E+03  0.29504857729E+03  0.41800000000E+01 0. -1.
        -11    1    1    2    0    0 -0.36106274333E+02  0.11512349365E+02 -0.19700164913E+03  0.20061367599E+03  0.00000000000E+00 0. -1.
         11    1    1    2    0    0 -0.11439325742E+02  0.91087573286E+02 -0.15511889371E+03  0.18024892611E+03  0.00000000000E+00 0.  1.
</event>
<event>
 7    1  0.2690635E-009  0.2076943E+03  0.7561462E-02  0.1143405E+00
          2   -1    0    0  501    0  0.00000000000E+00  0.00000000000E+00  0.94790903332E+03  0.94790903332E+03  0.00000000000E+00 0.  1.
         -2   -1    0    0    0  501 -0.00000000000E+00 -0.00000000000E+00 -0.53613209575E+02  0.53613209575E+02  0.00000000000E+00 0. -1.
         25    2    1    2    0    0 -0.17403075110E+03  0.67731252309E+02  0.61406269754E+03  0.65390944939E+03  0.12510134537E+03 0.  0.
          5    1    3    3  502    0 -0.12622533340E+03 -0.16845552852E+02  0.35886660316E+03  0.38081402115E+03  0.41800000000E+01 0.  1.
         -5    1    3    3    0  502 -0.47805417691E+02  0.84576805160E+02  0.25519609439E+03  0.27309542823E+03  0.41800000000E+01 0.  1.
        -11    1    1    2    0    0  0.14357521110E+03 -0.38797226339E+02  0.26313755258E+03  0.30225889167E+03  0.00000000000E+00 0. -1.
         11    1    1    2    0    0  0.30455539991E+02 -0.28934025970E+02  0.17095573626E+02  0.45353901845E+02  0.00000000000E+00 0.  1.
</event>
<event>
 7    1  0.2690635E-009  0.9118079E+02  0.7561462E-02  0.1300017E+00
         -1   -1    0    0    0  501 -0.00000000000E+00  0.00000000000E+00  0.66513049042E+02  0.66513049042E+02  0.00000000000E+00 0.  1.
          1   -1    0    0  501    0  0.00000000000E+00 -0.00000000000E+00 -0.24296519902E+03  0.24296519902E+03  0.00000000000E+00 0. -1.
         25    2    1    2    0    0 -0.84165326923E+01 -0.55096054997E+02 -0.54203756277E+02  0.14728243001E+03  0.12509058196E+03 0.  0.
          5    1    3    3  502    0  0.26238355077E+02 -0.59594668085E+02 -0.80300472649E+02  0.10346793730E+03  0.41800000000E+01 0. -1.
         -5    1    3    3    0  502 -0.34654887769E+02  0.44986130889E+01  0.26096716372E+02  0.43814492710E+02  0.41800000000E+01 0. -1.
        -11    1    1    2    0    0  0.22009913207E+02 -0.30352428726E+01  0.39707546493E+01  0.22570243046E+02  0.00000000000E+00 0.  1.
         11    1    1    2    0    0 -0.13593380514E+02  0.58131297869E+02 -0.12621914835E+03  0.13962557501E+03  0.00000000000E+00 0. -1.
</event>
<event>
 7    1  0.2690635E-009  0.1096222E+03  0.7561462E-02  0.1261271E+00
         -3   -1    0    0    0  501 -0.00000000000E+00  0.00000000000E+00  0.19753146600E+03  0.19753146600E+03  0.00000000000E+00 0.  1.
          3   -1    0    0  501    0  0.00000000000E+00 -0.00000000000E+00 -0.10865969404E+03  0.10865969404E+03  0.00000000000E+00 0. -1.
         25    2    1    2    0    0  0.39352055131E+01  0.90538762456E+02  0.95658619545E+01  0.15476229080E+03  0.12508839910E+03 0.  0.
          5    1    3    3  502    0  0.12104260977E+02  0.62740570224E+02  0.65519109063E+02  0.91613963664E+02  0.41800000000E+01 0. -1.
         -5    1    3    3    0  502 -0.81690554640E+01  0.27798192232E+02 -0.55953247108E+02  0.63148327139E+02  0.41800000000E+01 0. -1.
        -11    1    1    2    0    0  0.26491577075E+02 -0.91737770703E+02  0.45001437391E+02  0.10555923265E+03  0.00000000000E+00 0. -1.
         11    1    1    2    0    0 -0.30426782588E+02  0.11990082467E+01  0.34304472616E+02  0.45869636590E+02  0.00000000000E+00 0.  1.
</event>
<event>
 7    1  0.2690635E-009  0.1336932E+03  0.7561462E-02  0.1222076E+00
         -1   -1    0    0    0  501 -0.00000000000E+00  0.00000000000E+00  0.24982910638E+03  0.24982910638E+03  0.00000000000E+00 0.  1.
          1   -1    0    0  501    0  0.00000000000E+00 -0.00000000000E+00 -0.97888299171E+02  0.97888299171E+02  0.00000000000E+00 0. -1.
         25    2    1    2    0    0  0.52538306813E+02 -0.92377595641E+02  0.43324910147E+02  0.16976295670E+03  0.12509404370E+03 0.  0.
          5    1    3    3  502    0  0.90003896907E+02 -0.76604785288E+02  0.13208817313E+02  0.11899974724E+03  0.41800000000E+01 0.  1.
         -5    1    3    3    0  502 -0.37465590094E+02 -0.15772810353E+02  0.30116092833E+02  0.50763209464E+02  0.41800000000E+01 0.  1.
        -11    1    1    2    0    0 -0.43221481431E+00  0.14792276445E+02 -0.16255064925E+02  0.21982388127E+02  0.00000000000E+00 0. -1.
         11    1    1    2    0    0 -0.52106091998E+02  0.77585319197E+02  0.12487096198E+03  0.15597206072E+03  0.00000000000E+00 0.  1.
</event>
<event>
 7    1  0.2690635E-009  0.1874922E+03  0.7561462E-02  0.1160743E+00
         -2   -1    0    0    0  501 -0.00000000000E+00  0.00000000000E+00  0.10919020881E+03  0.10919020881E+03  0.00000000000E+00 0.  1.
          2   -1    0    0  501    0  0.00000000000E+00 -0.00000000000E+00 -0.51136722761E+03  0.51136722761E+03  0.00000000000E+00 0. -1.
         25    2    1    2    0    0  0.16005851131E+03 -0.70778709558E+02 -0.56918980630E+02  0.22252292376E+03  0.12509327909E+03 0.  0.
          5    1    3    3  502    0  0.17201074127E+03 -0.61359041738E+02 -0.21737108991E+02  0.18396358722E+03  0.41800000000E+01 0. -1.
         -5    1    3    3    0  502 -0.11952229957E+02 -0.94196678208E+01 -0.35181871639E+02  0.38559336546E+02  0.41800000000E+01 0. -1.
        -11    1    1    2    0    0 -0.10942608709E+03  0.59870190372E+02 -0.31319401180E+03  0.33711866940E+03  0.00000000000E+00 0. -1.
         11    1    1    2    0    0 -0.50632424220E+02  0.10908519186E+02 -0.32064026372E+02  0.60915843262E+02  0.00000000000E+00 0.  1.
</event>
<event>
 7    1  0.2690635E-009  0.1095966E+03  0.7561462E-02  0.1261319E+00
          3   -1    0    0  501    0  0.00000000000E+00  0.00000000000E+00  0.21437549046E+03  0.21437549046E+03  0.00000000000E+00 0. -1.
         -3   -1    0    0    0  501 -0.00000000000E+00 -0.00000000000E+00 -0.10263588982E+03  0.10263588982E+03  0.00000000000E+00 0.  1.
         25    2    1    2    0    0 -0.48366937943E+02 -0.12986016682E+02  0.15509498670E+03  0.20544646442E+03  0.12508316244E+03 0.  0.
          5    1    3    3  502    0  0.31119999637E+02  0.22935211759E+02  0.84985343924E+02  0.93458329740E+02  0.41800000000E+01 0.  1.
         -5    1    3    3    0  502 -0.79486937580E+02 -0.35921228441E+02  0.70109642778E+02  0.11198813468E+03  0.41800000000E+01 0.  1.
        -11    1    1    2    0    0  0.30946910842E+02  0.46124444111E+02 -0.48545394092E+02  0.73768766580E+02  0.00000000000E+00 0.  1.
         11    1    1    2    0    0  0.17420027101E+02 -0.33138427429E+02  0.51900080278E+01  0.37796149275E+02  0.00000000000E+00 0. -1.
</event>
<event>
 7    1  0.2690635E-009  0.1069446E+03  0.7561462E-02  0.1266335E+00
         -2   -1    0    0    0  501 -0.00000000000E+00  0.00000000000E+00  0.90959379686E+02  0.90959379686E+02  0.00000000000E+00 0.  1.
          2   -1    0    0  501    0  0.00000000000E+00 -0.00000000000E+00 -0.31127969833E+03  0.31127969833E+03  0.00000000000E+00 0. -1.
         25    2    1    2    0    0 -0.28779958039E+02  0.62226405722E+02  0.10061856357E+02  0.14300035850E+03  0.12508976787E+03 0.  0.
          5    1    3    3  502    0  0.26997895916E+02  0.46678957820E+02  0.49093673873E+02  0.73044320117E+02  0.41800000000E+01 0.  1.
         -5    1    3    3    0  502 -0.55777853955E+02  0.15547447902E+02 -0.39031817516E+02  0.69956038386E+02  0.41800000000E+01 0.  1.
        -11    1    1    2    0    0 -0.25562917519E+02 -0.14298942018E+02 -0.14181516768E+03  0.14480837088E+03  0.00000000000E+00 0. -1.
         11    1    1    2    0    0  0.54342875557E+02 -0.47927463704E+02 -0.88567007324E+02  0.11443034863E+03  0.00000000000E+00 0.  1.
</event>
<event>
 7    1  0.2690635E-009  0.1145598E+03  0.7561462E-02  0.1252351E+00
          1   -1    0    0  501    0  0.00000000000E+00  0.00000000000E+00  0.16569047034E+03  0.16569047034E+03  0.00000000000E+00 0. -1.
         -1   -1    0    0    0  501 -0.00000000000E+00 -0.00000000000E+00 -0.13707049534E+03  0.13707049534E+03  0.00000000000E+00 0.  1.
         25    2    1    2    0    0  0.86436316691E+02 -0.70603856815E+01 -0.46074650321E+02  0.15903599445E+03  0.12509391768E+03 0.  0.
          5    1    3    3  502    0  0.17506632082E+02 -0.30387132021E+02 -0.73190364845E+02  0.81265994521E+02  0.41800000000E+01 0.  1.
         -5    1    3    3    0  502  0.68929684609E+02  0.23326746340E+02  0.27115714523E+02  0.77769999931E+02  0.41800000000E+01 0.  1.
        -11    1    1    2    0    0 -0.92207794918E+02 -0.19064066732E+02  0.68001415168E+02  0.11614606558E+03  0.00000000000E+00 0.  1.
         11    1    1    2    0    0  0.57714782272E+01  0.26124452414E+02  0.66932101457E+01  0.27578905651E+02  0.00000000000E+00 0. -1.
</event>
<event>
 7    1  0.2690635E-009  0.6727936E+02  0.7561462E-02  0.1369597E+00
         -2   -1    0    0    0  501 -0.00000000000E+00  0.00000000000E+00  0.61662157864E+02  0.61662157864E+02  0.00000000000E+00 0.  1.
          2   -1    0    0  501    0  0.00000000000E+00 -0.00000000000E+00 -0.24406472627E+03  0.24406472627E+03  0.00000000000E+00 0. -1.
         25    2    1    2    0    0 -0.94647563784E+01 -0.45271978604E+02 -0.58830477699E+02  0.14576561071E+03  0.12508978576E+03 0.  0.
          5    1    3    3  502    0  0.12929728630E+02 -0.10149243384E+02  0.37267155303E+02  0.40945064270E+02  0.41800000000E+01 0.  1.
         -5    1    3    3    0  502 -0.22394485008E+02 -0.35122735221E+02 -0.96097633002E+02  0.10482054644E+03  0.41800000000E+01 0.  1.
        -11    1    1    2    0    0 -0.23596478299E+02  0.32784633515E+02 -0.11731036940E+03  0.12406993492E+03  0.00000000000E+00 0. -1.
         11    1    1    2    0    0  0.33061234677E+02  0.12487345090E+02 -0.62617213126E+01  0.35891338503E+02  0.00000000000E+00 0.  1.
</event>
<event>
 7    1  0.2690635E-009  0.7791176E+02  0.7561462E-02  0.1335084E+00
         -2   -1    0    0    0  501 -0.00000000000E+00  0.00000000000E+00  0.23086400194E+03  0.23086400194E+03  0.00000000000E+00 0.  1.
          2   -1    0    0  501    0  0.00000000000E+00 -0.00000000000E+00 -0.56342427899E+02  0.56342427899E+02  0.00000000000E+00 0. -1.
         25    2    1    2    0    0  0.15699359078E+02 -0.33990413431E+02  0.90367637220E+02  0.15879447624E+03  0.12509019844E+03 0.  0.
          5    1    3    3  502    0 -0.31038399394E+02  0.13752418704E+02 -0.12198899020E+02  0.36315241903E+02  0.41800000000E+01 0. -1.
         -5    1    3    3    0  502  0.46737758472E+02 -0.47742832135E+02  0.10256653624E+03  0.12247923434E+03  0.41800000000E+01 0. -1.
        -11    1    1    2    0    0 -0.27250279437E+02  0.11873628066E+02 -0.97238860584E+01  0.31274825866E+02  0.00000000000E+00 0. -1.
         11    1    1    2    0    0  0.11550920359E+02  0.22116785365E+02  0.93877822884E+02  0.97137127739E+02  0.00000000000E+00 0.  1.
</event>
<event>
 7    1  0.2690635E-009  0.1091693E+03  0.7561462E-02  0.1262116E+00
          2   -1    0    0  501    0  0.00000000000E+00  0.00000000000E+00  0.30680944134E+02  0.30680944134E+02  0.00000000000E+00 0.  1.
         -2   -1    0    0    0  501 -0.00000000000E+00 -0.00000000000E+00 -0.56655494194E+03  0.56655494194E+03  0.00000000000E+00 0. -1.
         25    2    1    2    0    0  0.44439460848E+02 -0.24490827471E+02 -0.42621403486E+03  0.44707982423E+03  0.12508916584E+03 0.  0.
          5    1    3    3  502    0 -0.38699217098E+02 -0.26681325584E+02 -0.21336085864E+03  0.21851739276E+03  0.41800000000E+01 0.  1.
         -5    1    3    3    0  502  0.83138677946E+02  0.21904981133E+01 -0.21285317622E+03  0.22856243147E+03  0.41800000000E+01 0.  1.
        -11    1    1    2    0    0 -0.45017127613E+02 -0.15702760892E+02 -0.19631054526E+02  0.51560612680E+02  0.00000000000E+00 0. -1.
         11    1    1    2    0    0  0.57766676559E+00  0.40193588362E+02 -0.90028908423E+02  0.98595449165E+02  0.00000000000E+00 0.  1.
</event>
<event>
 7    1  0.2832970E-009  0.2526046E+03  0.7561462E-02  0.1111670E+00
         -1   -1    0    0    0  501 -0.00000000000E+00  0.00000000000E+00  0.17406873662E+03  0.17406873662E+03  0.00000000000E+00 0.  1.
          1   -1    0    0  501    0  0.00000000000E+00 -0.00000000000E+00 -0.39272302763E+03  0.39272302763E+03  0.00000000000E+00 0. -1.
         25    2    1    2    0    0 -0.15661205836E+03  0.16744758729E+03 -0.44743545191E+02  0.26498446481E+03  0.12509496568E+03 0.  0.
          5    1    3    3  502    0 -0.17825906113E+03  0.15081536563E+03 -0.38843025977E+02  0.23674420891E+03  0.41800000000E+01 0. -1.
         -5    1    3    3    0  502  0.21647002768E+02  0.16632221661E+02 -0.59005192144E+01  0.28240255898E+02  0.41800000000E+01 0. -1.
        -11    1    1    2    0    0  0.46404660506E+02 -0.11083752489E+03 -0.63773350319E+02  0.13603451639E+03  0.00000000000E+00 0.  1.
         11    1    1    2    0    0  0.11020739786E+03 -0.56610062406E+02 -0.11013739550E+03  0.16577278304E+03  0.00000000000E+00 0. -1.
</event>
<event>
 7    1  0.2690635E-009  0.1696930E+03  0.7561462E-02  0.1178168E+00
         -2   -1    0    0    0  501 -0.00000000000E+00  0.00000000000E+00  0.17136038915E+03  0.17136038915E+03  0.00000000000E+00 0.  1.
          2   -1    0    0  501    0  0.00000000000E+00 -0.00000000000E+00 -0.23464395891E+03  0.23464395891E+03  0.00000000000E+00 0. -1.
         25    2    1    2    0    0 -0.28479750511E+02  0.15006077329E+03  0.38902144750E+02  0.20122335513E+03  0.12509248545E+03 0.  0.
          5    1    3    3  502    0 -0.26666845966E+02  0.30603091232E+01 -0.28561456661E+02  0.39417196403E+02  0.41800000000E+01 0. -1.
         -5    1    3    3    0  502 -0.18129045453E+01  0.14700046417E+03  0.67463601411E+02  0.16180615873E+03  0.41800000000E+01 0. -1.
        -11    1    1    2    0    0  0.39432951537E+02 -0.46318481186E+02 -0.31077016829E+01  0.60909910327E+02  0.00000000000E+00 0.  1.
         11    1    1    2    0    0 -0.10953201026E+02 -0.10374229210E+03 -0.99078012830E+02  0.14387108260E+03  0.00000000000E+00 0. -1.
</event>
<event>
 7    1  0.2690635E-009  0.1243040E+03  0.7561462E-02  0.1236161E+00
         -3   -1    0    0    0  501 -0.00000000000E+00  0.00000000000E+00  0.41702948457E+02  0.41702948457E+02  0.00000000000E+00 0.  1.
          3   -1    0    0  501    0  0.00000000000E+00 -0.00000000000E+00 -0.63943085973E+03  0.63943085973E+03  0.00000000000E+00 0. -1.
         25    2    1    2    0    0  0.11528285536E+03 -0.30786312458E+02 -0.35325765625E+03  0.39328663847E+03  0.12508187131E+03 0.  0.
          5    1    3    3  502    0  0.36389547662E+02 -0.16127999918E+02 -0.28517376974E+03  0.28796851027E+03  0.41800000000E+01 0.  1.
         -5    1    3    3    0  502  0.78893307696E+02 -0.14658312541E+02 -0.68083886507E+02  0.10531812820E+03  0.41800000000E+01 0.  1.
        -11    1    1    2    0    0 -0.32501773631E+02 -0.12494544635E+02 -0.11214532677E+02  0.36582026706E+02  0.00000000000E+00 0.  1.
         11    1    1    2    0    0 -0.82781081728E+02  0.43280857094E+02 -0.23325572235E+03  0.25126514301E+03  0.00000000000E+00 0. -1.
</event>
<event>
 7    1  0.2690635E-009  0.8688132E+02  0.7561462E-02  0.1310585E+00
          2   -1    0    0  501    0  0.00000000000E+00  0.00000000000E+00  0.43721900403E+03  0.43721900403E+03  0.00000000000E+00 0.  1.
         -2   -1    0    0    0  501 -0.00000000000E+00 -0.00000000000E+00 -0.29022328222E+02  0.29022328222E+02  0.00000000000E+00 0. -1.
         25    2    1    2    0    0  0.20330295625E+02  0.11413506138E+02  0.19154396725E+03  0.22995585037E+03  0.12508801977E+03 0.  0.
          5    1    3    3  502    0 -0.24631431773E+02  0.36888854755E+02  0.16688673504E+02  0.47576036611E+02  0.41800000000E+01 0. -1.
         -5    1    3    3    0  502  0.44961727398E+02 -0.25475348617E+02  0.17485529374E+03  0.18237981376E+03  0.41800000000E+01 0. -1.
        -11    1    1    2    0    0  0.26618062640E+02 -0.14504750746E+02  0.15903361532E+03  0.16189688031E+03  0.00000000000E+00 0.  1.
         11    1    1    2    0    0 -0.46948358266E+02  0.30912446082E+01  0.57619093242E+02  0.74388601567E+02  0.00000000000E+00 0. -1.
</event>
<event>
 7    1  0.2690635E-009  0.1522938E+03  0.7561462E-02  0.1197682E+00
         -4   -1    0    0    0  501 -0.00000000000E+00  0.00000000000E+00  0.85011820072E+02  0.85011820072E+02  0.00000000000E+00 0. -1.
          4   -1    0    0  501    0  0.00000000000E+00 -0.00000000000E+00 -0.56811821586E+03  0.56811821586E+03  0.00000000000E+00 0.  1.
         25    2    1    2    0    0  0.96509604027E+02 -0.10024853052E+03 -0.44506825451E+03  0.48280035456E+03  0.12508620887E+03 0.  0.
          5    1    3    3  502    0  0.88460069656E+02 -0.97510382363E+02 -0.21233368878E+03  0.24987302052E+03  0.41800000000E+01 0.  1.
         -5    1    3    3    0  502  0.80495343714E+01 -0.27381481555E+01 -0.23273456572E+03  0.23292733403E+03  0.41800000000E+01 0.  1.
        -11    1    1    2    0    0 -0.90681526287E+02  0.11562682387E+03 -0.43078672431E+02  0.15312894445E+03  0.00000000000E+00 0.  1.
         11    1    1    2    0    0 -0.58280777408E+01 -0.15378293355E+02  0.50405311488E+01  0.17200736930E+02  0.00000000000E+00 0. -1.
</event>
<event>
 7    1  0.2690635E-009  0.1261920E+03  0.7561462E-02  0.1233218E+00
         -3   -1    0    0    0  501 -0.00000000000E+00  0.00000000000E+00  0.24780161622E+02  0.24780161622E+02  0.00000000000E+00 0.  1.
          3   -1    0    0  501    0  0.00000000000E+00 -0.00000000000E+00 -0.75490722081E+03  0.75490722081E+03  0.00000000000E+00 0. -1.
         25    2    1    2    0    0 -0.67108046622E+02  0.78599551395E+01 -0.54118126303E+03  0.55954279475E+03  0.12508281611E+03 0.  0.
          5    1    3    3  502    0 -0.52018099751E+02  0.63629617926E+02 -0.27087813702E+03  0.28310254060E+03  0.41800000000E+01 0.  1.
         -5    1    3    3    0  502 -0.15089946871E+02 -0.55769662787E+02 -0.27030312600E+03  0.27644025414E+03  0.41800000000E+01 0.  1.
        -11    1    1    2    0    0  0.51600191825E+02  0.37786649046E+02 -0.94528673059E+02  0.11413185652E+03  0.00000000000E+00 0.  1.
         11    1    1    2    0    0  0.15507854797E+02 -0.45646604185E+02 -0.94417123098E+02  0.10601273116E+03  0.00000000000E+00 0. -1.
</event>
<event>
 7    1  0.2690635E-009  0.8004660E+02  0.7561462E-02  0.1328919E+00
         -1   -1    0    0    0  501 -0.00000000000E+00  0.00000000000E+00  0.75055158380E+03  0.75055158380E+03  0.00000000000E+00 0.  1.
          1   -1    0    0  501    0  0.00000000000E+00 -0.00000000000E+00 -0.19223035762E+02  0.19223035762E+02  0.00000000000E+00 0. -1.
         25    2    1    2    0    0  0.21064423378E+02  0.34915958702E+02  0.49490544833E+03  0.51209572183E+03  0.12509113247E+03 0.  0.
          5    1    3    3  502    0  0.27377396840E+02  0.67761522093E+01  0.47708899500E+03  0.47794018417E+03  0.41800000000E+01 0.  1.
         -5    1    3    3    0  502 -0.63129734617E+01  0.28139806493E+02  0.17816453335E+02  0.34155537660E+02  0.41800000000E+01 0.  1.
        -11    1    1    2    0    0 -0.28496036537E+02 -0.65254698335E+02  0.16764675443E+03  0.18214179648E+03  0.00000000000E+00 0.  1.
         11    1    1    2    0    0  0.74316131595E+01  0.30338739633E+02  0.68776345275E+02  0.75537101255E+02  0.00000000000E+00 0. -1.
</event>
<event>
 7    1  0.2690635E-009  0.8452496E+02  0.7561462E-02  0.1316680E+00
         -3   -1    0    0    0  501 -0.00000000000E+00  0.00000000000E+00  0.46866865329E+02  0.46866865329E+02  0.00000000000E+00 0.  1.
          3   -1    0    0  501    0  0.00000000000E+00 -0.00000000000E+00 -0.26238352290E+03  0.26238352290E+03  0.00000000000E+00 0. -1.
         25    2    1    2    0    0  0.21227962880E+02  0.55117013103E+01 -0.13304568617E+03  0.18392845201E+03  0.12509002994E+03 0.  0.
          5    1    3    3  502    0  0.56009307195E+02  0.44995482020E+02 -0.59364282389E+02  0.93291083809E+02  0.41800000000E+01 0. -1.
         -5    1    3    3    0  502 -0.34781344315E+02 -0.39483780710E+02 -0.73681403776E+02  0.90637368199E+02  0.41800000000E+01 0. -1.
        -11    1    1    2    0    0  0.84877325547E+01  0.79932169013E+01  0.17010471992E+02  0.20622542950E+02  0.00000000000E+00 0.  1.
         11    1    1    2    0    0 -0.29715695435E+02 -0.13504918212E+02 -0.99481443399E+02  0.10469939327E+03  0.00000000000E+00 0. -1.
</event>
<event>
 7    1  0.2690635E-009  0.5513449E+02  0.7561462E-02  0.1419464E+00
          3   -1    0    0  501    0  0.00000000000E+00  0.00000000000E+00  0.14573780073E+03  0.14573780073E+03  0.00000000000E+00 0. -1.
         -3   -1    0    0    0  501 -0.00000000000E+00 -0.00000000000E+00 -0.10932640758E+03  0.10932640758E+03  0.00000000000E+00 0.  1.
         25    2    1    2    0    0  0.19300995836E+02  0.32586648081E+01  0.82859076206E+02  0.15131633393E+03  0.12509140285E+03 0.  0.
          5    1    3    3  502    0  0.30073784685E+01 -0.23210045120E+02  0.10833391556E+03  0.11091194787E+03  0.41800000000E+01 0.  1.
         -5    1    3    3    0  502  0.16293617368E+02  0.26468709928E+02 -0.25474839357E+02  0.40404386055E+02  0.41800000000E+01 0.  1.
        -11    1    1    2    0    0 -0.14521526706E+02  0.23677631222E+02  0.18432708603E+02  0.33335712151E+02  0.00000000000E+00 0. -1.
         11    1    1    2    0    0 -0.47794691307E+01 -0.26936296030E+02 -0.64880391656E+02  0.70412162234E+02  0.00000000000E+00 0.  1.
</event>
<event>
 7    1  0.2690635E-009  0.1650640E+03  0.7561462E-02  0.1183095E+00
          1   -1    0    0  501    0  0.00000000000E+00  0.00000000000E+00  0.70535622374E+03  0.70535622374E+03  0.00000000000E+00 0. -1.
         -1   -1    0    0    0  501 -0.00000000000E+00 -0.00000000000E+00 -0.41385460241E+02  0.41385460241E+02  0.00000000000E+00 0.  1.
         25    2    1    2    0    0  0.87804950367E+02 -0.97015144827E+02  0.37777386266E+03  0.41890608045E+03  0.12509022860E+03 0.  0.
          5    1    3    3  502    0 -0.14015976944E+02  0.20301309493E+02  0.41434298103E+02  0.48403142833E+02  0.41800000000E+01 0.  1.
         -5    1    3    3    0  502  0.10182092731E+03 -0.11731645432E+03  0.33633956456E+03  0.37050293762E+03  0.41800000000E+01 0.  1.
        -11    1    1    2    0    0 -0.38978032779E+02  0.92857379301E+02  0.24090380891E+03  0.26110615672E+03  0.00000000000E+00 0. -1.
         11    1    1    2    0    0 -0.48826917588E+02  0.41577655264E+01  0.45293091914E+02  0.66729446802E+02  0.00000000000E+00 0.  1.
</event>
<event>
 7    1  0.2690635E-009  0.1090657E+03  0.7561462E-02  0.1262310E+00
          1   -1    0    0  501    0  0.00000000000E+00  0.00000000000E+00  0.21430211880E+03  0.21430211880E+03  0.00000000000E+00 0. -1.
         -1   -1    0    0    0  501 -0.00000000000E+00 -0.00000000000E+00 -0.72772271053E+02  0.72772271053E+02  0.00000000000E+00 0.  1.
         25    2    1    2    0    0 -0.63315067090E+01 -0.46622076169E+02  0.38293205106E+02  0.13902601361E+03  0.12509259346E+03 0.  0.
          5    1    3    3  502    0  0.34508659515E+02  0.17110531743E+02  0.48996142637E+02  0.62463687623E+02  0.41800000000E+01 0.  1.
         -5    1    3    3    0  502 -0.40840166224E+02 -0.63732607912E+02 -0.10702937531E+02  0.76562325986E+02  0.41800000000E+01 0.  1.
        -11    1    1    2    0    0 -0.21703744733E+02  0.66012886560E+02  0.83599325335E+02  0.10870878954E+03  0.00000000000E+00 0. -1.
         11    1    1    2    0    0  0.28035251442E+02 -0.19390810391E+02  0.19637317311E+02  0.39339586706E+02  0.00000000000E+00 0.  1.
</event>
<event>
 7    1  0.2690635E-009  0.1846489E+03  0.7561462E-02  0.1163378E+00
         -2   -1    0    0    0  501 -0.00000000000E+00  0.00000000000E+00  0.38639319631E+02  0.38639319631E+02  0.00000000000E+00 0.  1.
          2   -1    0    0  501    0  0.00000000000E+00 -0.00000000000E+00 -0.10275448550E+04  0.10275448550E+04  0.00000000000E+00 0. -1.
         25    2    1    2    0    0 -0.55247296048E+02  0.15574202222E+03 -0.57389542487E+03  0.61017394143E+03  0.12509372048E+03 0.  0.
          5    1    3    3  502    0 -0.58407249974E+02  0.41409163570E+02 -0.10260661617E+03  0.12518672358E+03  0.41800000000E+01 0. -1.
         -5    1    3    3    0  502  0.31599539266E+01  0.11433285865E+03 -0.47128880870E+03  0.48498721785E+03  0.41800000000E+01 0. -1.
        -11    1    1    2    0    0  0.60531338900E+02 -0.53613080989E+02 -0.24065887943E+03  0.25388009313E+03  0.00000000000E+00 0. -1.
         11    1    1    2    0    0 -0.52840428524E+01 -0.10212894123E+03 -0.17435123103E+03  0.20213014003E+03  0.00000000000E+00 0.  1.
</event>
<event>
 7    1  0.2690635E-009  0.1370004E+03  0.7561462E-02  0.1217423E+00
          2   -1    0    0  501    0  0.00000000000E+00  0.00000000000E+00  0.32243350679E+03  0.32243350679E+03  0.00000000000E+00 0.  1.
         -2   -1    0    0    0  501 -0.00000000000E+00 -0.00000000000E+00 -0.76177678915E+02  0.76177678915E+02  0.00000000000E+00 0. -1.
         25    2    1    2    0    0 -0.29547221150E+02 -0.96039750107E+02  0.19491668400E+03  0.25246014979E+03  0.12508773583E+03 0.  0.
          5    1    3    3  502    0 -0.65216223590E+02 -0.35820502087E+02  0.45253843271E+02  0.87187424092E+02  0.41800000000E+01 0.  1.
         -5    1    3    3    0  502  0.35669002440E+02 -0.60219248020E+02  0.14966284073E+03  0.16527272570E+03  0.41800000000E+01 0.  1.
        -11    1    1    2    0    0 -0.28532324062E+02  0.33811502369E+02 -0.43137476531E+01  0.44451317502E+02  0.00000000000E+00 0. -1.
         11    1    1    2    0    0  0.58079545212E+02  0.62228247738E+02  0.55652891533E+02  0.10169971841E+03  0.00000000000E+00 0.  1.
</event>
<event>
 7    1  0.2690635E-009  0.1245943E+03  0.7561462E-02  0.1235705E+00
         -3   -1    0    0    0  501 -0.00000000000E+00  0.00000000000E+00  0.12254984613E+03  0.12254984613E+03  0.00000000000E+00 0.  1.
          3   -1    0    0  501    0  0.00000000000E+00 -0.00000000000E+00 -0.13242767732E+03  0.13242767732E+03  0.00000000000E+00 0. -1.
         25    2    1    2    0    0 -0.61319536384E+02  0.21861475273E+02 -0.15583635320E+02  0.14187450920E+03  0.12509003568E+03 0.  0.
          5    1    3    3  502    0 -0.88391126751E+02  0.49715300399E+02 -0.16311106332E+02  0.10280139577E+03  0.41800000000E+01 0. -1.
         -5    1    3    3    0  502  0.27071590367E+02 -0.27853825126E+02  0.72747101195E+00  0.39073113431E+02  0.41800000000E+01 0. -1.
        -11    1    1    2    0    0  0.76500417090E+01 -0.48224977317E+02  0.18031153554E+02  0.52050879665E+02  0.00000000000E+00 0.  1.
         11    1    1    2    0    0  0.53669494675E+02  0.26363502045E+02 -0.12325349427E+02  0.61052134584E+02  0.00000000000E+00 0. -1.
</event>
<event>
 7    1  0.2690635E-009  0.1944979E+03  0.7561462E-02  0.1154466E+00
          3   -1    0    0  501    0  0.00000000000E+00  0.00000000000E+00  0.12068189735E+03  0.12068189735E+03  0.00000000000E+00 0. -1.
         -3   -1    0    0    0  501 -0.00000000000E+00 -0.00000000000E+00 -0.32504697409E+03  0.32504697409E+03  0.00000000000E+00 0.  1.
         25    2    1    2    0    0 -0.98076079062E+02  0.13141257435E+03 -0.88443116385E+02  0.22440849038E+03  0.12509517871E+03 0.  0.
          5    1    3    3  502    0 -0.44912717509E+02 -0.12670066811E+02 -0.44489257830E+02  0.64609977940E+02  0.41800000000E+01 0. -1.
         -5    1    3    3    0  502 -0.53163361552E+02  0.14408264116E+03 -0.43953858555E+02  0.15979851244E+03  0.41800000000E+01 0. -1.
        -11    1    1    2    0    0 -0.16248223374E+02 -0.29014253897E+01 -0.11175029625E+02  0.19932494055E+02  0.00000000000E+00 0. -1.
         11    1    1    2    0    0  0.11432430244E+03 -0.12851114896E+03 -0.10474693074E+03  0.20138788701E+03  0.00000000000E+00 0.  1.
</event>
<event>
 7    1  0.2690635E-009  0.4330174E+03  0.7561462E-02  0.1032911E+00
          2   -1    0    0  501    0  0.00000000000E+00  0.00000000000E+00  0.64331852068E+03  0.64331852068E+03  0.00000000000E+00 0. -1.
         -2   -1    0    0    0  501 -0.00000000000E+00 -0.00000000000E+00 -0.30943309958E+03  0.30943309958E+03  0.00000000000E+00 0.  1.
         25    2    1    2    0    0 -0.57670704449E+02  0.42632975602E+03  0.21151502464E+03  0.49544911121E+03  0.12509294595E+03 0.  0.
          5    1    3    3  502    0 -0.19570251463E+02  0.22251749465E+02  0.50673449470E+02  0.58850709237E+02  0.41800000000E+01 0. -1.
         -5    1    3    3    0  502 -0.38100452987E+02  0.40407800655E+03  0.16084157517E+03  0.43659840197E+03  0.41800000000E+01 0. -1.
        -11    1    1    2    0    0  0.22519052465E+02 -0.16003451027E+03  0.94606978848E+02  0.18726620797E+03  0.00000000000E+00 0. -1.
         11    1    1    2    0    0  0.35151651984E+02 -0.26629524575E+03  0.27763417614E+02  0.27003630108E+03  0.00000000000E+00 0.  1.
</event>
<event>
 7    1  0.2690635E-009  0.9123162E+02  0.7561462E-02  0.1299896E+00
         -1   -1    0    0    0  501 -0.00000000000E+00  0.00000000000E+00  0.75742892961E+01  0.75742892961E+01  0.00000000000E+00 0.  1.
          1   -1    0    0  501    0  0.00000000000E+00 -0.00000000000E+00 -0.15141503061E+04  0.15141503061E+04  0.00000000000E+00 0. -1.
         25    2    1    2    0    0  0.18033421263E+02  0.36813654763E+02 -0.11351254287E+04  0.11427322834E+04  0.12508750197E+03 0.  0.
          5    1    3    3  502    0  0.31420691247E+02  0.67798213425E+02 -0.10185738654E+04  0.10213197586E+04  0.41800000000E+01 0.  1.
         -5    1    3    3    0  502 -0.13387269985E+02 -0.30984558663E+02 -0.11655156334E+03  0.12141252485E+03  0.41800000000E+01 0.  1.
        -11    1    1    2    0    0 -0.36059669175E+02 -0.41507183180E+02 -0.30779016187E+03  0.31266264526E+03  0.00000000000E+00 0.  1.
         11    1    1    2    0    0  0.18026247913E+02  0.46935284172E+01 -0.63660426172E+02  0.66329666690E+02  0.00000000000E+00 0. -1.
</event>
<event>
 7    1  0.2690635E-009  0.9140418E+02  0.7561462E-02  0.1299486E+00
          2   -1    0    0  501    0  0.00000000000E+00  0.00000000000E+00  0.29810350755E+03  0.29810350755E+03  0.00000000000E+00 0. -1.
         -2   -1    0    0    0  501 -0.00000000000E+00 -0.00000000000E+00 -0.45712903083E+02  0.45712903083E+02  0.00000000000E+00 0.  1.
         25    2    1    2    0    0 -0.27577993665E+02  0.31864326626E+02  0.15310705631E+03  0.20215301393E+03  0.12509272283E+03 0.  0.
          5    1    3    3  502    0  0.42193349030E+02  0.23990484407E+01  0.10254932482E+03  0.11099491230E+03  0.41800000000E+01 0.  1.
         -5    1    3    3    0  502 -0.69771342695E+02  0.29465278186E+02  0.50557731493E+02  0.91158101635E+02  0.41800000000E+01 0.  1.
        -11    1    1    2    0    0  0.62834327196E+01 -0.40882083582E+02  0.10899681934E+03  0.11658101437E+03  0.00000000000E+00 0. -1.
         11    1    1    2    0    0  0.21294560945E+02  0.90177569553E+01 -0.97132711831E+01  0.25082382332E+02  0.00000000000E+00 0.  1.
</event>
<event>
 7    1  0.2690635E-009  0.1618506E+03  0.7561462E-02  0.1186623E+00
          3   -1    0    0  501    0  0.00000000000E+00  0.00000000000E+00  0.22031473057E+03  0.22031473057E+03  0.00000000000E+00 0. -1.
         -3   -1    0    0    0  501 -0.00000000000E+00 -0.00000000000E+00 -0.13492376073E+03  0.13492376073E+03  0.00000000000E+00 0.  1.
         25    2    1    2    0    0  0.10319963335E+03  0.85428084121E+02  0.55233056597E+02  0.19142772290E+03  0.12508301513E+03 0.  0.
          5    1    3    3  502    0  0.30546464921E+02 -0.19948052155E+02 -0.21089188546E+02  0.42346635964E+02  0.41800000000E+01 0.  1.
         -5    1    3    3    0  502  0.72653168428E+02  0.10537613628E+03  0.76322245142E+02  0.14908108694E+03  0.41800000000E+01 0.  1.
        -11    1    1    2    0    0 -0.40005189261E+02  0.12898922557E+02 -0.34971832657E+01  0.42178521332E+02  0.00000000000E+00 0.  1.
         11    1    1    2    0    0 -0.63194444088E+02 -0.98327006678E+02  0.33655096504E+02  0.12163224707E+03  0.00000000000E+00 0. -1.
</event>
<event>
 7    1  0.2690635E-009  0.1338547E+03  0.7561462E-02  0.1221846E+00
         -1   -1    0    0    0  501 -0.00000000000E+00  0.00000000000E+00  0.73998395367E+02  0.73998395367E+02  0.00000000000E+00 0.  1.
          1   -1    0    0  501    0  0.00000000000E+00 -0.00000000000E+00 -0.28218277943E+03  0.28218277943E+03  0.00000000000E+00 0. -1.
         25    2    1    2    0    0 -0.54535487152E+02  0.74267533827E+02 -0.82126858842E+02  0.17573094762E+03  0.12508700600E+03 0.  0.
          5    1    3    3  502    0  0.38954526078E+02  0.91498509270E+01 -0.30961339740E+02  0.50766640941E+02  0.41800000000E+01 0.  1.
         -5    1    3    3    0  502 -0.93490013230E+02  0.65117682900E+02 -0.51165519102E+02  0.12496430668E+03  0.41800000000E+01 0.  1.
        -11    1    1    2    0    0  0.61545305792E+02 -0.29672376067E+02 -0.30615071909E+02  0.74870269096E+02  0.00000000000E+00 0. -1.
         11    1    1    2    0    0 -0.70098186404E+01 -0.44595157759E+02 -0.95442453308E+02  0.10557995807E+03  0.00000000000E+00 0.  1.
</event>
<event>
 7    1  0.2690635E-009  0.1033873E+03  0.7561462E-02  0.1273330E+00
         -4   -1    0    0    0  501 -0.00000000000E+00  0.00000000000E+00  0.16429186441E+03  0.16429186441E+03  0.00000000000E+00 0.  1.
          4   -1    0    0  501    0  0.00000000000E+00 -0.00000000000E+00 -0.67167292924E+02  0.67167292924E+02  0.00000000000E+00 0. -1.
         25    2    1    2    0    0 -0.54247527059E+01 -0.18535402982E+02  0.71864607130E+02  0.14554380674E+03  0.12508192842E+03 0.  0.
          5    1    3    3  502    0 -0.43478218968E+02 -0.57145331733E+02  0.45576730903E+02  0.85150779582E+02  0.41800000000E+01 0. -1.
         -5    1    3    3    0  502  0.38053466262E+02  0.38609928751E+02  0.26287876227E+02  0.60393027158E+02  0.41800000000E+01 0. -1.
        -11    1    1    2    0    0  0.25210456444E+02 -0.23217616872E+02  0.19287267488E+02  0.39327134837E+02  0.00000000000E+00 0.  1.
         11    1    1    2    0    0 -0.19785703739E+02  0.41753019854E+02  0.59726968644E+01  0.46588215754E+02  0.00000000000E+00 0. -1.
</event>
<event>
 7    1  0.2690635E-009  0.1094893E+03  0.7561462E-02  0.1261519E+00
          1   -1    0    0  501    0  0.00000000000E+00  0.00000000000E+00  0.27343160185E+03  0.27343160185E+03  0.00000000000E+00 0. -1.
         -1   -1    0    0    0  501 -0.00000000000E+00 -0.00000000000E+00 -0.46308734646E+02  0.46308734646E+02  0.00000000000E+00 0.  1.
         25    2    1    2    0    0 -0.29224562093E+01 -0.28738455540E+02  0.16086481670E+03  0.20581069632E+03  0.12508442705E+03 0.  0.
          5    1    3    3  502    0 -0.55639318452E+02 -0.44303327159E+02  0.10834863857E+03  0.12967427823E+03  0.41800000000E+01 0. -1.
         -5    1    3    3    0  502  0.52716862243E+02  0.15564871619E+02  0.52516178130E+02  0.76136418084E+02  0.41800000000E+01 0. -1.
        -11    1    1    2    0    0  0.39108383217E+02  0.38757347082E+02  0.41620546861E+02  0.69020775943E+02  0.00000000000E+00 0.  1.
         11    1    1    2    0    0 -0.36185927008E+02 -0.10018891542E+02  0.24637503638E+02  0.44908864233E+02  0.00000000000E+00 0. -1.
</event>
<event>
 7    1  0.2690635E-009  0.1041927E+03  0.7561462E-02  0.1271718E+00
         -2   -1    0    0    0  501 -0.00000000000E+00  0.00000000000E+00  0.35965596926E+02  0.35965596926E+02  0.00000000000E+00 0. -1.
          2   -1    0    0  501    0  0.00000000000E+00 -0.00000000000E+00 -0.76770977311E+03  0.76770977311E+03  0.00000000000E+00 0.  1.
         25    2    1    2    0    0 -0.17461803315E+02  0.84160325239E+02 -0.61091042451E+03  0.62948133706E+03  0.12508929615E+03 0.  0.
          5    1    3    3  502    0 -0.35496818189E+02  0.77409220686E+02 -0.19167672839E+03  0.20978477579E+03  0.41800000000E+01 0. -1.
         -5    1    3    3    0  502  0.18035014874E+02  0.67511045530E+01 -0.41923369613E+03  0.41969656127E+03  0.41800000000E+01 0. -1.
        -11    1    1    2    0    0  0.26319415834E+02 -0.91179118081E+01 -0.87095031911E+02  0.91440650419E+02  0.00000000000E+00 0.  1.
         11    1    1    2    0    0 -0.88576125191E+01 -0.75042413431E+02 -0.33738719758E+02  0.82753382553E+02  0.00000000000E+00 0. -1.
</event>
<event>
 7    1  0.2690635E-009  0.6836609E+02  0.7561462E-02  0.1365739E+00
         -3   -1    0    0    0  501 -0.00000000000E+00  0.00000000000E+00  0.22509582168E+04  0.22509582168E+04  0.00000000000E+00 0.  1.
          3   -1    0    0  501    0  0.00000000000E+00 -0.00000000000E+00 -0.83937056773E+01  0.83937056773E+01  0.00000000000E+00 0. -1.
         25    2    1    2    0    0 -0.19282382369E+02  0.18730371721E+01  0.18988285425E+04  0.19030431548E+04  0.12509235258E+03 0.  0.
          5    1    3    3  502    0  0.12487374379E+02  0.66820674543E+01  0.17745057550E+04  0.17745671956E+04  0.41800000000E+01 0. -1.
         -5    1    3    3    0  502 -0.31769756748E+02 -0.48090302822E+01  0.12432278744E+03  0.12847595920E+03  0.41800000000E+01 0. -1.
        -11    1    1    2    0    0  0.34664641636E+02  0.35213595345E+02  0.24084341340E+03  0.24586009122E+03  0.00000000000E+00 0.  1.
         11    1    1    2    0    0 -0.15382259267E+02 -0.37086632517E+02  0.10289255525E+03  0.11044867649E+03  0.00000000000E+00 0. -1.
</event>
<event>
 7    1  0.2690635E-009  0.2310578E+03  0.7561462E-02  0.1125897E+00
         -2   -1    0    0    0  501 -0.00000000000E+00  0.00000000000E+00  0.69911459427E+02  0.69911459427E+02  0.00000000000E+00 0.  1.
          2   -1    0    0  501    0  0.00000000000E+00 -0.00000000000E+00 -0.80829098360E+03  0.80829098360E+03  0.00000000000E+00 0. -1.
         25    2    1    2    0    0  0.96904937463E+02  0.18710477854E+03 -0.39414146707E+03  0.46410567509E+03  0.12509123280E+03 0.  0.
          5    1    3    3  502    0 -0.11607465896E+01 -0.12427797444E+02 -0.68693418313E+02  0.69943231277E+02  0.41800000000E+01 0.  1.
         -5    1    3    3    0  502  0.98065684053E+02  0.19953257599E+03 -0.32544804876E+03  0.39416244381E+03  0.41800000000E+01 0.  1.
        -11    1    1    2    0    0 -0.10187398971E+03 -0.11233382521E+03 -0.19428846395E+03  0.24646542413E+03  0.00000000000E+00 0.  1.
         11    1    1    2    0    0  0.49690522464E+01 -0.74770953331E+02 -0.14994959315E+03  0.16763134381E+03  0.00000000000E+00 0. -1.
</event>
<event>
 7    1  0.2690635E-009  0.8152939E+02  0.7561462E-02  0.1324766E+00
          2   -1    0    0  501    0  0.00000000000E+00  0.00000000000E+00  0.30707229019E+03  0.30707229019E+03  0.00000000000E+00 0. -1.
         -2   -1    0    0    0  501 -0.00000000000E+00 -0.00000000000E+00 -0.40359455960E+02  0.40359455960E+02  0.00000000000E+00 0.  1.
         25    2    1    2    0    0 -0.18898081571E+02 -0.55904737389E+01  0.12776101274E+03  0.17988424275E+03  0.12508826295E+03 0.  0.
          5    1    3    3  502    0 -0.30401093034E+01  0.40692195847E+02 -0.20769384435E+01  0.41071682955E+02  0.41800000000E+01 0.  1.
         -5    1    3    3    0  502 -0.15857972268E+02 -0.46282669586E+02  0.12983795118E+03  0.13881255979E+03  0.41800000000E+01 0.  1.
        -11    1    1    2    0    0  0.10853545512E+02  0.38012820933E+02  0.20611390986E+02  0.44582546404E+02  0.00000000000E+00 0.  1.
         11    1    1    2    0    0  0.80445360594E+01 -0.32422347194E+02  0.11834043051E+03  0.12296495700E+03  0.00000000000E+00 0. -1.
</event>
<event>
 7    1  0.2690635E-009  0.8239045E+02  0.7561462E-02  0.1322401E+00
         -1   -1    0    0    0  501 -0.00000000000E+00  0.00000000000E+00  0.35344543361E+02  0.35344543361E+02  0.00000000000E+00 0.  1.
          1   -1    0    0  501    0  0.00000000000E+00 -0.00000000000E+00 -0.36089411372E+03  0.36089411372E+03  0.00000000000E+00 0. -1.
         25    2    1    2    0    0 -0.11282253487E+02  0.32646665118E+02 -0.24362107755E+03  0.27602889312E+03  0.12509047294E+03 0.  0.
          5    1    3    3  502    0 -0.61078622699E+02  0.99912124295E+01 -0.18770669980E+03  0.19769092044E+03  0.41800000000E+01 0.  1.
         -5    1    3    3    0  502  0.49796369212E+02  0.22655452689E+02 -0.55914377751E+02  0.78337972673E+02  0.41800000000E+01 0.  1.
        -11    1    1    2    0    0 -0.11009511555E+02 -0.18351440743E+02  0.10660045388E+02  0.23908602838E+02  0.00000000000E+00 0.  1.
         11    1    1    2    0    0  0.22291765042E+02 -0.14295224376E+02 -0.92588538198E+02  0.96301161126E+02  0.00000000000E+00 0. -1.
</event>
<event>
 7    1  0.2690635E-009  0.1264795E+03  0.7561462E-02  0.1232775E+00
          1   -1    0    0  501    0  0.00000000000E+00  0.00000000000E+00  0.75751794537E+02  0.75751794537E+02  0.00000000000E+00 0. -1.
         -1   -1    0    0    0  501 -0.00000000000E+00 -0.00000000000E+00 -0.25394026337E+03  0.25394026337E+03  0.00000000000E+00 0.  1.
         25    2    1    2    0    0  0.72610630681E+02  0.20874890434E+02 -0.14547714173E+03  0.20620008346E+03  0.12508721324E+03 0.  0.
          5    1    3    3  502    0 -0.25590268091E+02  0.38309218999E+02 -0.48585130574E+02  0.67085359015E+02  0.41800000000E+01 0.  1.
         -5    1    3    3    0  502  0.98200898772E+02 -0.17434328565E+02 -0.96892011151E+02  0.13911472444E+03  0.41800000000E+01 0.  1.
        -11    1    1    2    0    0 -0.68162907065E+02 -0.45433835237E+02 -0.47290307551E+02  0.94587464667E+02  0.00000000000E+00 0.  1.
         11    1    1    2    0    0 -0.44477236162E+01  0.24558944803E+02  0.14578980440E+02  0.28904509784E+02  0.00000000000E+00 0. -1.
</event>
<event>
 7    1  0.2690635E-009  0.1142565E+03  0.7561462E-02  0.1252884E+00
         -2   -1    0    0    0  501 -0.00000000000E+00  0.00000000000E+00  0.24326327784E+03  0.24326327784E+03  0.00000000000E+00 0.  1.
          2   -1    0    0  501    0  0.00000000000E+00 -0.00000000000E+00 -0.98559290149E+02  0.98559290149E+02  0.00000000000E+00 0. -1.
         25    2    1    2    0    0  0.68145135561E+02  0.50753895895E+02  0.15507680370E+03  0.21660267642E+03  0.12509271336E+03 0.  0.
          5    1    3    3  502    0  0.80763788212E+02 -0.80200499774E+01  0.49837845554E+02  0.95333068436E+02  0.41800000000E+01 0.  1.
         -5    1    3    3    0  502 -0.12618652651E+02  0.58773945872E+02  0.10523895814E+03  0.12126960798E+03  0.41800000000E+01 0.  1.
        -11    1    1    2    0    0 -0.13592664397E+02 -0.20525991833E+02  0.38695981386E+02  0.45863447772E+02  0.00000000000E+00 0.  1.
         11    1    1    2    0    0 -0.54552471164E+02 -0.30227904062E+02 -0.49068797398E+02  0.79356443797E+02  0.00000000000E+00 0. -1.
</event>
<event>
 7    1  0.2690635E-009  0.1622304E+03  0.7561462E-02  0.1186201E+00
         -2   -1    0    0    0  501 -0.00000000000E+00  0.00000000000E+00  0.58082914320E+02  0.58082914320E+02  0.00000000000E+00 0.  1.
          2   -1    0    0  501    0  0.00000000000E+00 -0.00000000000E+00 -0.45413577919E+03  0.45413577919E+03  0.00000000000E+00 0. -1.
         25    2    1    2    0    0  0.82153404165E+02  0.87852021133E+02 -0.22026942752E+03  0.28041687253E+03  0.12509133569E+03 0.  0.
          5    1    3    3  502    0 -0.87572008065E+00  0.90156262271E+02 -0.10957336101E+03  0.14196024921E+03  0.41800000000E+01 0.  1.
         -5    1    3    3    0  502  0.83029124246E+02 -0.23042411377E+01 -0.11069606652E+03  0.13845662332E+03  0.41800000000E+01 0.  1.
        -11    1    1    2    0    0 -0.15826882553E+02 -0.83041785772E+02 -0.10178454056E+03  0.13231221067E+03  0.00000000000E+00 0.  1.
         11    1    1    2    0    0 -0.66326521612E+02 -0.48102353617E+01 -0.73998896781E+02  0.99489610302E+02  0.00000000000E+00 0. -1.
</event>
<event>
 7    1  0.2690635E-009  0.1231635E+03  0.7561462E-02  0.1237968E+00
         -1   -1    0    0    0  501 -0.00000000000E+00  0.00000000000E+00  0.10898017475E+03  0.10898017475E+03  0.00000000000E+00 0.  1.
          1   -1    0    0  501    0  0.00000000000E+00 -0.00000000000E+00 -0.21276994852E+03  0.21276994852E+03  0.00000000000E+00 0. -1.
         25    2    1    2    0    0  0.20331184376E+02 -0.94842142375E+02 -0.10403633239E+03  0.18941915559E+03  0.12509064321E+03 0.  0.
          5    1    3    3  502    0  0.55430639149E+02 -0.37426143783E+02 -0.19060842647E+01  0.67040118975E+02  0.41800000000E+01 0.  1.
         -5    1    3    3    0  502 -0.35099454774E+02 -0.57415998592E+02 -0.10213024813E+03  0.12237903661E+03  0.41800000000E+01 0.  1.
        -11    1    1    2    0    0 -0.37499938781E+02  0.41885955975E+02  0.35450943216E+02  0.66463885618E+02  0.00000000000E+00 0.  1.
         11    1    1    2    0    0  0.17168754405E+02  0.52956186400E+02 -0.35204384588E+02  0.65867082067E+02  0.00000000000E+00 0. -1.
</event>
<event>
 7    1  0.2690635E-009  0.8834361E+02  0.7561462E-02  0.1306913E+00
         -2   -1    0    0    0  501 -0.00000000000E+00  0.00000000000E+00  0.12384009255E+03  0.12384009255E+03  0.00000000000E+00 0.  1.
          2   -1    0    0  501    0  0.00000000000E+00 -0.00000000000E+00 -0.11111518863E+03  0.11111518863E+03  0.00000000000E+00 0. -1.
         25    2    1    2    0    0 -0.19536269422E+01 -0.35651844495E+01  0.63547044329E+02  0.14035803541E+03  0.12508246904E+03 0.  0.
          5    1    3    3  502    0 -0.53904995716E+02 -0.11653517171E+02  0.67736697429E+02  0.87448759878E+02  0.41800000000E+01 0. -1.
         -5    1    3    3    0  502  0.51951368774E+02  0.80883327210E+01 -0.41896530998E+01  0.52909275527E+02  0.41800000000E+01 0. -1.
        -11    1    1    2    0    0 -0.21538181258E+02  0.27611776818E+02 -0.16825708468E+01  0.35059014755E+02  0.00000000000E+00 0.  1.
         11    1    1    2    0    0  0.23491808201E+02 -0.24046592368E+02 -0.49139569554E+02  0.59538231020E+02  0.00000000000E+00 0. -1.
</event>
<event>
 7    1  0.2690635E-009  0.1006661E+03  0.7561462E-02  0.1278901E+00
         -2   -1    0    0    0  501 -0.00000000000E+00  0.00000000000E+00  0.32739881694E+02  0.32739881694E+02  0.00000000000E+00 0.  1.
          2   -1    0    0  501    0  0.00000000000E+00 -0.00000000000E+00 -0.51784202109E+03  0.51784202109E+03  0.00000000000E+00 0. -1.
         25    2    1    2    0    0  0.13038897432E+02 -0.70400233185E+02 -0.23419526089E+03  0.27499220258E+03  0.12508831111E+03 0.  0.
          5    1    3    3  502    0 -0.51996245602E+01 -0.83782011852E+02 -0.23733266464E+03  0.25177515308E+03  0.41800000000E+01 0.  1.
         -5    1    3    3    0  502  0.18238521992E+02  0.13381778667E+02  0.31374037518E+01  0.23217049491E+02  0.41800000000E+01 0.  1.
        -11    1    1    2    0    0 -0.37759906509E+02  0.38543042245E+02 -0.21476552163E+03  0.22143984720E+03  0.00000000000E+00 0.  1.
         11    1    1    2    0    0  0.24721009077E+02  0.31857190940E+02 -0.36141356876E+02  0.54149853012E+02  0.00000000000E+00 0. -1.
</event>
<event>
 7    1  0.2690635E-009  0.1170366E+03  0.7561462E-02  0.1248067E+00
         -2   -1    0    0    0  501 -0.00000000000E+00  0.00000000000E+00  0.12103228679E+02  0.12103228679E+02  0.00000000000E+00 0.  1.
          2   -1    0    0  501    0  0.00000000000E+00 -0.00000000000E+00 -0.11710806373E+04  0.11710806373E+04  0.00000000000E+00 0. -1.
         25    2    1    2    0    0  0.47419492340E+02  0.61089313728E+01 -0.68286346052E+03  0.69587077038E+03  0.12509075124E+03 0.  0.
          5    1    3    3  502    0 -0.11552099288E+02  0.53624390347E+02 -0.21652682203E+03  0.22340627407E+03  0.41800000000E+01 0. -1.
         -5    1    3    3    0  502  0.58971591628E+02 -0.47515458974E+02 -0.46633663850E+03  0.47246449630E+03  0.41800000000E+01 0. -1.
        -11    1    1    2    0    0 -0.74368246769E+02 -0.12759495819E+02 -0.32230220102E+03  0.33101684193E+03  0.00000000000E+00 0.  1.
         11    1    1    2    0    0  0.26948754429E+02  0.66505644463E+01 -0.15381174708E+03  0.15629625368E+03  0.00000000000E+00 0. -1.
</event>
<event>
 7    1  0.2690635E-009  0.1390111E+03  0.7561462E-02  0.1214666E+00
          4   -1    0    0  501    0  0.00000000000E+00  0.00000000000E+00  0.88031508352E+02  0.88031508352E+02  0.00000000000E+00 0.  1.
         -4   -1    0    0    0  501 -0.00000000000E+00 -0.00000000000E+00 -0.35160325425E+03  0.35160325425E+03  0.00000000000E+00 0. -1.
         25    2    1    2    0    0  0.11872833720E+03  0.42167161890E+02 -0.20847283403E+03  0.27383460689E+03  0.12509988731E+03 0.  0.
          5    1    3    3  502    0  0.55773371610E+02  0.30785708245E+01 -0.38266984768E+01  0.56145014029E+02  0.41800000000E+01 0. -1.
         -5    1    3    3    0  502  0.62954965594E+02  0.39088591066E+02 -0.20464613555E+03  0.21768959286E+03  0.41800000000E+01 0. -1.
        -11    1    1    2    0    0 -0.98754276702E+02 -0.64401808587E+02 -0.64601394112E+02  0.13443712373E+03  0.00000000000E+00 0. -1.
         11    1    1    2    0    0 -0.19974060502E+02  0.22234646697E+02  0.95024822360E+01  0.31363031985E+02  0.00000000000E+00 0.  1.
</event>
<event>
 7    1  0.2690635E-009  0.6423467E+02  0.7561462E-02  0.1380874E+00
         -4   -1    0    0    0  501 -0.00000000000E+00  0.00000000000E+00  0.11837751228E+03  0.11837751228E+03  0.00000000000E+00 0.  1.
          4   -1    0    0  501    0  0.00000000000E+00 -0.00000000000E+00 -0.14253916319E+03  0.14253916319E+03  0.00000000000E+00 0. -1.
         25    2    1    2    0    0  0.31387563500E+02  0.21695453381E+02 -0.75985875655E+02  0.15125317075E+03  0.12509115286E+03 0.  0.
          5    1    3    3  502    0  0.28886768936E+02  0.24748850598E+02 -0.11015033515E+03  0.11660840346E+03  0.41800000000E+01 0. -1.
         -5    1    3    3    0  502  0.25007945638E+01 -0.30533972172E+01  0.34164459491E+02  0.34644767287E+02  0.41800000000E+01 0. -1.
        -11    1    1    2    0    0  0.24953338430E+02 -0.10163154704E+02  0.44042405879E+02  0.51630343094E+02  0.00000000000E+00 0.  1.
         11    1    1    2    0    0 -0.56340901930E+02 -0.11532298676E+02  0.77818188618E+01  0.58033161622E+02  0.00000000000E+00 0. -1.
</event>
<event>
 7    1  0.2690635E-009  0.1038746E+03  0.7561462E-02  0.1272353E+00
          2   -1    0    0  501    0  0.00000000000E+00  0.00000000000E+00  0.36299098662E+03  0.36299098662E+03  0.00000000000E+00 0. -1.
         -2   -1    0    0    0  501 -0.00000000000E+00 -0.00000000000E+00 -0.42147551308E+02  0.42147551308E+02  0.00000000000E+00 0.  1.
         25    2    1    2    0    0  0.26217476005E+02 -0.38209737116E+02  0.23262877734E+03  0.26816253015E+03  0.12509058507E+03 0.  0.
          5    1    3    3  502    0 -0.23132347131E+02  0.34557480917E+02  0.48143244161E+02  0.63753975009E+02  0.41800000000E+01 0. -1.
         -5    1    3    3    0  502  0.49349823136E+02 -0.72767218033E+02  0.18448553318E+03  0.20440855514E+03  0.41800000000E+01 0. -1.
        -11    1    1    2    0    0  0.18927754968E+02  0.21941050566E+00  0.73866715026E+02  0.76253522134E+02  0.00000000000E+00 0. -1.
         11    1    1    2    0    0 -0.45145230973E+02  0.37990326610E+02  0.14347942945E+02  0.60722485640E+02  0.00000000000E+00 0.  1.
</event>
<event>
 7    1  0.2690635E-009  0.1295441E+03  0.7561462E-02  0.1228134E+00
          2   -1    0    0  501    0  0.00000000000E+00  0.00000000000E+00  0.73323416016E+03  0.73323416016E+03  0.00000000000E+00 0. -1.
         -2   -1    0    0    0  501 -0.00000000000E+00 -0.00000000000E+00 -0.26433952776E+02  0.26433952776E+02  0.00000000000E+00 0.  1.
         25    2    1    2    0    0  0.72372431980E+02 -0.49324800652E+02  0.34036143192E+03  0.37304708051E+03  0.12509002785E+03 0.  0.
          5    1    3    3  502    0  0.53834797116E+02 -0.87298306880E+02  0.18054031136E+03  0.20768114067E+03  0.41800000000E+01 0.  1.
         -5    1    3    3    0  502  0.18537634864E+02  0.37973506229E+02  0.15982112055E+03  0.16536593983E+03  0.41800000000E+01 0.  1.
        -11    1    1    2    0    0 -0.13523376040E+02  0.53304799942E+02  0.10409977238E+03  0.11773294359E+03  0.00000000000E+00 0.  1.
         11    1    1    2    0    0 -0.58849055940E+02 -0.39799992901E+01  0.26233900309E+03  0.26888808884E+03  0.00000000000E+00 0. -1.
</event>
<event>
 7    1  0.2690635E-009  0.8561898E+02  0.7561462E-02  0.1313822E+00
          2   -1    0    0  501    0  0.00000000000E+00  0.00000000000E+00  0.20924316665E+03  0.20924316665E+03  0.00000000000E+00 0. -1.
         -2   -1    0    0    0  501 -0.00000000000E+00 -0.00000000000E+00 -0.57781277657E+02  0.57781277657E+02  0.00000000000E+00 0.  1.
         25    2    1    2    0    0  0.25090127979E+01 -0.31056604889E+01  0.11490724775E+03  0.16990068554E+03  0.12508647844E+03 0.  0.
          5    1    3    3  502    0  0.35250105238E+01 -0.52520015399E+02  0.10747449660E+03  0.11974563682E+03  0.41800000000E+01 0.  1.
         -5    1    3    3    0  502 -0.10159977258E+01  0.49414354910E+02  0.74327511443E+01  0.50155048720E+02  0.41800000000E+01 0.  1.
        -11    1    1    2    0    0  0.12486852059E+02  0.33057231155E+02 -0.12707615011E+02  0.37552436476E+02  0.00000000000E+00 0.  1.
         11    1    1    2    0    0 -0.14995864857E+02 -0.29951570666E+02  0.49262256252E+02  0.59571322288E+02  0.00000000000E+00 0. -1.
</event>
<event>
 7    1  0.2690635E-009  0.9526183E+02  0.7561462E-02  0.1290587E+00
         -2   -1    0    0    0  501 -0.00000000000E+00  0.00000000000E+00  0.45078837310E+02  0.45078837310E+02  0.00000000000E+00 0.  1.
          2   -1    0    0  501    0  0.00000000000E+00 -0.00000000000E+00 -0.32255153507E+03  0.32255153507E+03  0.00000000000E+00 0. -1.
         25    2    1    2    0    0 -0.32643573392E+02 -0.72463291466E+01 -0.93876518673E+02  0.15993526941E+03  0.12509347495E+03 0.  0.
          5    1    3    3  502    0 -0.36196971294E+02 -0.52262994979E+02 -0.95216559047E+02  0.11456573175E+03  0.41800000000E+01 0.  1.
         -5    1    3    3    0  502  0.35533979019E+01  0.45016665832E+02  0.13400403741E+01  0.45369537660E+02  0.41800000000E+01 0.  1.
        -11    1    1    2    0    0  0.16695348737E+02 -0.33651501181E+02 -0.30374133205E+02  0.48308862222E+02  0.00000000000E+00 0.  1.
         11    1    1    2    0    0  0.15948224655E+02  0.40897830327E+02 -0.15322204589E+03  0.15938624075E+03  0.00000000000E+00 0. -1.
</event>
<event>
 7    1  0.2690635E-009  0.1344745E+03  0.7561462E-02  0.1220964E+00
          1   -1    0    0  501    0  0.00000000000E+00  0.00000000000E+00  0.30307549499E+03  0.30307549499E+03  0.00000000000E+00 0. -1.
         -1   -1    0    0    0  501 -0.00000000000E+00 -0.00000000000E+00 -0.80229995836E+02  0.80229995836E+02  0.00000000000E+00 0.  1.
         25    2    1    2    0    0  0.85561167098E+02  0.44843197095E+02  0.50461777329E+02  0.16590910978E+03  0.12509123109E+03 0.  0.
          5    1    3    3  502    0  0.76335207124E+02 -0.17398593914E+02 -0.93933388400E+01  0.78965069058E+02  0.41800000000E+01 0. -1.
         -5    1    3    3    0  502  0.92259599744E+01  0.62241791009E+02  0.59855116169E+02  0.86944040722E+02  0.41800000000E+01 0. -1.
        -11    1    1    2    0    0 -0.34098676850E+02 -0.64044289168E+02  0.12647645411E+03  0.14581043921E+03  0.00000000000E+00 0.  1.
         11    1    1    2    0    0 -0.51462490248E+02  0.19201092073E+02  0.45907267711E+02  0.71585941832E+02  0.00000000000E+00 0. -1.
</event>
<event>
 7    1  0.2690635E-009  0.7020207E+02  0.7561462E-02  0.1359407E+00
         -1   -1    0    0    0  501 -0.00000000000E+00  0.00000000000E+00  0.31696314635E+03  0.31696314635E+03  0.00000000000E+00 0.  1.
          1   -1    0    0  501    0  0.00000000000E+00 -0.00000000000E+00 -0.33517469768E+02  0.33517469768E+02  0.00000000000E+00 0. -1.
         25    2    1    2    0    0  0.40425936193E+02  0.21124600975E+02  0.14105430045E+03  0.19397264629E+03  0.12509423148E+03 0.  0.
          5    1    3    3  502    0  0.36593867377E+02  0.45524583488E+02  0.86191811394E+01  0.59189200999E+02  0.41800000000E+01 0.  1.
         -5    1    3    3    0  502  0.38320688158E+01 -0.24399982513E+02  0.13243511931E+03  0.13478344529E+03  0.41800000000E+01 0.  1.
        -11    1    1    2    0    0 -0.22994103826E+02 -0.29543479339E+02  0.52045815481E+02  0.64111721949E+02  0.00000000000E+00 0. -1.
         11    1    1    2    0    0 -0.17431832367E+02  0.84188783638E+01  0.90345560654E+02  0.92396247881E+02  0.00000000000E+00 0.  1.
</event>
<event>
 7    1  0.2690635E-009  0.9401369E+02  0.7561462E-02  0.1293413E+00
          1   -1    0    0  501    0  0.00000000000E+00  0.00000000000E+00  0.19780875180E+03  0.19780875180E+03  0.00000000000E+00 0. -1.
         -1   -1    0    0    0  501 -0.00000000000E+00 -0.00000000000E+00 -0.90934599615E+02  0.90934599615E+02  0.00000000000E+00 0.  1.
         25    2    1    2    0    0 -0.63177879166E+02  0.19215567470E+02  0.26028867044E+02  0.14382432809E+03  0.12508898025E+03 0.  0.
          5    1    3    3  502    0 -0.13257881913E+02 -0.74636461672E+00  0.71772756618E+02  0.73110392459E+02  0.41800000000E+01 0.  1.
         -5    1    3    3    0  502 -0.49919997253E+02  0.19961932086E+02 -0.45743889574E+02  0.70713935626E+02  0.41800000000E+01 0.  1.
        -11    1    1    2    0    0 -0.27585865624E+02 -0.98067022549E+00  0.16214905378E+02  0.32013510472E+02  0.00000000000E+00 0.  1.
         11    1    1    2    0    0  0.90763744790E+02 -0.18234897244E+02  0.64630379766E+02  0.11290551286E+03  0.00000000000E+00 0. -1.
</event>
<event>
 7    1  0.2690635E-009  0.1904006E+03  0.7561462E-02  0.1158101E+00
          2   -1    0    0  501    0  0.00000000000E+00  0.00000000000E+00  0.27500074013E+03  0.27500074013E+03  0.00000000000E+00 0.  1.
         -2   -1    0    0    0  501 -0.00000000000E+00 -0.00000000000E+00 -0.16080585811E+03  0.16080585811E+03  0.00000000000E+00 0. -1.
         25    2    1    2    0    0  0.78156092981E+02  0.15754687740E+03  0.96626422099E+02  0.23646048437E+03  0.12508997471E+03 0.  0.
          5    1    3    3  502    0  0.41945541945E+02  0.21132199361E+01 -0.11372762357E+02  0.43711626728E+02  0.41800000000E+01 0. -1.
         -5    1    3    3    0  502  0.36210551035E+02  0.15543365747E+03  0.10799918446E+03  0.19274885764E+03  0.41800000000E+01 0. -1.
        -11    1    1    2    0    0 -0.16682494108E+02 -0.70064009120E+02  0.49926668385E+02  0.87635285129E+02  0.00000000000E+00 0.  1.
         11    1    1    2    0    0 -0.61473598873E+02 -0.87482868283E+02 -0.32358208464E+02  0.11171082873E+03  0.00000000000E+00 0. -1.
</event>
<event>
 7    1  0.2690635E-009  0.2667127E+03  0.7561462E-02  0.1103176E+00
          1   -1    0    0  501    0  0.00000000000E+00  0.00000000000E+00  0.19091803803E+03  0.19091803803E+03  0.00000000000E+00 0. -1.
         -1   -1    0    0    0  501 -0.00000000000E+00 -0.00000000000E+00 -0.41503609254E+03  0.41503609254E+03  0.00000000000E+00 0.  1.
         25    2    1    2    0    0  0.78199180958E+02  0.25195790345E+03 -0.10671267432E+03  0.31085809100E+03  0.12508901177E+03 0.  0.
          5    1    3    3  502    0  0.18464349813E+02  0.24229587800E+02 -0.64748064572E+02  0.71678374736E+02  0.41800000000E+01 0. -1.
         -5    1    3    3    0  502  0.59734831145E+02  0.22772831565E+03 -0.41964609751E+02  0.23917971626E+03  0.41800000000E+01 0. -1.
        -11    1    1    2    0    0 -0.65554311127E+02 -0.14057343695E+03 -0.91347730760E+02  0.18000740762E+03  0.00000000000E+00 0.  1.
         11    1    1    2    0    0 -0.12644869831E+02 -0.11138446650E+03 -0.26057649428E+02  0.11508863196E+03  0.00000000000E+00 0. -1.
</event>
<event>
 7    1  0.2690635E-009  0.2105789E+03  0.7561462E-02  0.1141108E+00
         -2   -1    0    0    0  501 -0.00000000000E+00  0.00000000000E+00  0.63743424936E+02  0.63743424936E+02  0.00000000000E+00 0.  1.
          2   -1    0    0  501    0  0.00000000000E+00 -0.00000000000E+00 -0.86848886384E+03  0.86848886384E+03  0.00000000000E+00 0. -1.
         25    2    1    2    0    0 -0.19595473859E+03  0.64879804816E+02 -0.35791017345E+03  0.43168724000E+03  0.12508609943E+03 0.  0.
          5    1    3    3  502    0 -0.79698808358E+02  0.49622903346E+02 -0.59980147378E+02  0.11148732246E+03  0.41800000000E+01 0.  1.
         -5    1    3    3    0  502 -0.11625593023E+03  0.15256901471E+02 -0.29793002607E+03  0.32019991754E+03  0.41800000000E+01 0.  1.
        -11    1    1    2    0    0  0.12739033488E+03 -0.60830561794E+02 -0.20327858499E+03  0.24748906599E+03  0.00000000000E+00 0.  1.
         11    1    1    2    0    0  0.68564403706E+02 -0.40492430218E+01 -0.24355668047E+03  0.25305598279E+03  0.00000000000E+00 0. -1.
</event>
<event>
 7    1  0.2690635E-009  0.1825101E+03  0.7561462E-02  0.1165396E+00
          2   -1    0    0  501    0  0.00000000000E+00  0.00000000000E+00  0.16581036176E+03  0.16581036176E+03  0.00000000000E+00 0. -1.
         -2   -1    0    0    0  501 -0.00000000000E+00 -0.00000000000E+00 -0.21603665712E+03  0.21603665712E+03  0.00000000000E+00 0.  1.
         25    2    1    2    0    0  0.55020826804E+02  0.13998898763E+03 -0.63393588659E+02  0.20564495522E+03  0.12508753930E+03 0.  0.
          5    1    3    3  502    0  0.22680635699E+02  0.15369855009E+03 -0.32724166504E+02  0.15882694673E+03  0.41800000000E+01 0.  1.
         -5    1    3    3    0  502  0.32340191105E+02 -0.13709562464E+02 -0.30669422155E+02  0.46818008491E+02  0.41800000000E+01 0.  1.
        -11    1    1    2    0    0 -0.74245623160E+02 -0.71443681805E+02 -0.34631629944E+01  0.10309512950E+03  0.00000000000E+00 0.  1.
         11    1    1    2    0    0  0.19224796356E+02 -0.68545305821E+02  0.16630456290E+02  0.73106934154E+02  0.00000000000E+00 0. -1.
</event>
<event>
 7    1  0.2690635E-009  0.1075487E+03  0.7561462E-02  0.1265178E+00
         -1   -1    0    0    0  501 -0.00000000000E+00  0.00000000000E+00  0.35700149561E+02  0.35700149561E+02  0.00000000000E+00 0.  1.
          1   -1    0    0  501    0  0.00000000000E+00 -0.00000000000E+00 -0.43104918440E+03  0.43104918440E+03  0.00000000000E+00 0. -1.
         25    2    1    2    0    0  0.53871657161E+02  0.62385959223E+00 -0.17091795679E+03  0.21854372140E+03  0.12508343441E+03 0.  0.
          5    1    3    3  502    0 -0.33010670381E+02 -0.46313426327E+01 -0.10216118419E+03  0.10754317110E+03  0.41800000000E+01 0.  1.
         -5    1    3    3    0  502  0.86882327542E+02  0.52552022250E+01 -0.68756772595E+02  0.11100055030E+03  0.41800000000E+01 0.  1.
        -11    1    1    2    0    0 -0.56409135691E+02 -0.30670054997E+02 -0.90758930103E+02  0.11117475548E+03  0.00000000000E+00 0.  1.
         11    1    1    2    0    0  0.25374785297E+01  0.30046195405E+02 -0.13367214795E+03  0.13703085708E+03  0.00000000000E+00 0. -1.
</event>
<event>
 7    1  0.2690635E-009  0.1073975E+03  0.7561462E-02  0.1265467E+00
          2   -1    0    0  501    0  0.00000000000E+00  0.00000000000E+00  0.76505065769E+03  0.76505065769E+03  0.00000000000E+00 0. -1.
         -2   -1    0    0    0  501 -0.00000000000E+00 -0.00000000000E+00 -0.18537854496E+02  0.18537854496E+02  0.00000000000E+00 0.  1.
         25    2    1    2    0    0  0.49374091528E+02  0.15550773991E+02  0.42143821460E+03  0.44264813930E+03  0.12509028346E+03 0.  0.
          5    1    3    3  502    0  0.58112541028E+02 -0.41134580419E+02  0.16352148283E+03  0.17839806299E+03  0.41800000000E+01 0. -1.
         -5    1    3    3    0  502 -0.87384494994E+01  0.56685354410E+02  0.25791673177E+03  0.26425007631E+03  0.41800000000E+01 0. -1.
        -11    1    1    2    0    0 -0.56578862356E+02  0.11703872751E+02  0.29116911769E+03  0.29684609379E+03  0.00000000000E+00 0. -1.
         11    1    1    2    0    0  0.72047708275E+01 -0.27254646741E+02  0.33905470912E+02  0.44094279101E+02  0.00000000000E+00 0.  1.
</event>
<event>
 7    1  0.2690635E-009  0.1090544E+03  0.7561462E-02  0.1262331E+00
          2   -1    0    0  501    0  0.00000000000E+00  0.00000000000E+00  0.11127702406E+04  0.11127702406E+04  0.00000000000E+00 0. -1.
         -2   -1    0    0    0  501 -0.00000000000E+00 -0.00000000000E+00 -0.16109354534E+02  0.16109354534E+02  0.00000000000E+00 0.  1.
         25    2    1    2    0    0  0.73867577380E+02 -0.49223349211E+02  0.67361375831E+03  0.69085619462E+03  0.12508968450E+03 0.  0.
          5    1    3    3  502    0 -0.14088517279E+02 -0.14782475001E+02  0.15475907500E+02  0.25961201807E+02  0.41800000000E+01 0.  1.
         -5    1    3    3    0  502  0.87956094659E+02 -0.34440874210E+02  0.65813785081E+03  0.66489499282E+03  0.41800000000E+01 0.  1.
        -11    1    1    2    0    0 -0.16754027162E+02  0.41908513975E+02  0.97711179247E+02  0.10763129433E+03  0.00000000000E+00 0.  1.
         11    1    1    2    0    0 -0.57113550218E+02  0.73148352363E+01  0.32533594846E+03  0.33039210613E+03  0.00000000000E+00 0. -1.
</event>
<event>
 7    1  0.2690635E-009  0.1187722E+03  0.7561462E-02  0.1245136E+00
          2   -1    0    0  501    0  0.00000000000E+00  0.00000000000E+00  0.25282019712E+03  0.25282019712E+03  0.00000000000E+00 0. -1.
         -2   -1    0    0    0  501 -0.00000000000E+00 -0.00000000000E+00 -0.89037657648E+02  0.89037657648E+02  0.00000000000E+00 0.  1.
         25    2    1    2    0    0  0.43094313021E+02 -0.25154431302E+02 -0.14606666454E+02  0.13546577127E+03  0.12509098789E+03 0.  0.
          5    1    3    3  502    0 -0.43166680216E+02  0.29175860612E+01 -0.96227585281E+01  0.44519034929E+02  0.41800000000E+01 0.  1.
         -5    1    3    3    0  502  0.86260993238E+02 -0.28072017363E+02 -0.49839079255E+01  0.90946736343E+02  0.41800000000E+01 0.  1.
        -11    1    1    2    0    0 -0.45566779338E+02  0.56071436620E+02  0.13404782545E+03  0.15227986371E+03  0.00000000000E+00 0.  1.
         11    1    1    2    0    0  0.24724663169E+01 -0.30917005318E+02  0.44341380470E+02  0.54112219780E+02  0.00000000000E+00 0. -1.
</event>
<event>
 7    1  0.2690635E-009  0.9669404E+02  0.7561462E-02  0.1287406E+00
         -3   -1    0    0    0  501 -0.00000000000E+00  0.00000000000E+00  0.22173981714E+03  0.22173981714E+03  0.00000000000E+00 0.  1.
          3   -1    0    0  501    0  0.00000000000E+00 -0.00000000000E+00 -0.67447142630E+02  0.67447142630E+02  0.00000000000E+00 0. -1.
         25    2    1    2    0    0 -0.49396518856E+02  0.21147984133E+02  0.94376487440E+02  0.16565860376E+03  0.12509435763E+03 0.  0.
          5    1    3    3  502    0 -0.59662284613E+02 -0.19443332600E+01 -0.77763484089E+01  0.60343289865E+02  0.41800000000E+01 0. -1.
         -5    1    3    3    0  502  0.10265765757E+02  0.23092317393E+02  0.10215283585E+03  0.10531531390E+03  0.41800000000E+01 0. -1.
        -11    1    1    2    0    0  0.64045369816E+02  0.17674120067E+02  0.34399750196E+02  0.74816620671E+02  0.00000000000E+00 0.  1.
         11    1    1    2    0    0 -0.14648850960E+02 -0.38822104200E+02  0.25516436877E+02  0.48711735340E+02  0.00000000000E+00 0. -1.
</event>
<event>
 7    1  0.2690635E-009  0.1939130E+03  0.7561462E-02  0.1154979E+00
          2   -1    0    0  501    0  0.00000000000E+00  0.00000000000E+00  0.98888606177E+03  0.98888606177E+03  0.00000000000E+00 0. -1.
         -2   -1    0    0    0  501 -0.00000000000E+00 -0.00000000000E+00 -0.43048807559E+02  0.43048807559E+02  0.00000000000E+00 0.  1.
         25    2    1    2    0    0  0.11793550319E+03 -0.10975064345E+03  0.32036580195E+03  0.37978338610E+03  0.12508871509E+03 0.  0.
          5    1    3    3  502    0  0.12268113854E+03 -0.34072685387E+02  0.21488010149E+03  0.24980500408E+03  0.41800000000E+01 0. -1.
         -5    1    3    3    0  502 -0.47456353496E+01 -0.75677958065E+02  0.10548570046E+03  0.12997838202E+03  0.41800000000E+01 0. -1.
        -11    1    1    2    0    0 -0.80989117733E+02  0.14435444512E+02  0.29138243578E+03  0.30277275824E+03  0.00000000000E+00 0. -1.
         11    1    1    2    0    0 -0.36946385458E+02  0.95315198940E+02  0.33408901647E+03  0.34937872499E+03  0.00000000000E+00 0.  1.
</event>
<event>
 7    1  0.2690635E-009  0.1056259E+03  0.7561462E-02  0.1268891E+00
         -3   -1    0    0    0  501 -0.00000000000E+00  0.00000000000E+00  0.71968448437E+02  0.71968448437E+02  0.00000000000E+00 0.  1.
          3   -1    0    0  501    0  0.00000000000E+00 -0.00000000000E+00 -0.21217241124E+03  0.21217241124E+03  0.00000000000E+00 0. -1.
         25    2    1    2    0    0  0.45497105653E+02 -0.31406425799E+02 -0.57015635429E+02  0.14816486162E+03  0.12508274594E+03 0.  0.
          5    1    3    3  502    0 -0.43120429501E+02 -0.67634267534E+01 -0.26155456942E+02  0.51055809753E+02  0.41800000000E+01 0. -1.
         -5    1    3    3    0  502  0.88617535153E+02 -0.24642999045E+02 -0.30860178488E+02  0.97109051869E+02  0.41800000000E+01 0. -1.
        -11    1    1    2    0    0 -0.45607016954E+02  0.17165726062E+01  0.20798504693E+01  0.45686676340E+02  0.00000000000E+00 0.  1.
         11    1    1    2    0    0  0.10991130160E+00  0.29689853193E+02 -0.85268177846E+02  0.90289321717E+02  0.00000000000E+00 0. -1.
</event>
<event>
 7    1  0.2690635E-009  0.1118581E+03  0.7561462E-02  0.1257167E+00
         -2   -1    0    0    0  501 -0.00000000000E+00  0.00000000000E+00  0.17372474180E+02  0.17372474180E+02  0.00000000000E+00 0.  1.
          2   -1    0    0  501    0  0.00000000000E+00 -0.00000000000E+00 -0.23536927564E+04  0.23536927564E+04  0.00000000000E+00 0. -1.
         25    2    1    2    0    0  0.71604386490E+01  0.82714778336E+02 -0.20911084186E+04  0.20964911630E+04  0.12509105336E+03 0.  0.
          5    1    3    3  502    0  0.35327795803E+02  0.54555675814E+02 -0.19054431705E+04  0.19065559324E+04  0.41800000000E+01 0.  1.
         -5    1    3    3    0  502 -0.28167357154E+02  0.28159102521E+02 -0.18566524813E+03  0.18993523061E+03  0.41800000000E+01 0.  1.
        -11    1    1    2    0    0 -0.46024127869E+02 -0.46213518065E+02 -0.17242655004E+03  0.18434973489E+03  0.00000000000E+00 0. -1.
         11    1    1    2    0    0  0.38863689220E+02 -0.36501260271E+02 -0.72785313588E+02  0.90224332723E+02  0.00000000000E+00 0.  1.
</event>
<event>
 7    1  0.2690635E-009  0.9798603E+02  0.7561462E-02  0.1284589E+00
          2   -1    0    0  501    0  0.00000000000E+00  0.00000000000E+00  0.85244916145E+03  0.85244916145E+03  0.00000000000E+00 0. -1.
         -2   -1    0    0    0  501 -0.00000000000E+00 -0.00000000000E+00 -0.32785287417E+02  0.32785287417E+02  0.00000000000E+00 0.  1.
         25    2    1    2    0    0  0.13903195974E+02 -0.64455289072E+02  0.72271475960E+03  0.73641906008E+03  0.12509446493E+03 0.  0.
          5    1    3    3  502    0 -0.21845589050E+02 -0.69922922981E+02  0.65871833662E+03  0.66279239911E+03  0.41800000000E+01 0. -1.
         -5    1    3    3    0  502  0.35748785024E+02  0.54676339091E+01  0.63996422981E+02  0.73626660970E+02  0.41800000000E+01 0. -1.
        -11    1    1    2    0    0 -0.34250752738E+02  0.52214996100E+02  0.16011131482E+02  0.64466085752E+02  0.00000000000E+00 0.  1.
         11    1    1    2    0    0  0.20347556765E+02  0.12240292972E+02  0.80937982949E+02  0.84349303033E+02  0.00000000000E+00 0. -1.
</event>
<event>
 7    1  0.2690635E-009  0.1699471E+03  0.7561462E-02  0.1177903E+00
         -1   -1    0    0    0  501 -0.00000000000E+00  0.00000000000E+00  0.60742587882E+03  0.60742587882E+03  0.00000000000E+00 0.  1.
          1   -1    0    0  501    0  0.00000000000E+00 -0.00000000000E+00 -0.10197010007E+03  0.10197010007E+03  0.00000000000E+00 0. -1.
         25    2    1    2    0    0 -0.14389658278E+03  0.27880344222E+02  0.50147065853E+03  0.53721748209E+03  0.12508501738E+03 0.  0.
          5    1    3    3  502    0 -0.81994201747E+01 -0.21616476920E+02  0.21583480249E+03  0.21710973477E+03  0.41800000000E+01 0.  1.
         -5    1    3    3    0  502 -0.13569716260E+03  0.49496821142E+02  0.28563585604E+03  0.32010774732E+03  0.41800000000E+01 0.  1.
        -11    1    1    2    0    0  0.49706541370E+02 -0.54751442250E+02 -0.27405917125E+01  0.73999807610E+02  0.00000000000E+00 0.  1.
         11    1    1    2    0    0  0.94190041407E+02  0.26871098028E+02  0.67257119434E+01  0.98178689188E+02  0.00000000000E+00 0. -1.
</event>
<event>
 7    1  0.2690635E-009  0.9988741E+02  0.7561462E-02  0.1280533E+00
          2   -1    0    0  501    0  0.00000000000E+00  0.00000000000E+00  0.76856965075E+03  0.76856965075E+03  0.00000000000E+00 0.  1.
         -2   -1    0    0    0  501 -0.00000000000E+00 -0.00000000000E+00 -0.21481914145E+02  0.21481914145E+02  0.00000000000E+00 0. -1.
         25    2    1    2    0    0  0.89769380915E+01  0.46976402975E+02  0.56528588895E+03  0.58093178568E+03  0.12508491320E+03 0.  0.
          5    1    3    3  502    0 -0.44162036981E+01 -0.34569206008E+02  0.65207824247E+02  0.74054477259E+02  0.41800000000E+01 0.  1.
         -5    1    3    3    0  502  0.13393141790E+02  0.81545608983E+02  0.50007806470E+03  0.50687730842E+03  0.41800000000E+01 0.  1.
        -11    1    1    2    0    0 -0.33399823744E+02 -0.46814368422E+02  0.17434310131E+03  0.18358281589E+03  0.00000000000E+00 0.  1.
         11    1    1    2    0    0  0.24422885653E+02 -0.16203455256E+00  0.74587463439E+01  0.25536963324E+02  0.00000000000E+00 0. -1.
</event>
<event>
 7    1  0.2690635E-009  0.1171770E+03  0.7561462E-02  0.1247828E+00
         -1   -1    0    0    0  501 -0.00000000000E+00  0.00000000000E+00  0.19193593592E+02  0.19193593592E+02  0.00000000000E+00 0.  1.
          1   -1    0    0  501    0  0.00000000000E+00 -0.00000000000E+00 -0.25146310354E+04  0.25146310354E+04  0.00000000000E+00 0. -1.
         25    2    1    2    0    0 -0.62984074458E+02  0.87424361008E+02 -0.22038714097E+04  0.22100467543E+04  0.12508978001E+03 0.  0.
          5    1    3    3  502    0 -0.36438920360E+02  0.86314519913E+02 -0.73883138180E+03  0.74475987701E+03  0.41800000000E+01 0.  1.
         -5    1    3    3    0  502 -0.26545154098E+02  0.11098410950E+01 -0.14650400279E+04  0.14652868773E+04  0.41800000000E+01 0.  1.
        -11    1    1    2    0    0  0.40509555035E+02 -0.80565824452E+02 -0.28565120336E+03  0.29954713502E+03  0.00000000000E+00 0. -1.
         11    1    1    2    0    0  0.22474519423E+02 -0.68585365550E+01 -0.59148287485E+01  0.24230739694E+02  0.00000000000E+00 0.  1.
</event>
<event>
 7    1  0.2690635E-009  0.1144547E+03  0.7561462E-02  0.1252536E+00
         -1   -1    0    0    0  501 -0.00000000000E+00  0.00000000000E+00  0.12729333535E+03  0.12729333535E+03  0.00000000000E+00 0.  1.
          1   -1    0    0  501    0  0.00000000000E+00 -0.00000000000E+00 -0.12365127494E+03  0.12365127494E+03  0.00000000000E+00 0. -1.
         25    2    1    2    0    0  0.57836542741E+02 -0.24509602377E+02  0.13038065427E+02  0.14058210310E+03  0.12509016858E+03 0.  0.
          5    1    3    3  502    0  0.69322231352E+02  0.20417821564E+02  0.43959023933E+02  0.84689594297E+02  0.41800000000E+01 0.  1.
         -5    1    3    3    0  502 -0.11485688611E+02 -0.44927423941E+02 -0.30920958507E+02  0.55892508799E+02  0.41800000000E+01 0.  1.
        -11    1    1    2    0    0 -0.69427833036E+02 -0.13059278446E+02 -0.59937556616E+01  0.70899180959E+02  0.00000000000E+00 0.  1.
         11    1    1    2    0    0  0.11591290295E+02  0.37568880823E+02 -0.34022493551E+01  0.39463326237E+02  0.00000000000E+00 0. -1.
</event>
<event>
 7    1  0.2690635E-009  0.8000425E+02  0.7561462E-02  0.1329039E+00
          2   -1    0    0  501    0  0.00000000000E+00  0.00000000000E+00  0.57483154157E+03  0.57483154157E+03  0.00000000000E+00 0.  1.
         -2   -1    0    0    0  501 -0.00000000000E+00 -0.00000000000E+00 -0.20832126745E+02  0.20832126745E+02  0.00000000000E+00 0. -1.
         25    2    1    2    0    0 -0.30219661210E+02  0.53571042223E+01  0.35010229490E+03  0.37304018883E+03  0.12508172970E+03 0.  0.
          5    1    3    3  502    0 -0.45199018942E+02  0.28893398931E+02  0.33814705741E+03  0.34240135025E+03  0.41800000000E+01 0. -1.
         -5    1    3    3    0  502  0.14979357732E+02 -0.23536294708E+02  0.11955237483E+02  0.30638838586E+02  0.41800000000E+01 0. -1.
        -11    1    1    2    0    0  0.77725204644E+01 -0.37771461692E+02  0.15544075886E+03  0.16015281735E+03  0.00000000000E+00 0.  1.
         11    1    1    2    0    0  0.22447140746E+02  0.32414357470E+02  0.48456361072E+02  0.62470662124E+02  0.00000000000E+00 0. -1.
</event>
<event>
 7    1  0.2690635E-009  0.1943665E+03  0.7561462E-02  0.1154581E+00
         -1   -1    0    0    0  501 -0.00000000000E+00  0.00000000000E+00  0.46381944820E+02  0.46381944820E+02  0.00000000000E+00 0.  1.
          1   -1    0    0  501    0  0.00000000000E+00 -0.00000000000E+00 -0.99535663831E+03  0.99535663831E+03  0.00000000000E+00 0. -1.
         25    2    1    2    0    0 -0.17133128571E+03  0.34279983654E+02 -0.34340556971E+03  0.40509830408E+03  0.12509086263E+03 0.  0.
          5    1    3    3  502    0 -0.10342473579E+02 -0.25315618274E+02 -0.12096922091E+03  0.12409219192E+03  0.41800000000E+01 0. -1.
         -5    1    3    3    0  502 -0.16098881213E+03  0.59595601928E+02 -0.22243634881E+03  0.28100611216E+03  0.41800000000E+01 0. -1.
        -11    1    1    2    0    0  0.64440113007E+02 -0.49666870528E+02 -0.17915163533E+03  0.19676034823E+03  0.00000000000E+00 0.  1.
         11    1    1    2    0    0  0.10689117270E+03  0.15386886873E+02 -0.42641748844E+03  0.43987993082E+03  0.00000000000E+00 0. -1.
</event>
<event>
 7    1  0.2690635E-009  0.1792764E+03  0.7561462E-02  0.1168505E+00
         -1   -1    0    0    0  501 -0.00000000000E+00  0.00000000000E+00  0.30923102785E+02  0.30923102785E+02  0.00000000000E+00 0.  1.
          1   -1    0    0  501    0  0.00000000000E+00 -0.00000000000E+00 -0.11187721268E+04  0.11187721268E+04  0.00000000000E+00 0. -1.
         25    2    1    2    0    0 -0.94629653549E+02  0.12690328113E+03 -0.54580919937E+03  0.58190595942E+03  0.12509056481E+03 0.  0.
          5    1    3    3  502    0 -0.11564113365E+03  0.12126027454E+03 -0.52643764248E+03  0.55247713961E+03  0.41800000000E+01 0.  1.
         -5    1    3    3    0  502  0.21011480096E+02  0.56430065892E+01 -0.19371556889E+02  0.29428819812E+02  0.41800000000E+01 0.  1.
        -11    1    1    2    0    0  0.82463826075E+02 -0.63109627356E+02 -0.34870958330E+03  0.36384265990E+03  0.00000000000E+00 0. -1.
         11    1    1    2    0    0  0.12165827474E+02 -0.63793653778E+02 -0.19333024139E+03  0.20394661031E+03  0.00000000000E+00 0.  1.
</event>
<event>
 7    1  0.2690635E-009  0.1235719E+03  0.7561462E-02  0.1237318E+00
         -1   -1    0    0    0  501 -0.00000000000E+00  0.00000000000E+00  0.34269767548E+02  0.34269767548E+02  0.00000000000E+00 0.  1.
          1   -1    0    0  501    0  0.00000000000E+00 -0.00000000000E+00 -0.61409990811E+03  0.61409990811E+03  0.00000000000E+00 0. -1.
         25    2    1    2    0    0 -0.76534863362E+02 -0.17882576545E+02 -0.44303549352E+03  0.46701755503E+03  0.12509027274E+03 0.  0.
          5    1    3    3  502    0 -0.24564991223E+02  0.47072927672E+02 -0.92649124028E+02  0.10686735655E+03  0.41800000000E+01 0.  1.
         -5    1    3    3    0  502 -0.51969872138E+02 -0.64955504217E+02 -0.35038636949E+03  0.36015019848E+03  0.41800000000E+01 0.  1.
        -11    1    1    2    0    0  0.73477371600E+02 -0.17127517328E+02 -0.12151222810E+03  0.14302970868E+03  0.00000000000E+00 0. -1.
         11    1    1    2    0    0  0.30574917618E+01  0.35010093874E+02 -0.15282418945E+02  0.38322411951E+02  0.00000000000E+00 0.  1.
</event>
<event>
 7    1  0.2690635E-009  0.1165348E+03  0.7561462E-02  0.1248925E+00
          2   -1    0    0  501    0  0.00000000000E+00  0.00000000000E+00  0.63116787083E+03  0.63116787083E+03  0.00000000000E+00 0. -1.
         -2   -1    0    0    0  501 -0.00000000000E+00 -0.00000000000E+00 -0.34753313320E+02  0.34753313320E+02  0.00000000000E+00 0.  1.
         25    2    1    2    0    0  0.28065651145E+01 -0.66219339925E+02  0.49385752959E+03  0.51374671681E+03  0.12509017433E+03 0.  0.
          5    1    3    3  502    0  0.49835243730E+02 -0.52586216660E+02  0.15268877794E+03  0.16905678634E+03  0.41800000000E+01 0.  1.
         -5    1    3    3    0  502 -0.47028678616E+02 -0.13633123265E+02  0.34116875165E+03  0.34468993046E+03  0.41800000000E+01 0.  1.
        -11    1    1    2    0    0  0.43361125169E+02  0.31984719543E+02  0.39203743561E+02  0.66634397794E+02  0.00000000000E+00 0.  1.
         11    1    1    2    0    0 -0.46167690283E+02  0.34234620382E+02  0.63353284362E+02  0.85540069548E+02  0.00000000000E+00 0. -1.
</event>
<event>
 7    1  0.2690635E-009  0.1609059E+03  0.7561462E-02  0.1187678E+00
          2   -1    0    0  501    0  0.00000000000E+00  0.00000000000E+00  0.75481893722E+03  0.75481893722E+03  0.00000000000E+00 0.  1.
         -2   -1    0    0    0  501 -0.00000000000E+00 -0.00000000000E+00 -0.45875241282E+02  0.45875241282E+02  0.00000000000E+00 0. -1.
         25    2    1    2    0    0  0.11689618118E+03 -0.70935368337E+02  0.51214484750E+03  0.54464329814E+03  0.12508970274E+03 0.  0.
          5    1    3    3  502    0  0.12848818400E+03 -0.70697250283E+02  0.31916940416E+03  0.35127467256E+03  0.41800000000E+01 0. -1.
         -5    1    3    3    0  502 -0.11592002816E+02 -0.23811805454E+00  0.19297544334E+03  0.19336862558E+03  0.41800000000E+01 0. -1.
        -11    1    1    2    0    0 -0.37295261381E+02 -0.19673083136E+02  0.64171982661E+02  0.76785480920E+02  0.00000000000E+00 0.  1.
         11    1    1    2    0    0 -0.79600919801E+02  0.90608451473E+02  0.13262686578E+03  0.17926539945E+03  0.00000000000E+00 0. -1.
</event>
<event>
 7    1  0.2690635E-009  0.1495650E+03  0.7561462E-02  0.1201009E+00
          2   -1    0    0  501    0  0.00000000000E+00  0.00000000000E+00  0.13317335196E+04  0.13317335196E+04  0.00000000000E+00 0. -1.
         -2   -1    0    0    0  501 -0.00000000000E+00 -0.00000000000E+00 -0.34133493655E+02  0.34133493655E+02  0.00000000000E+00 0.  1.
         25    2    1    2    0    0 -0.90871033638E+01 -0.12526988231E+03  0.10925768246E+04  0.11068635498E+04  0.12509069267E+03 0.  0.
          5    1    3    3  502    0 -0.41237811761E+02  0.25474383173E+01  0.37295520752E+03  0.37526005087E+03  0.41800000000E+01 0.  1.
         -5    1    3    3    0  502  0.32150708397E+02 -0.12781732063E+03  0.71962161703E+03  0.73160349890E+03  0.41800000000E+01 0.  1.
        -11    1    1    2    0    0  0.26500419467E+01  0.76359741670E+02  0.38955532436E+02  0.85763432637E+02  0.00000000000E+00 0.  1.
         11    1    1    2    0    0  0.64370614170E+01  0.48910140639E+02  0.16606766899E+03  0.17324003088E+03  0.00000000000E+00 0. -1.
</event>
<event>
 7    1  0.2690635E-009  0.1574579E+03  0.7561462E-02  0.1191597E+00
         -3   -1    0    0    0  501 -0.00000000000E+00  0.00000000000E+00  0.13373098000E+02  0.13373098000E+02  0.00000000000E+00 0.  1.
          3   -1    0    0  501    0  0.00000000000E+00 -0.00000000000E+00 -0.27417333717E+04  0.27417333717E+04  0.00000000000E+00 0. -1.
         25    2    1    2    0    0 -0.13393020395E+03 -0.24791233097E+02 -0.19616280644E+04  0.19703259283E+04  0.12509075060E+03 0.  0.
          5    1    3    3  502    0 -0.12415701507E+03 -0.26539999104E+01 -0.91370013472E+03  0.92211030614E+03  0.41800000000E+01 0.  1.
         -5    1    3    3    0  502 -0.97731888851E+01 -0.22137233187E+02 -0.10479279297E+04  0.10482156221E+04  0.41800000000E+01 0.  1.
        -11    1    1    2    0    0  0.11462323129E+03 -0.20888322724E+02 -0.49191956541E+03  0.50552909511E+03  0.00000000000E+00 0.  1.
         11    1    1    2    0    0  0.19306972663E+02  0.45679555821E+02 -0.27481264389E+03  0.27925144629E+03  0.00000000000E+00 0. -1.
</event>
<event>
 7    1  0.2690635E-009  0.8342261E+02  0.7561462E-02  0.1319610E+00
         -1   -1    0    0    0  501 -0.00000000000E+00  0.00000000000E+00  0.11993019029E+03  0.11993019029E+03  0.00000000000E+00 0.  1.
          1   -1    0    0  501    0  0.00000000000E+00 -0.00000000000E+00 -0.12482138410E+03  0.12482138410E+03  0.00000000000E+00 0. -1.
         25    2    1    2    0    0 -0.43191023680E+02 -0.39327615425E+02 -0.48539274007E+01  0.13814065294E+03  0.12508858270E+03 0.  0.
          5    1    3    3  502    0 -0.30740990324E+02 -0.54042787698E+02 -0.55714587657E+02  0.83589587068E+02  0.41800000000E+01 0.  1.
         -5    1    3    3    0  502 -0.12450033356E+02  0.14715172273E+02  0.50860660257E+02  0.54551065868E+02  0.41800000000E+01 0.  1.
        -11    1    1    2    0    0  0.59027041645E+02  0.33887595085E+02  0.28287411453E+02  0.73707112226E+02  0.00000000000E+00 0.  1.
         11    1    1    2    0    0 -0.15836017965E+02  0.54400203404E+01 -0.28324677859E+02  0.32903809234E+02  0.00000000000E+00 0. -1.
</event>
<event>
 7    1  0.2690635E-009  0.1660967E+03  0.7561462E-02  0.1181981E+00
          1   -1    0    0  501    0  0.00000000000E+00  0.00000000000E+00  0.16991162190E+03  0.16991162190E+03  0.00000000000E+00 0. -1.
         -1   -1    0    0    0  501 -0.00000000000E+00 -0.00000000000E+00 -0.19583992550E+03  0.19583992550E+03  0.00000000000E+00 0.  1.
         25    2    1    2    0    0 -0.39979272883E+02  0.12281234961E+03  0.51301090101E+02  0.18698188529E+03  0.12509679494E+03 0.  0.
          5    1    3    3  502    0  0.36810970218E+02  0.65436799256E+02  0.51308209054E+02  0.91033109040E+02  0.41800000000E+01 0. -1.
         -5    1    3    3    0  502 -0.76790243100E+02  0.57375550356E+02 -0.71189531415E-02  0.95948776255E+02  0.41800000000E+01 0. -1.
        -11    1    1    2    0    0 -0.29312365280E+02 -0.63105791689E+02 -0.37550200743E+02  0.79066891167E+02  0.00000000000E+00 0.  1.
         11    1    1    2    0    0  0.69291638163E+02 -0.59706557923E+02 -0.39679192961E+02  0.99702770936E+02  0.00000000000E+00 0. -1.
</event>
<event>
 7    1  0.2690635E-009  0.1059330E+03  0.7561462E-02  0.1268292E+00
         -2   -1    0    0    0  501 -0.00000000000E+00  0.00000000000E+00  0.41464748847E+03  0.41464748847E+03  0.00000000000E+00 0.  1.
          2   -1    0    0  501    0  0.00000000000E+00 -0.00000000000E+00 -0.67169634790E+02  0.67169634790E+02  0.00000000000E+00 0. -1.
         25    2    1    2    0    0  0.18553484130E+02  0.50321449786E+02  0.24465980724E+02  0.13828450709E+03  0.12509012994E+03 0.  0.
          5    1    3    3  502    0  0.51346471684E+02  0.49281628006E+02  0.57460925306E+02  0.91566202009E+02  0.41800000000E+01 0. -1.
         -5    1    3    3    0  502 -0.32792987554E+02  0.10398217794E+01 -0.32994944582E+02  0.46718305085E+02  0.41800000000E+01 0. -1.
        -11    1    1    2    0    0 -0.55376797129E+02 -0.17240865127E+02  0.10481729836E+03  0.11979358550E+03  0.00000000000E+00 0.  1.
         11    1    1    2    0    0  0.36823312999E+02 -0.33080584658E+02  0.21819457459E+03  0.22373903067E+03  0.00000000000E+00 0. -1.
</event>
<event>
 7    1  0.2690635E-009  0.1023887E+03  0.7561462E-02  0.1275352E+00
         -2   -1    0    0    0  501 -0.00000000000E+00  0.00000000000E+00  0.17952157577E+02  0.17952157577E+02  0.00000000000E+00 0.  1.
          2   -1    0    0  501    0  0.00000000000E+00 -0.00000000000E+00 -0.80251293908E+03  0.80251293908E+03  0.00000000000E+00 0. -1.
         25    2    1    2    0    0  0.12176747583E+02 -0.38917268031E+02 -0.57195244560E+03  0.58689036160E+03  0.12509144484E+03 0.  0.
          5    1    3    3  502    0  0.14078419927E+02 -0.74605897248E+02 -0.50670674746E+03  0.51238017344E+03  0.41800000000E+01 0.  1.
         -5    1    3    3    0  502 -0.19016723431E+01  0.35688629217E+02 -0.65245698142E+02  0.74510188157E+02  0.41800000000E+01 0.  1.
        -11    1    1    2    0    0 -0.43763401686E+02  0.14989189377E+01 -0.13388826861E+03  0.14086713796E+03  0.00000000000E+00 0. -1.
         11    1    1    2    0    0  0.31586654102E+02  0.37418349093E+02 -0.78720067287E+02  0.92707597099E+02  0.00000000000E+00 0.  1.
</event>
<event>
 7    1  0.2690635E-009  0.1085196E+03  0.7561462E-02  0.1263336E+00
         -2   -1    0    0    0  501 -0.00000000000E+00  0.00000000000E+00  0.28168308307E+02  0.28168308307E+02  0.00000000000E+00 0.  1.
          2   -1    0    0  501    0  0.00000000000E+00 -0.00000000000E+00 -0.45315619930E+03  0.45315619930E+03  0.00000000000E+00 0. -1.
         25    2    1    2    0    0  0.28537312063E+02  0.43892685046E+01 -0.19703042452E+03  0.23516413323E+03  0.12509011757E+03 0.  0.
          5    1    3    3  502    0  0.38630938929E+02  0.59681005539E+02 -0.12288449534E+03  0.14202902330E+03  0.41800000000E+01 0.  1.
         -5    1    3    3    0  502 -0.10093626866E+02 -0.55291737034E+02 -0.74145929178E+02  0.93135109927E+02  0.41800000000E+01 0.  1.
        -11    1    1    2    0    0 -0.49601510534E+02 -0.28691956573E+02 -0.17561258198E+03  0.18472497711E+03  0.00000000000E+00 0. -1.
         11    1    1    2    0    0  0.21064198471E+02  0.24302688068E+02 -0.52344884489E+02  0.61435397262E+02  0.00000000000E+00 0.  1.
</event>
<event>
 7    1  0.2690635E-009  0.1297644E+03  0.7561462E-02  0.1227806E+00
         -1   -1    0    0    0  501 -0.00000000000E+00  0.00000000000E+00  0.77050980474E+03  0.77050980474E+03  0.00000000000E+00 0.  1.
          1   -1    0    0  501    0  0.00000000000E+00 -0.00000000000E+00 -0.22425599633E+02  0.22425599633E+02  0.00000000000E+00 0. -1.
         25    2    1    2    0    0 -0.36451472541E+02  0.64596775603E+02  0.43918892062E+03  0.46264051973E+03  0.12509152344E+03 0.  0.
          5    1    3    3  502    0 -0.69835103615E+02  0.81689586589E+02  0.31607518341E+03  0.33387291627E+03  0.41800000000E+01 0.  1.
         -5    1    3    3    0  502  0.33383631074E+02 -0.17092810986E+02  0.12311373721E+03  0.12876760346E+03  0.41800000000E+01 0.  1.
        -11    1    1    2    0    0  0.16668536075E+02  0.20757597310E+02  0.45578450935E+02  0.52783644537E+02  0.00000000000E+00 0. -1.
         11    1    1    2    0    0  0.19782936466E+02 -0.85354372913E+02  0.26331683355E+03  0.27751124010E+03  0.00000000000E+00 0.  1.
</event>
<event>
 7    1  0.2690635E-009  0.1370809E+03  0.7561462E-02  0.1217312E+00
          2   -1    0    0  501    0  0.00000000000E+00  0.00000000000E+00  0.33251030558E+03  0.33251030558E+03  0.00000000000E+00 0. -1.
         -2   -1    0    0    0  501 -0.00000000000E+00 -0.00000000000E+00 -0.68094765265E+02  0.68094765265E+02  0.00000000000E+00 0.  1.
         25    2    1    2    0    0 -0.88348664778E+02  0.48364628189E+02  0.11202692945E+03  0.19581112923E+03  0.12508933440E+03 0.  0.
          5    1    3    3  502    0 -0.71608059510E+02  0.88678443214E+02  0.64039537380E+02  0.13080563912E+03  0.41800000000E+01 0.  1.
         -5    1    3    3    0  502 -0.16740605268E+02 -0.40313815025E+02  0.47987392068E+02  0.65005490107E+02  0.41800000000E+01 0.  1.
        -11    1    1    2    0    0  0.39025560988E+02  0.95547957053E+01  0.71104135327E+01  0.40802530705E+02  0.00000000000E+00 0.  1.
         11    1    1    2    0    0  0.49323103791E+02 -0.57919423895E+02  0.14527819733E+03  0.16399141091E+03  0.00000000000E+00 0. -1.
</event>
<event>
 7    1  0.2690635E-009  0.2092307E+03  0.7561462E-02  0.1142177E+00
          3   -1    0    0  501    0  0.00000000000E+00  0.00000000000E+00  0.12829646459E+03  0.12829646459E+03  0.00000000000E+00 0. -1.
         -3   -1    0    0    0  501 -0.00000000000E+00 -0.00000000000E+00 -0.58448413012E+03  0.58448413012E+03  0.00000000000E+00 0.  1.
         25    2    1    2    0    0 -0.19767799532E+03 -0.51681680249E+02 -0.43667220366E+02  0.24351907075E+03  0.12508847180E+03 0.  0.
          5    1    3    3  502    0 -0.86227192312E+02  0.38463913298E+01 -0.75696845120E+02  0.11487997293E+03  0.41800000000E+01 0. -1.
         -5    1    3    3    0  502 -0.11145080301E+03 -0.55528071579E+02  0.32029624754E+02  0.12863909782E+03  0.41800000000E+01 0. -1.
        -11    1    1    2    0    0  0.74710679003E+02  0.17215131203E+01 -0.24138010154E+03  0.25268360173E+03  0.00000000000E+00 0.  1.
         11    1    1    2    0    0  0.12296731632E+03  0.49960167129E+02 -0.17114034363E+03  0.21657792223E+03  0.00000000000E+00 0. -1.
</event>
<event>
 7    1  0.2690635E-009  0.9768201E+02  0.7561462E-02  0.1285247E+00
         -2   -1    0    0    0  501 -0.00000000000E+00  0.00000000000E+00  0.22819270279E+02  0.22819270279E+02  0.00000000000E+00 0.  1.
          2   -1    0    0  501    0  0.00000000000E+00 -0.00000000000E+00 -0.75902011580E+03  0.75902011580E+03  0.00000000000E+00 0. -1.
         25    2    1    2    0    0  0.42207984794E+01  0.59257417377E+02 -0.54008604901E+03  0.55755841135E+03  0.12509670289E+03 0.  0.
          5    1    3    3  502    0  0.44125414548E+02  0.44762608107E+02 -0.47856570598E+03  0.48269384773E+03  0.41800000000E+01 0.  1.
         -5    1    3    3    0  502 -0.39904616068E+02  0.14494809270E+02 -0.61520343026E+02  0.74864563616E+02  0.41800000000E+01 0.  1.
        -11    1    1    2    0    0  0.31366621701E+02 -0.22922025170E+02 -0.26052361431E+02  0.46776166271E+02  0.00000000000E+00 0.  1.
         11    1    1    2    0    0 -0.35587420180E+02 -0.36335392207E+02 -0.17006243508E+03  0.17750480847E+03  0.00000000000E+00 0. -1.
</event>
<event>
 7    1  0.2690635E-009  0.1517252E+03  0.7561462E-02  0.1198369E+00
          1   -1    0    0  501    0  0.00000000000E+00  0.00000000000E+00  0.14408886638E+03  0.14408886638E+03  0.00000000000E+00 0. -1.
         -1   -1    0    0    0  501 -0.00000000000E+00 -0.00000000000E+00 -0.33473828020E+03  0.33473828020E+03  0.00000000000E+00 0.  1.
         25    2    1    2    0    0  0.97336095637E+02  0.88774557379E+02  0.52085743468E+02  0.18898557609E+03  0.12508951093E+03 0.  0.
          5    1    3    3  502    0  0.31715058180E+02  0.69740124319E+02  0.83733054058E+02  0.11357035968E+03  0.41800000000E+01 0.  1.
         -5    1    3    3    0  502  0.65621037457E+02  0.19034433059E+02 -0.31647310590E+02  0.75415216411E+02  0.41800000000E+01 0.  1.
        -11    1    1    2    0    0 -0.22617818205E+02 -0.79884534796E+02 -0.13298568066E+03  0.15677466587E+03  0.00000000000E+00 0.  1.
         11    1    1    2    0    0 -0.74718277432E+02 -0.88900225829E+01 -0.10974947663E+03  0.13306690461E+03  0.00000000000E+00 0. -1.
</event>
<event>
 7    1  0.2690635E-009  0.1242565E+03  0.7561462E-02  0.1236236E+00
          2   -1    0    0  501    0  0.00000000000E+00  0.00000000000E+00  0.91015346125E+03  0.91015346125E+03  0.00000000000E+00 0. -1.
         -2   -1    0    0    0  501 -0.00000000000E+00 -0.00000000000E+00 -0.25866389439E+02  0.25866389439E+02  0.00000000000E+00 0.  1.
         25    2    1    2    0    0  0.79358587317E+02  0.70690849371E+02  0.43990386877E+03  0.46953090111E+03  0.12509545062E+03 0.  0.
          5    1    3    3  502    0  0.52848908747E+02  0.34050931032E+02  0.41076630707E+03  0.41557057701E+03  0.41800000000E+01 0. -1.
         -5    1    3    3    0  502  0.26509678570E+02  0.36639918339E+02  0.29137561707E+02  0.53960324091E+02  0.41800000000E+01 0. -1.
        -11    1    1    2    0    0 -0.19129966868E+02 -0.77175956662E+02  0.21464511328E+03  0.22889868626E+03  0.00000000000E+00 0.  1.
         11    1    1    2    0    0 -0.60228620449E+02  0.64851072904E+01  0.22973808976E+03  0.23759026332E+03  0.00000000000E+00 0. -1.
</event>
<event>
 7    1  0.2690635E-009  0.1020557E+03  0.7561462E-02  0.1276031E+00
          2   -1    0    0  501    0  0.00000000000E+00  0.00000000000E+00  0.76865126033E+03  0.76865126033E+03  0.00000000000E+00 0.  1.
         -2   -1    0    0    0  501 -0.00000000000E+00 -0.00000000000E+00 -0.34210914155E+02  0.34210914155E+02  0.00000000000E+00 0. -1.
         25    2    1    2    0    0  0.51150985762E+02 -0.78863916679E+02  0.20665454972E+03  0.25920852136E+03  0.12508802473E+03 0.  0.
          5    1    3    3  502    0  0.21939445266E+02 -0.82416706774E+01  0.17462054658E+03  0.17623584221E+03  0.41800000000E+01 0. -1.
         -5    1    3    3    0  502  0.29211540496E+02 -0.70622246001E+02  0.32034003142E+02  0.82972679152E+02  0.41800000000E+01 0. -1.
        -11    1    1    2    0    0 -0.34366897256E+02  0.79871632066E+02  0.51561885608E+03  0.52289900171E+03  0.00000000000E+00 0.  1.
         11    1    1    2    0    0 -0.16784088506E+02 -0.10077153877E+01  0.12166940374E+02  0.20754651414E+02  0.00000000000E+00 0. -1.
</event>
<event>
 7    1  0.2690635E-009  0.1149059E+03  0.7561462E-02  0.1251745E+00
         -2   -1    0    0    0  501 -0.00000000000E+00  0.00000000000E+00  0.28505366154E+03  0.28505366154E+03  0.00000000000E+00 0.  1.
          2   -1    0    0  501    0  0.00000000000E+00 -0.00000000000E+00 -0.81621327473E+02  0.81621327473E+02  0.00000000000E+00 0. -1.
         25    2    1    2    0    0 -0.40253297057E+02  0.86462208588E+02  0.16584367925E+03  0.22857694893E+03  0.12508898512E+03 0.  0.
          5    1    3    3  502    0 -0.49564915554E+02  0.71056613948E+02  0.30447173035E+02  0.91925110745E+02  0.41800000000E+01 0. -1.
         -5    1    3    3    0  502  0.93116184973E+01  0.15405594640E+02  0.13539650621E+03  0.13665183819E+03  0.41800000000E+01 0. -1.
        -11    1    1    2    0    0  0.55757936044E+02 -0.24818991352E+02 -0.55417005526E+01  0.61283278377E+02  0.00000000000E+00 0. -1.
         11    1    1    2    0    0 -0.15504638987E+02 -0.61643217236E+02  0.43130355374E+02  0.76814761706E+02  0.00000000000E+00 0.  1.
</event>
<event>
 7    1  0.2936552E-009  0.1432550E+03  0.7561462E-02  0.1209015E+00
          2   -1    0    0  501    0  0.00000000000E+00  0.00000000000E+00  0.66207573577E+03  0.66207573577E+03  0.00000000000E+00 0. -1.
         -2   -1    0    0    0  501 -0.00000000000E+00 -0.00000000000E+00 -0.45423545074E+02  0.45423545074E+02  0.00000000000E+00 0.  1.
         25    2    1    2    0    0 -0.46939861229E+01  0.13022869849E+03  0.25727422016E+03  0.31435496428E+03  0.12508985489E+03 0.  0.
          5    1    3    3  502    0 -0.42262736254E+02  0.61249832315E+02  0.42880714150E+02  0.85987841468E+02  0.41800000000E+01 0.  1.
         -5    1    3    3    0  502  0.37568750131E+02  0.68978866173E+02  0.21439350601E+03  0.22836712282E+03  0.41800000000E+01 0.  1.
        -11    1    1    2    0    0  0.16170792495E+02 -0.59152220120E+02  0.62110108577E+02  0.87281987045E+02  0.00000000000E+00 0.  1.
         11    1    1    2    0    0 -0.11476806372E+02 -0.71076478368E+02  0.29726786196E+03  0.30586232951E+03  0.00000000000E+00 0. -1.
</event>
<event>
 7    1  0.2690635E-009  0.1002368E+03  0.7561462E-02  0.1279799E+00
         -1   -1    0    0    0  501 -0.00000000000E+00  0.00000000000E+00  0.42073359494E+02  0.42073359494E+02  0.00000000000E+00 0.  1.
          1   -1    0    0  501    0  0.00000000000E+00 -0.00000000000E+00 -0.39907700620E+03  0.39907700620E+03  0.00000000000E+00 0. -1.
         25    2    1    2    0    0 -0.16335990079E+02  0.53745369985E+02 -0.25920982836E+03  0.29324835267E+03  0.12509768926E+03 0.  0.
          5    1    3    3  502    0 -0.12706369588E+02  0.93144952480E+02 -0.20883337965E+03  0.22905520483E+03  0.41800000000E+01 0. -1.
         -5    1    3    3    0  502 -0.36296204905E+01 -0.39399582494E+02 -0.50376448703E+02  0.64193147840E+02  0.41800000000E+01 0. -1.
        -11    1    1    2    0    0  0.27672855747E+02 -0.41685146139E+02 -0.11414863550E+03  0.12463285819E+03  0.00000000000E+00 0. -1.
         11    1    1    2    0    0 -0.11336865669E+02 -0.12060223846E+02  0.16354817157E+02  0.23269154833E+02  0.00000000000E+00 0.  1.
</event>
<event>
 7    1  0.2690635E-009  0.1149023E+03  0.7561462E-02  0.1251752E+00
          2   -1    0    0  501    0  0.00000000000E+00  0.00000000000E+00  0.74243146637E+03  0.74243146637E+03  0.00000000000E+00 0.  1.
         -2   -1    0    0    0  501 -0.00000000000E+00 -0.00000000000E+00 -0.20450956679E+02  0.20450956679E+02  0.00000000000E+00 0. -1.
         25    2    1    2    0    0  0.44055217553E+02  0.14425687917E+02  0.37904694055E+03  0.40183721596E+03  0.12509037664E+03 0.  0.
          5    1    3    3  502    0  0.82131102119E+02 -0.75230397723E+01  0.30149310008E+03  0.31259826592E+03  0.41800000000E+01 0.  1.
         -5    1    3    3    0  502 -0.38075884566E+02  0.21948727689E+02  0.77553840472E+02  0.89238950042E+02  0.41800000000E+01 0.  1.
        -11    1    1    2    0    0 -0.24767357449E+02  0.39042518480E+02  0.83386675271E+02  0.95347143938E+02  0.00000000000E+00 0. -1.
         11    1    1    2    0    0 -0.19287860104E+02 -0.53468206397E+02  0.25954689387E+03  0.26569806314E+03  0.00000000000E+00 0.  1.
</event>
<event>
 7    1  0.2690635E-009  0.1128186E+03  0.7561462E-02  0.1255437E+00
          3   -1    0    0  501    0  0.00000000000E+00  0.00000000000E+00  0.46579679320E+02  0.46579679320E+02  0.00000000000E+00 0. -1.
         -3   -1    0    0    0  501 -0.00000000000E+00 -0.00000000000E+00 -0.33299624411E+03  0.33299624411E+03  0.00000000000E+00 0.  1.
         25    2    1    2    0    0  0.24189596174E+02 -0.54977408155E+02 -0.16854448207E+03  0.21830924520E+03  0.12507610536E+03 0.  0.
          5    1    3    3  502    0 -0.14435912884E+02  0.24828204238E+02 -0.10554887757E+03  0.10946631109E+03  0.41800000000E+01 0.  1.
         -5    1    3    3    0  502  0.38625509058E+02 -0.79805612394E+02 -0.62995604505E+02  0.10884293411E+03  0.41800000000E+01 0.  1.
        -11    1    1    2    0    0 -0.57258095963E+02  0.46383010148E+02 -0.94662980715E+02  0.11996229867E+03  0.00000000000E+00 0.  1.
         11    1    1    2    0    0  0.33068499789E+02  0.85943980067E+01 -0.23209101999E+02  0.41304379562E+02  0.00000000000E+00 0. -1.
</event>
<event>
 7    1  0.2690635E-009  0.8846175E+02  0.7561462E-02  0.1306620E+00
          1   -1    0    0  501    0  0.00000000000E+00  0.00000000000E+00  0.23577462894E+03  0.23577462894E+03  0.00000000000E+00 0. -1.
         -1   -1    0    0    0  501 -0.00000000000E+00 -0.00000000000E+00 -0.87818638482E+02  0.87818638482E+02  0.00000000000E+00 0.  1.
         25    2    1    2    0    0 -0.41907624992E+02  0.26663557664E+02  0.16522184999E+03  0.21310560066E+03  0.12509413647E+03 0.  0.
          5    1    3    3  502    0 -0.67122672942E+02  0.56533763018E+02  0.14331320413E+03  0.16810016794E+03  0.41800000000E+01 0.  1.
         -5    1    3    3    0  502  0.25215047949E+02 -0.29870205353E+02  0.21908645858E+02  0.45005432720E+02  0.41800000000E+01 0.  1.
        -11    1    1    2    0    0  0.21468052193E+02 -0.11966911707E+02  0.40556478944E+02  0.47422697362E+02  0.00000000000E+00 0. -1.
         11    1    1    2    0    0  0.20439572799E+02 -0.14696645957E+02 -0.57822338475E+02  0.63064969399E+02  0.00000000000E+00 0.  1.
</event>
<event>
 7    1  0.2690635E-009  0.9569475E+02  0.7561462E-02  0.1289619E+00
         -1   -1    0    0    0  501 -0.00000000000E+00  0.00000000000E+00  0.44722591872E+02  0.44722591872E+02  0.00000000000E+00 0.  1.
          1   -1    0    0  501    0  0.00000000000E+00 -0.00000000000E+00 -0.66930905349E+03  0.66930905349E+03  0.00000000000E+00 0. -1.
         25    2    1    2    0    0  0.48264797290E+02 -0.55239838927E+02 -0.55857616000E+03  0.57709265860E+03  0.12509068561E+03 0.  0.
          5    1    3    3  502    0 -0.19416882891E+00 -0.15705280054E+02 -0.45993298193E+03  0.46022007104E+03  0.41800000000E+01 0.  1.
         -5    1    3    3    0  502  0.48458966119E+02 -0.39534558873E+02 -0.98643178072E+02  0.11687258756E+03  0.41800000000E+01 0.  1.
        -11    1    1    2    0    0 -0.46267544663E+02 -0.98763906071E+01 -0.52003147344E+02  0.70303315101E+02  0.00000000000E+00 0.  1.
         11    1    1    2    0    0 -0.19972526273E+01  0.65116229534E+02 -0.14007154273E+02  0.66635671660E+02  0.00000000000E+00 0. -1.
</event>
<event>
 7    1  0.2690635E-009  0.1351087E+03  0.7561462E-02  0.1220066E+00
         -1   -1    0    0    0  501 -0.00000000000E+00  0.00000000000E+00  0.17344126033E+02  0.17344126033E+02  0.00000000000E+00 0.  1.
          1   -1    0    0  501    0  0.00000000000E+00 -0.00000000000E+00 -0.14646904466E+04  0.14646904466E+04  0.00000000000E+00 0. -1.
         25    2    1    2    0    0  0.92685696702E+02  0.70451996392E+02 -0.86154501900E+03  0.87832880495E+03  0.12509015818E+03 0.  0.
          5    1    3    3  502    0  0.20102485155E+02  0.57191207581E+02 -0.13512666309E+03  0.14816083022E+03  0.41800000000E+01 0. -1.
         -5    1    3    3    0  502  0.72583211547E+02  0.13260788811E+02 -0.72641835591E+03  0.73016797473E+03  0.41800000000E+01 0. -1.
        -11    1    1    2    0    0 -0.71978637356E+02 -0.11278075328E+02 -0.42342131053E+03  0.42964371918E+03  0.00000000000E+00 0. -1.
         11    1    1    2    0    0 -0.20707059346E+02 -0.59173921064E+02 -0.16237999108E+03  0.17406204855E+03  0.00000000000E+00 0.  1.
</event>
<event>
 7    1  0.2690635E-009  0.1152170E+03  0.7561462E-02  0.1251203E+00
          2   -1    0    0  501    0  0.00000000000E+00  0.00000000000E+00  0.91557850019E+02  0.91557850019E+02  0.00000000000E+00 0. -1.
         -2   -1    0    0    0  501 -0.00000000000E+00 -0.00000000000E+00 -0.21713075792E+03  0.21713075792E+03  0.00000000000E+00 0.  1.
         25    2    1    2    0    0 -0.31795486952E+02  0.87104201938E+02 -0.98853387717E+02  0.18444051851E+03  0.12509283600E+03 0.  0.
          5    1    3    3  502    0 -0.52917859232E+02  0.67382116171E+01  0.21868960776E+01  0.53553321428E+02  0.41800000000E+01 0. -1.
         -5    1    3    3    0  502  0.21122372280E+02  0.80365990321E+02 -0.10104028379E+03  0.13088719708E+03  0.41800000000E+01 0. -1.
        -11    1    1    2    0    0  0.80039856462E+00 -0.17653721499E+02  0.26194667385E+02  0.31598340463E+02  0.00000000000E+00 0. -1.
         11    1    1    2    0    0  0.30995088387E+02 -0.69450480439E+02 -0.52914187572E+02  0.92649748968E+02  0.00000000000E+00 0.  1.
</event>
<event>
 7    1  0.2690635E-009  0.1032707E+03  0.7561462E-02  0.1273565E+00
         -2   -1    0    0    0  501 -0.00000000000E+00  0.00000000000E+00  0.13198986499E+02  0.13198986499E+02  0.00000000000E+00 0.  1.
          2   -1    0    0  501    0  0.00000000000E+00 -0.00000000000E+00 -0.12574738228E+04  0.12574738228E+04  0.00000000000E+00 0. -1.
         25    2    1    2    0    0 -0.57061622069E+02  0.40277093491E+02 -0.74334241106E+03  0.75702241868E+03  0.12508688712E+03 0.  0.
          5    1    3    3  502    0 -0.17583341881E+02 -0.17756520286E+02 -0.56132005023E+03  0.56189157238E+03  0.41800000000E+01 0. -1.
         -5    1    3    3    0  502 -0.39478280189E+02  0.58033613776E+02 -0.18202236083E+03  0.19513084630E+03  0.41800000000E+01 0. -1.
        -11    1    1    2    0    0  0.99786167619E+01 -0.59283460092E+02 -0.32606432436E+03  0.33156001727E+03  0.00000000000E+00 0.  1.
         11    1    1    2    0    0  0.47083005308E+02  0.19006366602E+02 -0.17486810087E+03  0.18209037334E+03  0.00000000000E+00 0. -1.
</event>
<event>
 7    1  0.2690635E-009  0.1187678E+03  0.7561462E-02  0.1245144E+00
         -2   -1    0    0    0  501 -0.00000000000E+00  0.00000000000E+00  0.41820998398E+02  0.41820998398E+02  0.00000000000E+00 0. -1.
          2   -1    0    0  501    0  0.00000000000E+00 -0.00000000000E+00 -0.68235955343E+03  0.68235955343E+03  0.00000000000E+00 0.  1.
         25    2    1    2    0    0 -0.43759399079E+02  0.85201103769E+02 -0.15099736661E+03  0.21822342725E+03  0.12508855418E+03 0.  0.
          5    1    3    3  502    0 -0.99490948201E+01 -0.15370267898E+02  0.13007313932E+02  0.22844960905E+02  0.41800000000E+01 0. -1.
         -5    1    3    3    0  502 -0.33810304258E+02  0.10057137167E+03 -0.16400468054E+03  0.19537846635E+03  0.41800000000E+01 0. -1.
        -11    1    1    2    0    0  0.33955618045E+02 -0.81787932092E+01 -0.59754069749E+02  0.69212899858E+02  0.00000000000E+00 0. -1.
         11    1    1    2    0    0  0.98037810333E+01 -0.77022310560E+02 -0.42978711867E+03  0.43674422471E+03  0.00000000000E+00 0.  1.
</event>
<event>
 7    1  0.2690635E-009  0.1004633E+03  0.7561462E-02  0.1279325E+00
         -2   -1    0    0    0  501 -0.00000000000E+00  0.00000000000E+00  0.74672965017E+02  0.74672965017E+02  0.00000000000E+00 0.  1.
          2   -1    0    0  501    0  0.00000000000E+00 -0.00000000000E+00 -0.19742070992E+03  0.19742070992E+03  0.00000000000E+00 0. -1.
         25    2    1    2    0    0  0.14333707154E+02  0.51620616983E+02 -0.97423972947E+02  0.16735555716E+03  0.12508520595E+03 0.  0.
          5    1    3    3  502    0 -0.18038001889E+02 -0.36034574752E+02 -0.43264736050E+02  0.59271999082E+02  0.41800000000E+01 0.  1.
         -5    1    3    3    0  502  0.32371709044E+02  0.87655191735E+02 -0.54159236897E+02  0.10808355807E+03  0.41800000000E+01 0.  1.
        -11    1    1    2    0    0  0.27856085365E+01 -0.49556561638E+02 -0.52693595772E+02  0.72389415329E+02  0.00000000000E+00 0. -1.
         11    1    1    2    0    0 -0.17119315691E+02 -0.20640553445E+01  0.27369823819E+02  0.32348702448E+02  0.00000000000E+00 0.  1.
</event>
<event>
 7    1  0.2690635E-009  0.1556131E+03  0.7561462E-02  0.1193740E+00
         -1   -1    0    0    0  501 -0.00000000000E+00  0.00000000000E+00  0.27635552795E+02  0.27635552795E+02  0.00000000000E+00 0.  1.
          1   -1    0    0  501    0  0.00000000000E+00 -0.00000000000E+00 -0.12003048377E+04  0.12003048377E+04  0.00000000000E+00 0. -1.
         25    2    1    2    0    0  0.79043156677E+02 -0.11073128645E+03 -0.76460099439E+03  0.78661919204E+03  0.12508330923E+03 0.  0.
          5    1    3    3  502    0  0.22253066287E+02  0.15565664469E+02 -0.31403704907E+03  0.31523678316E+03  0.41800000000E+01 0. -1.
         -5    1    3    3    0  502  0.56790090390E+02 -0.12629695092E+03 -0.45056394533E+03  0.47138240888E+03  0.41800000000E+01 0. -1.
        -11    1    1    2    0    0 -0.25465698146E+02  0.39904403839E+01 -0.13549415626E+02  0.29120646633E+02  0.00000000000E+00 0.  1.
         11    1    1    2    0    0 -0.53577458531E+02  0.10674084606E+03 -0.39451887493E+03  0.41220055187E+03  0.00000000000E+00 0. -1.
</event>
<event>
 7    1  0.2690635E-009  0.6618514E+02  0.7561462E-02  0.1373568E+00
         -2   -1    0    0    0  501 -0.00000000000E+00  0.00000000000E+00  0.17147954954E+03  0.17147954954E+03  0.00000000000E+00 0.  1.
          2   -1    0    0  501    0  0.00000000000E+00 -0.00000000000E+00 -0.44694885631E+02  0.44694885631E+02  0.00000000000E+00 0. -1.
         25    2    1    2    0    0  0.12622144508E+02 -0.46693281184E+01  0.12109084613E+03  0.17461765667E+03  0.12508881584E+03 0.  0.
          5    1    3    3  502    0 -0.45034076525E+01  0.45025704326E+02  0.11231942481E+03  0.12116402239E+03  0.41800000000E+01 0. -1.
         -5    1    3    3    0  502  0.17125552160E+02 -0.49695032445E+02  0.87714213134E+01  0.53453634285E+02  0.41800000000E+01 0. -1.
        -11    1    1    2    0    0  0.10349126936E+02 -0.13878531854E+01  0.13026035213E+02  0.16694554746E+02  0.00000000000E+00 0.  1.
         11    1    1    2    0    0 -0.22971271444E+02  0.60571813038E+01 -0.73322174365E+01  0.24862223746E+02  0.00000000000E+00 0. -1.
</event>
<event>
 7    1  0.2690635E-009  0.1044579E+03  0.7561462E-02  0.1271191E+00
          1   -1    0    0  501    0  0.00000000000E+00  0.00000000000E+00  0.11614591315E+03  0.11614591315E+03  0.00000000000E+00 0. -1.
         -1   -1    0    0    0  501 -0.00000000000E+00 -0.00000000000E+00 -0.10517620318E+03  0.10517620318E+03  0.00000000000E+00 0.  1.
         25    2    1    2    0    0 -0.88101075531E+01  0.20239705208E+02 -0.31863590419E+01  0.12705654596E+03  0.12508376924E+03 0.  0.
          5    1    3    3  502    0 -0.64650730600E+02  0.15375700595E+02 -0.17910902842E+02  0.68952171660E+02  0.41800000000E+01 0. -1.
         -5    1    3    3    0  502  0.55840623047E+02  0.48640046133E+01  0.14724543800E+02  0.58104374304E+02  0.41800000000E+01 0. -1.
        -11    1    1    2    0    0  0.43780146475E+02 -0.25643808470E+02  0.25921520369E+02  0.56975708477E+02  0.00000000000E+00 0. -1.
         11    1    1    2    0    0 -0.34970038922E+02  0.54041032620E+01 -0.11765451361E+02  0.37289861893E+02  0.00000000000E+00 0.  1.
</event>
<event>
 7    1  0.2690635E-009  0.1144712E+03  0.7561462E-02  0.1252507E+00
         -1   -1    0    0    0  501 -0.00000000000E+00  0.00000000000E+00  0.64908636082E+02  0.64908636082E+02  0.00000000000E+00 0.  1.
          1   -1    0    0  501    0  0.00000000000E+00 -0.00000000000E+00 -0.23592555760E+03  0.23592555760E+03  0.00000000000E+00 0. -1.
         25    2    1    2    0    0 -0.28225465066E+02  0.30188816773E+02 -0.14803968723E+03  0.19816946455E+03  0.12508935265E+03 0.  0.
          5    1    3    3  502    0  0.19115560319E+02 -0.40980626367E+02 -0.61625805520E+02  0.76550824226E+02  0.41800000000E+01 0.  1.
         -5    1    3    3    0  502 -0.47341025385E+02  0.71169443139E+02 -0.86413881715E+02  0.12161864032E+03  0.41800000000E+01 0.  1.
        -11    1    1    2    0    0 -0.12997098383E+02 -0.50394064126E+02 -0.17136297975E+01  0.52071324091E+02  0.00000000000E+00 0.  1.
         11    1    1    2    0    0  0.41222563449E+02  0.20205247353E+02 -0.21263604486E+02  0.50593405041E+02  0.00000000000E+00 0. -1.
</event>
<event>
 7    1  0.2690635E-009  0.9315467E+02  0.7561462E-02  0.1295387E+00
         -2   -1    0    0    0  501 -0.00000000000E+00  0.00000000000E+00  0.17188740463E+03  0.17188740463E+03  0.00000000000E+00 0. -1.
          2   -1    0    0  501    0  0.00000000000E+00 -0.00000000000E+00 -0.10422510011E+03  0.10422510011E+03  0.00000000000E+00 0.  1.
         25    2    1    2    0    0 -0.13248746498E+02 -0.56849683869E+02  0.64115484392E+02  0.15220310844E+03  0.12509026757E+03 0.  0.
          5    1    3    3  502    0  0.29096677091E+02 -0.22592729842E+02  0.85770339961E+02  0.93440203748E+02  0.41800000000E+01 0. -1.
         -5    1    3    3    0  502 -0.42345423589E+02 -0.34256954026E+02 -0.21654855569E+02  0.58762904692E+02  0.41800000000E+01 0. -1.
        -11    1    1    2    0    0 -0.14137509927E+02 -0.13232685568E+02 -0.34523408502E+02  0.39583315789E+02  0.00000000000E+00 0.  1.
         11    1    1    2    0    0  0.27386256425E+02  0.70082369437E+02  0.38070228621E+02  0.84326080510E+02  0.00000000000E+00 0. -1.
</event>
<event>
 7    1  0.2690635E-009  0.1121436E+03  0.7561462E-02  0.1256651E+00
         -3   -1    0    0    0  501 -0.00000000000E+00  0.00000000000E+00  0.29982835492E+03  0.29982835492E+03  0.00000000000E+00 0.  1.
          3   -1    0    0  501    0  0.00000000000E+00 -0.00000000000E+00 -0.76214544145E+02  0.76214544145E+02  0.00000000000E+00 0. -1.
         25    2    1    2    0    0 -0.56544939926E+02  0.87661465617E+02  0.13363825778E+03  0.21068636626E+03  0.12509075985E+03 0.  0.
          5    1    3    3  502    0  0.83048465936E+01  0.23432593029E+02  0.11461915078E+03  0.11735876200E+03  0.41800000000E+01 0.  1.
         -5    1    3    3    0  502 -0.64849786520E+02  0.64228872588E+02  0.19019106996E+02  0.93327604258E+02  0.41800000000E+01 0.  1.
        -11    1    1    2    0    0  0.73898264611E+01 -0.34588716945E+02 -0.14545980374E+02  0.38243619338E+02  0.00000000000E+00 0. -1.
         11    1    1    2    0    0  0.49155113465E+02 -0.53072748672E+02  0.10452153337E+03  0.12711291347E+03  0.00000000000E+00 0.  1.
</event>
<event>
 7    1  0.2690635E-009  0.9878830E+02  0.7561462E-02  0.1282865E+00
         -1   -1    0    0    0  501 -0.00000000000E+00  0.00000000000E+00  0.68916544348E+03  0.68916544348E+03  0.00000000000E+00 0.  1.
          1   -1    0    0  501    0  0.00000000000E+00 -0.00000000000E+00 -0.18340442788E+02  0.18340442788E+02  0.00000000000E+00 0. -1.
         25    2    1    2    0    0  0.38128379576E+01  0.37770559907E+01  0.50244422461E+03  0.51780900799E+03  0.12508863268E+03 0.  0.
          5    1    3    3  502    0  0.29526724775E+02  0.49804753286E+02  0.14048340706E+03  0.15200460843E+03  0.41800000000E+01 0.  1.
         -5    1    3    3    0  502 -0.25713886818E+02 -0.46027697296E+02  0.36196081755E+03  0.36580439955E+03  0.41800000000E+01 0.  1.
        -11    1    1    2    0    0  0.10248558911E+02  0.39669685762E+02  0.91909199926E+02  0.10062811714E+03  0.00000000000E+00 0.  1.
         11    1    1    2    0    0 -0.14061396869E+02 -0.43446741753E+02  0.76471576158E+02  0.89068761140E+02  0.00000000000E+00 0. -1.
</event>
<event>
 7    1  0.2690635E-009  0.1207012E+03  0.7561462E-02  0.1241945E+00
         -1   -1    0    0    0  501 -0.00000000000E+00  0.00000000000E+00  0.93910513421E+02  0.93910513421E+02  0.00000000000E+00 0.  1.
          1   -1    0    0  501    0  0.00000000000E+00 -0.00000000000E+00 -0.20708393524E+03  0.20708393524E+03  0.00000000000E+00 0. -1.
         25    2    1    2    0    0  0.51875748528E+02  0.19612634190E+02 -0.13632751754E+03  0.19315198522E+03  0.12508696435E+03 0.  0.
          5    1    3    3  502    0 -0.31651095706E+02 -0.25675115167E+02 -0.50646797152E+02  0.65142719164E+02  0.41800000000E+01 0.  1.
         -5    1    3    3    0  502  0.83526844235E+02  0.45287749358E+02 -0.85680720390E+02  0.12800926606E+03  0.41800000000E+01 0.  1.
        -11    1    1    2    0    0 -0.73493889940E+02  0.36318744352E+01  0.16036889486E+02  0.75310850445E+02  0.00000000000E+00 0.  1.
         11    1    1    2    0    0  0.21618141411E+02 -0.23244508626E+02  0.71172062385E+01  0.32531612994E+02  0.00000000000E+00 0. -1.
</event>
<event>
 7    1  0.2690635E-009  0.1229643E+03  0.7561462E-02  0.1238285E+00
         -3   -1    0    0    0  501 -0.00000000000E+00  0.00000000000E+00  0.31379357851E+03  0.31379357851E+03  0.00000000000E+00 0.  1.
          3   -1    0    0  501    0  0.00000000000E+00 -0.00000000000E+00 -0.50794241156E+02  0.50794241156E+02  0.00000000000E+00 0. -1.
         25    2    1    2    0    0 -0.21478453656E+02  0.60103043289E+02  0.13187796684E+03  0.19265017078E+03  0.12509432593E+03 0.  0.
          5    1    3    3  502    0  0.51123701113E+02  0.12573152230E+02  0.40409448523E+02  0.66498969183E+02  0.41800000000E+01 0.  1.
         -5    1    3    3    0  502 -0.72602154769E+02  0.47529891059E+02  0.91468518321E+02  0.12615120160E+03  0.41800000000E+01 0.  1.
        -11    1    1    2    0    0 -0.25270200802E+02 -0.53313976779E+02  0.97478543193E+02  0.11394309787E+03  0.00000000000E+00 0.  1.
         11    1    1    2    0    0  0.46748654458E+02 -0.67890665098E+01  0.33642827316E+02  0.57994551015E+02  0.00000000000E+00 0. -1.
</event>
<event>
 7    1  0.2690635E-009  0.1038207E+03  0.7561462E-02  0.1272461E+00
          2   -1    0    0  501    0  0.00000000000E+00  0.00000000000E+00  0.17187553786E+03  0.17187553786E+03  0.00000000000E+00 0. -1.
         -2   -1    0    0    0  501 -0.00000000000E+00 -0.00000000000E+00 -0.83974776770E+02  0.83974776770E+02  0.00000000000E+00 0.  1.
         25    2    1    2    0    0 -0.47617955708E+02  0.60689053229E+01  0.69056290730E+02  0.15072875369E+03  0.12508430989E+03 0.  0.
          5    1    3    3  502    0 -0.37651779014E+02 -0.41445405677E+02 -0.10800187474E+02  0.57179494262E+02  0.41800000000E+01 0. -1.
         -5    1    3    3    0  502 -0.99661766944E+01  0.47514311000E+02  0.79856478204E+02  0.93549259424E+02  0.41800000000E+01 0. -1.
        -11    1    1    2    0    0 -0.13878057157E+01 -0.41983286525E+02  0.19140473033E+01  0.42049802963E+02  0.00000000000E+00 0.  1.
         11    1    1    2    0    0  0.49005761424E+02  0.35914381202E+02  0.16930423057E+02  0.63071757981E+02  0.00000000000E+00 0. -1.
</event>
<event>
 7    1  0.2690635E-009  0.1164410E+03  0.7561462E-02  0.1249087E+00
          4   -1    0    0  501    0  0.00000000000E+00  0.00000000000E+00  0.45109726875E+03  0.45109726875E+03  0.00000000000E+00 0. -1.
         -4   -1    0    0    0  501 -0.00000000000E+00 -0.00000000000E+00 -0.35800981265E+02  0.35800981265E+02  0.00000000000E+00 0.  1.
         25    2    1    2    0    0  0.29843468598E+02 -0.44076488220E+02  0.15609975808E+03  0.20699709238E+03  0.12508913762E+03 0.  0.
          5    1    3    3  502    0 -0.22520884519E+02  0.30643336777E+02  0.20221487896E+02  0.43273378665E+02  0.41800000000E+01 0. -1.
         -5    1    3    3    0  502  0.52364353117E+02 -0.74719824997E+02  0.13587827018E+03  0.16372371371E+03  0.41800000000E+01 0. -1.
        -11    1    1    2    0    0  0.25644388137E+02  0.40174344105E+02  0.14939921069E+03  0.15681752684E+03  0.00000000000E+00 0.  1.
         11    1    1    2    0    0 -0.55487856735E+02  0.39021441144E+01  0.10979731872E+03  0.12308363080E+03  0.00000000000E+00 0. -1.
</event>
<event>
 7    1  0.2690635E-009  0.1348900E+03  0.7561462E-02  0.1220375E+00
         -1   -1    0    0    0  501 -0.00000000000E+00  0.00000000000E+00  0.81316967900E+03  0.81316967900E+03  0.00000000000E+00 0.  1.
          1   -1    0    0  501    0  0.00000000000E+00 -0.00000000000E+00 -0.26260536942E+02  0.26260536942E+02  0.00000000000E+00 0. -1.
         25    2    1    2    0    0  0.49539906339E+02 -0.77246465680E+02  0.32989992003E+03  0.36456008155E+03  0.12509547172E+03 0.  0.
          5    1    3    3  502    0  0.72297805127E+02 -0.14397464016E+02  0.24802768940E+03  0.25878459518E+03  0.41800000000E+01 0.  1.
         -5    1    3    3    0  502 -0.22757898788E+02 -0.62849001664E+02  0.81872230628E+02  0.10577548636E+03  0.41800000000E+01 0.  1.
        -11    1    1    2    0    0 -0.36489930560E+02  0.97934099048E+02  0.36552572241E+03  0.38017319281E+03  0.00000000000E+00 0.  1.
         11    1    1    2    0    0 -0.13049975779E+02 -0.20687633368E+02  0.91483499618E+02  0.94696941580E+02  0.00000000000E+00 0. -1.
</event>
<event>
 7    1  0.2690635E-009  0.1020980E+03  0.7561462E-02  0.1275945E+00
          2   -1    0    0  501    0  0.00000000000E+00  0.00000000000E+00  0.11653676942E+03  0.11653676942E+03  0.00000000000E+00 0. -1.
         -2   -1    0    0    0  501 -0.00000000000E+00 -0.00000000000E+00 -0.10391712886E+03  0.10391712886E+03  0.00000000000E+00 0.  1.
         25    2    1    2    0    0 -0.10338727692E+02 -0.46696223908E+01 -0.78266828059E+01  0.12584103410E+03  0.12508402870E+03 0.  0.
          5    1    3    3  502    0 -0.56440493833E+02 -0.24906076216E+02  0.23779842135E+02  0.66247983128E+02  0.41800000000E+01 0. -1.
         -5    1    3    3    0  502  0.46101766141E+02  0.20236453825E+02 -0.31606524940E+02  0.59593050967E+02  0.41800000000E+01 0. -1.
        -11    1    1    2    0    0 -0.40527284305E+02  0.59395608495E+01  0.40765397599E+01  0.41162571987E+02  0.00000000000E+00 0. -1.
         11    1    1    2    0    0  0.50866011997E+02 -0.12699384587E+01  0.16369783603E+02  0.53450292192E+02  0.00000000000E+00 0.  1.
</event>
<event>
 7    1  0.2690635E-009  0.1806151E+03  0.7561462E-02  0.1167209E+00
          2   -1    0    0  501    0  0.00000000000E+00  0.00000000000E+00  0.20059921072E+03  0.20059921072E+03  0.00000000000E+00 0. -1.
         -2   -1    0    0    0  501 -0.00000000000E+00 -0.00000000000E+00 -0.19538006357E+03  0.19538006357E+03  0.00000000000E+00 0.  1.
         25    2    1    2    0    0 -0.13362807051E+03  0.98776380288E+02 -0.26070617719E+02  0.20961828464E+03  0.12508762375E+03 0.  0.
          5    1    3    3  502    0 -0.61988756791E+02  0.79234271882E+01  0.41908890622E+02  0.75360561171E+02  0.41800000000E+01 0.  1.
         -5    1    3    3    0  502 -0.71639313723E+02  0.90852953099E+02 -0.67979508341E+02  0.13425772347E+03  0.41800000000E+01 0.  1.
        -11    1    1    2    0    0 -0.21888197768E+01 -0.30920449211E+02 -0.15076903401E+01  0.31034468605E+02  0.00000000000E+00 0.  1.
         11    1    1    2    0    0  0.13581689029E+03 -0.67855931077E+02  0.32797455206E+02  0.15532652104E+03  0.00000000000E+00 0. -1.
</event>
<event>
 7    1  0.2690635E-009  0.1809045E+03  0.7561462E-02  0.1166931E+00
          2   -1    0    0  501    0  0.00000000000E+00  0.00000000000E+00  0.21035746840E+03  0.21035746840E+03  0.00000000000E+00 0.  1.
         -2   -1    0    0    0  501 -0.00000000000E+00 -0.00000000000E+00 -0.23056428013E+03  0.23056428013E+03  0.00000000000E+00 0. -1.
         25    2    1    2    0    0  0.59902111220E+02 -0.14065912858E+03 -0.12538251123E+03  0.23397614013E+03  0.12510318401E+03 0.  0.
          5    1    3    3  502    0 -0.39145579147E+02 -0.35755726696E+02 -0.35513752955E+02  0.63949569250E+02  0.41800000000E+01 0.  1.
         -5    1    3    3    0  502  0.99047690366E+02 -0.10490340188E+03 -0.89868758272E+02  0.17002657088E+03  0.41800000000E+01 0.  1.
        -11    1    1    2    0    0 -0.70020913058E+01  0.92465898887E+02  0.18520949658E+02  0.94562134683E+02  0.00000000000E+00 0. -1.
         11    1    1    2    0    0 -0.52900019914E+02  0.48193229689E+02  0.86654749840E+02  0.11238347372E+03  0.00000000000E+00 0.  1.
</event>
<event>
 7    1  0.2690635E-009  0.1143570E+03  0.7561462E-02  0.1252708E+00
          2   -1    0    0  501    0  0.00000000000E+00  0.00000000000E+00  0.42241460225E+03  0.42241460225E+03  0.00000000000E+00 0. -1.
         -2   -1    0    0    0  501 -0.00000000000E+00 -0.00000000000E+00 -0.38005733454E+02  0.38005733454E+02  0.00000000000E+00 0.  1.
         25    2    1    2    0    0  0.22066745291E+01  0.63978307619E+02  0.23179132660E+03  0.27105702725E+03  0.12508636885E+03 0.  0.
          5    1    3    3  502    0 -0.52800711301E+02  0.12014477467E+02  0.15010812692E+03  0.15963140339E+03  0.41800000000E+01 0.  1.
         -5    1    3    3    0  502  0.55007385830E+02  0.51963830152E+02  0.81683199687E+02  0.11142562385E+03  0.41800000000E+01 0.  1.
        -11    1    1    2    0    0  0.53168916814E+01  0.16731874692E+02  0.75379560295E+02  0.77397048252E+02  0.00000000000E+00 0. -1.
         11    1    1    2    0    0 -0.75235662105E+01 -0.80710182311E+02  0.77237981898E+02  0.11196626021E+03  0.00000000000E+00 0.  1.
</event>
<event>
 7    1  0.2690635E-009  0.1200537E+03  0.7561462E-02  0.1243008E+00
         -2   -1    0    0    0  501 -0.00000000000E+00  0.00000000000E+00  0.21070310336E+03  0.21070310336E+03  0.00000000000E+00 0. -1.
          2   -1    0    0  501    0  0.00000000000E+00 -0.00000000000E+00 -0.77850058808E+02  0.77850058808E+02  0.00000000000E+00 0.  1.
         25    2    1    2    0    0 -0.37671612599E+02  0.54018940731E+02  0.90632071170E+02  0.16792674129E+03  0.12509205315E+03 0.  0.
          5    1    3    3  502    0 -0.70692526404E+02  0.39922765409E+00  0.74498741825E+02  0.10278680657E+03  0.41800000000E+01 0.  1.
         -5    1    3    3    0  502  0.33020913804E+02  0.53619713077E+02  0.16133329345E+02  0.65139934715E+02  0.41800000000E+01 0.  1.
        -11    1    1    2    0    0 -0.20695131628E+02  0.68978597331E+01 -0.70521306171E+01  0.22926000267E+02  0.00000000000E+00 0.  1.
         11    1    1    2    0    0  0.58366744227E+02 -0.60916800464E+02  0.49273104002E+02  0.97700420616E+02  0.00000000000E+00 0. -1.
</event>
<event>
 7    1  0.2690635E-009  0.1975043E+03  0.7561462E-02  0.1151862E+00
          1   -1    0    0  501    0  0.00000000000E+00  0.00000000000E+00  0.71595375332E+02  0.71595375332E+02  0.00000000000E+00 0. -1.
         -1   -1    0    0    0  501 -0.00000000000E+00 -0.00000000000E+00 -0.55189403746E+03  0.55189403746E+03  0.00000000000E+00 0.  1.
         25    2    1    2    0    0 -0.16647551702E+03 -0.14092491530E+02 -0.25915395022E+03  0.33274774573E+03  0.12509035251E+03 0.  0.
          5    1    3    3  502    0 -0.17625656110E+03  0.15675476529E+02 -0.21613917548E+03  0.27936662555E+03  0.41800000000E+01 0.  1.
         -5    1    3    3    0  502  0.97810440833E+01 -0.29767968059E+02 -0.43014774738E+02  0.53381120178E+02  0.41800000000E+01 0.  1.
        -11    1    1    2    0    0  0.11008411168E+03  0.48545159113E+02 -0.12003214306E+03  0.16994957924E+03  0.00000000000E+00 0.  1.
         11    1    1    2    0    0  0.56391405336E+02 -0.34452667583E+02 -0.10111256886E+03  0.12079208782E+03  0.00000000000E+00 0. -1.
</event>
<event>
 7    1  0.2690635E-009  0.1185575E+03  0.7561462E-02  0.1245496E+00
          2   -1    0    0  501    0  0.00000000000E+00  0.00000000000E+00  0.44187802186E+03  0.44187802186E+03  0.00000000000E+00 0. -1.
         -2   -1    0    0    0  501 -0.00000000000E+00 -0.00000000000E+00 -0.52028181126E+02  0.52028181126E+02  0.00000000000E+00 0.  1.
         25    2    1    2    0    0  0.14593124664E+02  0.10307589240E+03  0.17232537461E+03  0.23702448940E+03  0.12508786895E+03 0.  0.
          5    1    3    3  502    0  0.18893976142E+02  0.11617822550E+02  0.13692226884E+03  0.13877008409E+03  0.41800000000E+01 0.  1.
         -5    1    3    3    0  502 -0.43008514777E+01  0.91458069851E+02  0.35403105776E+02  0.98254405311E+02  0.41800000000E+01 0.  1.
        -11    1    1    2    0    0 -0.35134042529E+02 -0.27627737599E+02  0.30337837994E+02  0.54019230311E+02  0.00000000000E+00 0.  1.
         11    1    1    2    0    0  0.20540917865E+02 -0.75448154802E+02  0.18718662812E+03  0.20286248327E+03  0.00000000000E+00 0. -1.
</event>
<event>
 7    1  0.2690635E-009  0.1056596E+03  0.7561462E-02  0.1268826E+00
          2   -1    0    0  501    0  0.00000000000E+00  0.00000000000E+00  0.66342898395E+03  0.66342898395E+03  0.00000000000E+00 0. -1.
         -2   -1    0    0    0  501 -0.00000000000E+00 -0.00000000000E+00 -0.22123918426E+02  0.22123918426E+02  0.00000000000E+00 0.  1.
         25    2    1    2    0    0 -0.98900822964E+01 -0.51445959933E+02  0.37958399533E+03  0.40308565949E+03  0.12509811690E+03 0.  0.
          5    1    3    3  502    0 -0.55033674086E+02 -0.49406755194E+02  0.31842675374E+03  0.32692935420E+03  0.41800000000E+01 0.  1.
         -5    1    3    3    0  502  0.45143591789E+02 -0.20392047388E+01  0.61157241594E+02  0.76156305287E+02  0.41800000000E+01 0.  1.
        -11    1    1    2    0    0 -0.33031318150E+02  0.19521485998E+02  0.44502306759E+02  0.58758928693E+02  0.00000000000E+00 0.  1.
         11    1    1    2    0    0  0.42921400446E+02  0.31924473935E+02  0.21721876343E+03  0.22370831419E+03  0.00000000000E+00 0. -1.
</event>
<event>
 7    1  0.3322580E-009  0.8776582E+02  0.7561462E-02  0.1308354E+00
         -1   -1    0    0    0  501 -0.00000000000E+00  0.00000000000E+00  0.56270259270E+02  0.56270259270E+02  0.00000000000E+00 0.  1.
          1   -1    0    0  501    0  0.00000000000E+00 -0.00000000000E+00 -0.32492330239E+03  0.32492330239E+03  0.00000000000E+00 0. -1.
         25    2    1    2    0    0  0.30130379753E+02 -0.58881779779E+02 -0.83083423236E+02  0.16409463821E+03  0.12509712746E+03 0.  0.
          5    1    3    3  502    0  0.38299277445E+02  0.79382019020E+01 -0.88078130617E+02  0.96462838415E+02  0.41800000000E+01 0. -1.
         -5    1    3    3    0  502 -0.81688976915E+01 -0.66819981681E+02  0.49947073809E+01  0.67631799792E+02  0.41800000000E+01 0. -1.
        -11    1    1    2    0    0 -0.41002332152E+01  0.28270081999E+02 -0.14037489360E+01  0.28600348944E+02  0.00000000000E+00 0.  1.
         11    1    1    2    0    0 -0.26030146538E+02  0.30611697779E+02 -0.18416587095E+03  0.18849857451E+03  0.00000000000E+00 0. -1.
</event>
<event>
 7    1  0.2690635E-009  0.1942639E+03  0.7561462E-02  0.1154671E+00
         -2   -1    0    0    0  501 -0.00000000000E+00  0.00000000000E+00  0.67569736753E+03  0.67569736753E+03  0.00000000000E+00 0. -1.
          2   -1    0    0  501    0  0.00000000000E+00 -0.00000000000E+00 -0.57076456505E+02  0.57076456505E+02  0.00000000000E+00 0.  1.
         25    2    1    2    0    0  0.38099938302E+02  0.15871387161E+03  0.33249394976E+03  0.39095433307E+03  0.12510541786E+03 0.  0.
          5    1    3    3  502    0  0.55601976580E+02  0.11008756677E+02  0.94374498089E+02  0.11016710404E+03  0.41800000000E+01 0.  1.
         -5    1    3    3    0  502 -0.17502038277E+02  0.14770511493E+03  0.23811945168E+03  0.28078722903E+03  0.41800000000E+01 0.  1.
        -11    1    1    2    0    0 -0.64493533189E+02 -0.11223405890E+03  0.16735212083E+03  0.21157181321E+03  0.00000000000E+00 0.  1.
         11    1    1    2    0    0  0.26393594886E+02 -0.46479812708E+02  0.11877484043E+03  0.13024767775E+03  0.00000000000E+00 0. -1.
</event>
<event>
 7    1  0.2690635E-009  0.2276746E+03  0.7561462E-02  0.1128287E+00
          2   -1    0    0  501    0  0.00000000000E+00  0.00000000000E+00  0.63166478788E+03  0.63166478788E+03  0.00000000000E+00 0.  1.
         -2   -1    0    0    0  501 -0.00000000000E+00 -0.00000000000E+00 -0.96024135533E+02  0.96024135533E+02  0.00000000000E+00 0. -1.
         25    2    1    2    0    0  0.18841633428E+03  0.67486492519E+02  0.13791981673E+03  0.27335426413E+03  0.12508211773E+03 0.  0.
          5    1    3    3  502    0  0.17816597633E+03  0.11156074713E+02  0.10224331744E+03  0.20576380024E+03  0.41800000000E+01 0.  1.
         -5    1    3    3    0  502  0.10250357946E+02  0.56330417807E+02  0.35676499284E+02  0.67590463894E+02  0.41800000000E+01 0.  1.
        -11    1    1    2    0    0 -0.11747366060E+03  0.54890419568E+01  0.22407244542E+03  0.25305859264E+03  0.00000000000E+00 0.  1.
         11    1    1    2    0    0 -0.70942673678E+02 -0.72975534476E+02  0.17364839020E+03  0.20127606663E+03  0.00000000000E+00 0. -1.
</event>
<event>
 7    1  0.2690635E-009  0.6895683E+02  0.7561462E-02  0.1363677E+00
         -1   -1    0    0    0  501 -0.00000000000E+00  0.00000000000E+00  0.54073996096E+03  0.54073996096E+03  0.00000000000E+00 0.  1.
          1   -1    0    0  501    0  0.00000000000E+00 -0.00000000000E+00 -0.28699529333E+02  0.28699529333E+02  0.00000000000E+00 0. -1.
         25    2    1    2    0    0  0.32545248340E+02  0.22665131184E+02  0.18137489922E+03  0.22386908849E+03  0.12509042070E+03 0.  0.
          5    1    3    3  502    0 -0.43784694168E+01  0.71108468851E+01  0.18330170061E+03  0.18353942624E+03  0.41800000000E+01 0. -1.
         -5    1    3    3    0  502  0.36923717757E+02  0.15554284299E+02 -0.19268013918E+01  0.40329662243E+02  0.41800000000E+01 0. -1.
        -11    1    1    2    0    0  0.20773914159E+02  0.12664314439E+02  0.32366927660E+02  0.40491460530E+02  0.00000000000E+00 0. -1.
         11    1    1    2    0    0 -0.53319162499E+02 -0.35329445623E+02  0.29829860474E+03  0.30507894127E+03  0.00000000000E+00 0.  1.
</event>
<event>
 7    1  0.2690635E-009  0.1127433E+03  0.7561462E-02  0.1255572E+00
          4   -1    0    0  501    0  0.00000000000E+00  0.00000000000E+00  0.42203281753E+03  0.42203281753E+03  0.00000000000E+00 0.  1.
         -4   -1    0    0    0  501 -0.00000000000E+00 -0.00000000000E+00 -0.39878494009E+02  0.39878494009E+02  0.00000000000E+00 0. -1.
         25    2    1    2    0    0  0.62366080405E+02  0.28622815427E+02  0.18338886804E+03  0.23234879531E+03  0.12508274147E+03 0.  0.
          5    1    3    3  502    0  0.72842498109E+02  0.68533530573E+02  0.14217376585E+03  0.17387848182E+03  0.41800000000E+01 0.  1.
         -5    1    3    3    0  502 -0.10476417703E+02 -0.39910715146E+02  0.41215102187E+02  0.58470313490E+02  0.41800000000E+01 0.  1.
        -11    1    1    2    0    0 -0.44248640822E+02 -0.42296850958E+02  0.19756690812E+03  0.20683241767E+03  0.00000000000E+00 0.  1.
         11    1    1    2    0    0 -0.18117439583E+02  0.13674035531E+02  0.11985473654E+01  0.22730098560E+02  0.00000000000E+00 0. -1.
</event>
<event>
 7    1  0.2690635E-009  0.9729931E+02  0.7561462E-02  0.1286080E+00
         -2   -1    0    0    0  501 -0.00000000000E+00  0.00000000000E+00  0.16471386351E+02  0.16471386351E+02  0.00000000000E+00 0. -1.
          2   -1    0    0  501    0  0.00000000000E+00 -0.00000000000E+00 -0.82445834716E+03  0.82445834716E+03  0.00000000000E+00 0.  1.
         25    2    1    2    0    0  0.79672455086E+01  0.28764270849E+02 -0.55196901387E+03  0.56675232694E+03  0.12509015767E+03 0.  0.
          5    1    3    3  502    0 -0.87573972679E+00  0.66235954453E+02 -0.16498851074E+03  0.17783883057E+03  0.41800000000E+01 0.  1.
         -5    1    3    3    0  502  0.88429852354E+01 -0.37471683604E+02 -0.38698050312E+03  0.38891349637E+03  0.41800000000E+01 0.  1.
        -11    1    1    2    0    0 -0.13474290490E+02  0.28734058624E+02 -0.15123002178E+03  0.15452417971E+03  0.00000000000E+00 0.  1.
         11    1    1    2    0    0  0.55070449812E+01 -0.57498329473E+02 -0.10478792516E+03  0.11965322685E+03  0.00000000000E+00 0. -1.
</event>
<event>
 7    1  0.2690635E-009  0.1095846E+03  0.7561462E-02  0.1261341E+00
         -2   -1    0    0    0  501 -0.00000000000E+00  0.00000000000E+00  0.26381094792E+03  0.26381094792E+03  0.00000000000E+00 0.  1.
          2   -1    0    0  501    0  0.00000000000E+00 -0.00000000000E+00 -0.49656295023E+02  0.49656295023E+02  0.00000000000E+00 0. -1.
         25    2    1    2    0    0 -0.30293771889E+02 -0.14333626138E+02  0.98116457856E+02  0.16247296522E+03  0.12508980643E+03 0.  0.
          5    1    3    3  502    0  0.23013704796E+02 -0.52331227786E+02  0.71602491022E+02  0.91720102107E+02  0.41800000000E+01 0. -1.
         -5    1    3    3    0  502 -0.53307476685E+02  0.37997601648E+02  0.26513966834E+02  0.70752863114E+02  0.41800000000E+01 0. -1.
        -11    1    1    2    0    0  0.38051008730E+01  0.50931537787E+02  0.55018052707E+02  0.75069877166E+02  0.00000000000E+00 0.  1.
         11    1    1    2    0    0  0.26488671016E+02 -0.36597911650E+02  0.61020142334E+02  0.75924400556E+02  0.00000000000E+00 0. -1.
</event>
<event>
 7    1  0.2690635E-009  0.1017880E+03  0.7561462E-02  0.1276580E+00
          2   -1    0    0  501    0  0.00000000000E+00  0.00000000000E+00  0.27901790640E+03  0.27901790640E+03  0.00000000000E+00 0.  1.
         -2   -1    0    0    0  501 -0.00000000000E+00 -0.00000000000E+00 -0.91079644368E+02  0.91079644368E+02  0.00000000000E+00 0. -1.
         25    2    1    2    0    0  0.15451383989E+02 -0.91793536034E+02  0.18261267163E+03  0.24012400557E+03  0.12508937478E+03 0.  0.
          5    1    3    3  502    0  0.11792770660E+02 -0.13617559359E+02  0.15639120565E+03  0.15748075745E+03  0.41800000000E+01 0.  1.
         -5    1    3    3    0  502  0.36586133291E+01 -0.78175976674E+02  0.26221465978E+02  0.82643248112E+02  0.41800000000E+01 0.  1.
        -11    1    1    2    0    0 -0.20755984393E+02  0.72279843868E+01  0.34031122689E+02  0.40511380597E+02  0.00000000000E+00 0.  1.
         11    1    1    2    0    0  0.53046004038E+01  0.84565551647E+02 -0.28705532292E+02  0.89462164600E+02  0.00000000000E+00 0. -1.
</event>
<event>
 7    1  0.2852591E-009  0.9261022E+02  0.7561462E-02  0.1296651E+00
         -2   -1    0    0    0  501 -0.00000000000E+00  0.00000000000E+00  0.40271441317E+02  0.40271441317E+02  0.00000000000E+00 0.  1.
          2   -1    0    0  501    0  0.00000000000E+00 -0.00000000000E+00 -0.37773446555E+03  0.37773446555E+03  0.00000000000E+00 0. -1.
         25    2    1    2    0    0 -0.10233823101E+02  0.50771642950E+02 -0.23785106582E+03  0.27368655379E+03  0.12509480144E+03 0.  0.
          5    1    3    3  502    0  0.35773365189E+02  0.63508972711E+02 -0.19908019894E+03  0.21204603576E+03  0.41800000000E+01 0. -1.
         -5    1    3    3    0  502 -0.46007188289E+02 -0.12737329762E+02 -0.38770866885E+02  0.61640518028E+02  0.41800000000E+01 0. -1.
        -11    1    1    2    0    0  0.16717861074E+02 -0.41588197585E+01  0.13448582953E+02  0.21855137705E+02  0.00000000000E+00 0.  1.
         11    1    1    2    0    0 -0.64840379730E+01 -0.46612823191E+02 -0.11306054137E+03  0.12246421538E+03  0.00000000000E+00 0. -1.
</event>
<event>
 7    1  0.2690635E-009  0.9896288E+02  0.7561462E-02  0.1282492E+00
          2   -1    0    0  501    0  0.00000000000E+00  0.00000000000E+00  0.10012444462E+04  0.10012444462E+04  0.00000000000E+00 0. -1.
         -2   -1    0    0    0  501 -0.00000000000E+00 -0.00000000000E+00 -0.12731915875E+02  0.12731915875E+02  0.00000000000E+00 0.  1.
         25    2    1    2    0    0  0.14023619808E+02  0.27779474321E+02  0.61354740079E+03  0.62694124322E+03  0.12508616361E+03 0.  0.
          5    1    3    3  502    0  0.53653960114E+02  0.30945413991E+02  0.15977618397E+03  0.17141256502E+03  0.41800000000E+01 0. -1.
         -5    1    3    3    0  502 -0.39630340306E+02 -0.31659396699E+01  0.45377121682E+03  0.45552867820E+03  0.41800000000E+01 0. -1.
        -11    1    1    2    0    0 -0.45398281791E+02  0.10278721645E+02  0.17706049941E+03  0.18307669584E+03  0.00000000000E+00 0.  1.
         11    1    1    2    0    0  0.31374661983E+02 -0.38058195966E+02  0.19790463013E+03  0.20395842302E+03  0.00000000000E+00 0. -1.
</event>
<event>
 7    1  0.2690635E-009  0.1316005E+03  0.7561462E-02  0.1225100E+00
          2   -1    0    0  501    0  0.00000000000E+00  0.00000000000E+00  0.15931594447E+04  0.15931594447E+04  0.00000000000E+00 0.  1.
         -2   -1    0    0    0  501 -0.00000000000E+00 -0.00000000000E+00 -0.16334043788E+02  0.16334043788E+02  0.00000000000E+00 0. -1.
         25    2    1    2    0    0  0.10980825345E+02 -0.87563104868E+02  0.12333826305E+04  0.12428471929E+04  0.12509418793E+03 0.  0.
          5    1    3    3  502    0 -0.34119596269E+02  0.56465173904E+01  0.60280010123E+03  0.60380581685E+03  0.41800000000E+01 0. -1.
         -5    1    3    3    0  502  0.45100421615E+02 -0.93209622258E+02  0.63058252924E+03  0.63904137605E+03  0.41800000000E+01 0. -1.
        -11    1    1    2    0    0  0.34893445866E+02  0.13094929681E+02  0.14629671144E+03  0.15096939267E+03  0.00000000000E+00 0.  1.
         11    1    1    2    0    0 -0.45874271211E+02  0.74468175187E+02  0.19714605899E+03  0.21567690292E+03  0.00000000000E+00 0. -1.
</event>
<event>
 7    1  0.2690635E-009  0.1143424E+03  0.7561462E-02  0.1252733E+00
         -2   -1    0    0    0  501 -0.00000000000E+00  0.00000000000E+00  0.41276703727E+03  0.41276703727E+03  0.00000000000E+00 0.  1.
          2   -1    0    0  501    0  0.00000000000E+00 -0.00000000000E+00 -0.39307183979E+02  0.39307183979E+02  0.00000000000E+00 0. -1.
         25    2    1    2    0    0  0.47607596283E+02 -0.24923433262E+02  0.27850941921E+03  0.31000376796E+03  0.12508868378E+03 0.  0.
          5    1    3    3  502    0 -0.16536373831E+02 -0.55996363758E+02  0.17277300692E+03  0.18241992417E+03  0.41800000000E+01 0.  1.
         -5    1    3    3    0  502  0.64143970114E+02  0.31072930496E+02  0.10573641229E+03  0.12758384379E+03  0.41800000000E+01 0.  1.
        -11    1    1    2    0    0 -0.44553186800E+02  0.53721469175E+02  0.87949126059E+02  0.11227658473E+03  0.00000000000E+00 0.  1.
         11    1    1    2    0    0 -0.30544094834E+01 -0.28798035914E+02  0.70013080208E+01  0.29793868560E+02  0.00000000000E+00 0. -1.
</event>
<event>
 7    1  0.2690635E-009  0.1094819E+03  0.7561462E-02  0.1261532E+00
         -2   -1    0    0    0  501 -0.00000000000E+00  0.00000000000E+00  0.44127217810E+02  0.44127217810E+02  0.00000000000E+00 0.  1.
          2   -1    0    0  501    0  0.00000000000E+00 -0.00000000000E+00 -0.29373740143E+03  0.29373740143E+03  0.00000000000E+00 0. -1.
         25    2    1    2    0    0 -0.33149439806E+02  0.48891446925E+01 -0.12279614063E+03  0.17845885764E+03  0.12508350259E+03 0.  0.
          5    1    3    3  502    0  0.13436014788E+02 -0.52653699234E+02 -0.62158617088E+02  0.82668643479E+02  0.41800000000E+01 0.  1.
         -5    1    3    3    0  502 -0.46585454594E+02  0.57542843926E+02 -0.60637523541E+02  0.95790214156E+02  0.41800000000E+01 0.  1.
        -11    1    1    2    0    0 -0.11109622607E+02 -0.35037258817E+02 -0.25266595986E+02  0.44603072681E+02  0.00000000000E+00 0.  1.
         11    1    1    2    0    0  0.44259062413E+02  0.30148114124E+02 -0.10154744701E+03  0.11480268893E+03  0.00000000000E+00 0. -1.
</event>
<event>
 7    1  0.2690635E-009  0.2392034E+03  0.7561462E-02  0.1120325E+00
         -1   -1    0    0    0  501 -0.00000000000E+00  0.00000000000E+00  0.38240081867E+03  0.38240081867E+03  0.00000000000E+00 0.  1.
          1   -1    0    0  501    0  0.00000000000E+00 -0.00000000000E+00 -0.17908387456E+03  0.17908387456E+03  0.00000000000E+00 0. -1.
         25    2    1    2    0    0  0.88966985220E+02  0.21685553951E+03  0.61892027048E+02  0.27279992278E+03  0.12509086850E+03 0.  0.
          5    1    3    3  502    0  0.63255338460E+02  0.11817104150E+03 -0.27768921612E+02  0.13694604157E+03  0.41800000000E+01 0. -1.
         -5    1    3    3    0  502  0.25711646760E+02  0.98684498002E+02  0.89660948661E+02  0.13585388121E+03  0.41800000000E+01 0. -1.
        -11    1    1    2    0    0 -0.88346648239E+02 -0.14105567877E+03  0.13173841564E+03  0.21226597684E+03  0.00000000000E+00 0.  1.
         11    1    1    2    0    0 -0.62033698178E+00 -0.75799860739E+02  0.96865014191E+01  0.76418793603E+02  0.00000000000E+00 0. -1.
</event>
<event>
 7    1  0.2690635E-009  0.1158936E+03  0.7561462E-02  0.1250029E+00
         -2   -1    0    0    0  501 -0.00000000000E+00  0.00000000000E+00  0.53513087108E+02  0.53513087108E+02  0.00000000000E+00 0.  1.
          2   -1    0    0  501    0  0.00000000000E+00 -0.00000000000E+00 -0.26507689813E+03  0.26507689813E+03  0.00000000000E+00 0. -1.
         25    2    1    2    0    0  0.93609866198E+01 -0.47973670341E+02 -0.10133132626E+03  0.16824119529E+03  0.12509181025E+03 0.  0.
          5    1    3    3  502    0  0.13001377718E+02  0.41186052746E+02 -0.45623897994E+02  0.62962998909E+02  0.41800000000E+01 0.  1.
         -5    1    3    3    0  502 -0.36403910981E+01 -0.89159723087E+02 -0.55707428270E+02  0.10527819638E+03  0.41800000000E+01 0.  1.
        -11    1    1    2    0    0 -0.19387378322E+02  0.71186085125E+02 -0.96818519879E+02  0.12172573658E+03  0.00000000000E+00 0. -1.
         11    1    1    2    0    0  0.10026391702E+02 -0.23212414784E+02 -0.13413964881E+02  0.28623053375E+02  0.00000000000E+00 0.  1.
</event>
<event>
 7    1  0.2690635E-009  0.1024969E+03  0.7561462E-02  0.1275131E+00
         -2   -1    0    0    0  501 -0.00000000000E+00  0.00000000000E+00  0.45123716165E+02  0.45123716165E+02  0.00000000000E+00 0.  1.
          2   -1    0    0  501    0  0.00000000000E+00 -0.00000000000E+00 -0.27011616141E+03  0.27011616141E+03  0.00000000000E+00 0. -1.
         25    2    1    2    0    0  0.11248766808E+02 -0.12869938430E+02 -0.11136909625E+03  0.16834554839E+03  0.12507988645E+03 0.  0.
          5    1    3    3  502    0  0.67616281625E+02 -0.32608892033E+01 -0.71247717923E+02  0.98368209541E+02  0.41800000000E+01 0.  1.
         -5    1    3    3    0  502 -0.56367514817E+02 -0.96090492265E+01 -0.40121378324E+02  0.69977338848E+02  0.41800000000E+01 0.  1.
        -11    1    1    2    0    0  0.10825925164E+02 -0.29848866639E+02 -0.85461742519E+02  0.91169429798E+02  0.00000000000E+00 0.  1.
         11    1    1    2    0    0 -0.22074691972E+02  0.42718805069E+02 -0.28161606478E+02  0.55724899386E+02  0.00000000000E+00 0. -1.
</event>
<event>
 7    1  0.2690635E-009  0.1720396E+03  0.7561462E-02  0.1175737E+00
          2   -1    0    0  501    0  0.00000000000E+00  0.00000000000E+00  0.55253814582E+03  0.55253814582E+03  0.00000000000E+00 0. -1.
         -2   -1    0    0    0  501 -0.00000000000E+00 -0.00000000000E+00 -0.61766475143E+02  0.61766475143E+02  0.00000000000E+00 0.  1.
         25    2    1    2    0    0 -0.35317158873E+02  0.14426918736E+03  0.28214247130E+03  0.34251045035E+03  0.12509250320E+03 0.  0.
          5    1    3    3  502    0  0.32626759999E+02  0.54711828836E+02  0.39528098590E+02  0.75085502334E+02  0.41800000000E+01 0.  1.
         -5    1    3    3    0  502 -0.67943918872E+02  0.89557358525E+02  0.24261437271E+03  0.26742494802E+03  0.41800000000E+01 0.  1.
        -11    1    1    2    0    0  0.60279145724E+02 -0.94856221513E+02  0.10257680307E+03  0.15216201463E+03  0.00000000000E+00 0.  1.
         11    1    1    2    0    0 -0.24961986852E+02 -0.49412965848E+02  0.10605239631E+03  0.11963215598E+03  0.00000000000E+00 0. -1.
</event>
<event>
 7    1  0.2690635E-009  0.9508317E+02  0.7561462E-02  0.1290989E+00
          2   -1    0    0  501    0  0.00000000000E+00  0.00000000000E+00  0.50021900652E+03  0.50021900652E+03  0.00000000000E+00 0. -1.
         -2   -1    0    0    0  501 -0.00000000000E+00 -0.00000000000E+00 -0.24045259906E+02  0.24045259906E+02  0.00000000000E+00 0.  1.
         25    2    1    2    0    0 -0.10666251515E+02 -0.12539260017E+02  0.27838806055E+03  0.30564099701E+03  0.12508199245E+03 0.  0.
          5    1    3    3  502    0  0.45241677618E+02  0.26561634507E+02  0.16555842040E+03  0.17372217126E+03  0.41800000000E+01 0.  1.
         -5    1    3    3    0  502 -0.55907929132E+02 -0.39100894523E+02  0.11282964014E+03  0.13191882575E+03  0.41800000000E+01 0.  1.
        -11    1    1    2    0    0 -0.28648616830E+02  0.36761807708E+01  0.17246932634E+02  0.33640960697E+02  0.00000000000E+00 0.  1.
         11    1    1    2    0    0  0.39314868345E+02  0.88630792457E+01  0.18053875344E+03  0.18498230872E+03  0.00000000000E+00 0. -1.
</event>
<event>
 7    1  0.3245798E-009  0.1209587E+03  0.7561462E-02  0.1241524E+00
         -2   -1    0    0    0  501 -0.00000000000E+00  0.00000000000E+00  0.29188528214E+02  0.29188528214E+02  0.00000000000E+00 0.  1.
          2   -1    0    0  501    0  0.00000000000E+00 -0.00000000000E+00 -0.53068220697E+03  0.53068220697E+03  0.00000000000E+00 0. -1.
         25    2    1    2    0    0 -0.11568884454E+02 -0.59782938715E+02 -0.26852208216E+03  0.30242310379E+03  0.12509111180E+03 0.  0.
          5    1    3    3  502    0  0.38479482927E+02 -0.72014632631E+02 -0.20383519029E+03  0.21962020654E+03  0.41800000000E+01 0. -1.
         -5    1    3    3    0  502 -0.50048367381E+02  0.12231693916E+02 -0.64686891863E+02  0.82802897246E+02  0.41800000000E+01 0. -1.
        -11    1    1    2    0    0 -0.38825979336E+02  0.35163007928E+02 -0.94474602539E+02  0.10802473940E+03  0.00000000000E+00 0.  1.
         11    1    1    2    0    0  0.50394863789E+02  0.24619930786E+02 -0.13849699406E+03  0.14942289199E+03  0.00000000000E+00 0. -1.
</event>
<event>
 7    1  0.2690635E-009  0.1131563E+03  0.7561462E-02  0.1254834E+00
          1   -1    0    0  501    0  0.00000000000E+00  0.00000000000E+00  0.29295497527E+02  0.29295497527E+02  0.00000000000E+00 0. -1.
         -1   -1    0    0    0  501 -0.00000000000E+00 -0.00000000000E+00 -0.73514548033E+03  0.73514548033E+03  0.00000000000E+00 0.  1.
         25    2    1    2    0    0  0.89157099702E+02 -0.29974026404E+02 -0.30510228988E+03  0.34290569628E+03  0.12509787596E+03 0.  0.
          5    1    3    3  502    0  0.35918931398E+02 -0.22400606743E+02 -0.28035376214E+03  0.28356244667E+03  0.41800000000E+01 0.  1.
         -5    1    3    3    0  502  0.53238168304E+02 -0.75734196609E+01 -0.24748527741E+02  0.59343249617E+02  0.41800000000E+01 0.  1.
        -11    1    1    2    0    0  0.81222414064E+01 -0.19192582512E+02 -0.47939630498E+02  0.52273647292E+02  0.00000000000E+00 0. -1.
         11    1    1    2    0    0 -0.97279341108E+02  0.49166608916E+02 -0.35280806242E+03  0.36926163428E+03  0.00000000000E+00 0.  1.
</event>
<event>
 7    1  0.2690635E-009  0.9327880E+02  0.7561462E-02  0.1295100E+00
          1   -1    0    0  501    0  0.00000000000E+00  0.00000000000E+00  0.50911068980E+02  0.50911068980E+02  0.00000000000E+00 0. -1.
         -1   -1    0    0    0  501 -0.00000000000E+00 -0.00000000000E+00 -0.27479555135E+03  0.27479555135E+03  0.00000000000E+00 0.  1.
         25    2    1    2    0    0 -0.32167844494E+02 -0.71080102422E+01 -0.17182239281E+03  0.21507178608E+03  0.12509054507E+03 0.  0.
          5    1    3    3  502    0  0.13117308275E+02  0.52559063945E+02 -0.72611104059E+02  0.90688278249E+02  0.41800000000E+01 0. -1.
         -5    1    3    3    0  502 -0.45285152769E+02 -0.59667074188E+02 -0.99211288754E+02  0.12438350783E+03  0.41800000000E+01 0. -1.
        -11    1    1    2    0    0 -0.10266178370E+02 -0.70675108329E+01 -0.63292226950E+02  0.64507752402E+02  0.00000000000E+00 0.  1.
         11    1    1    2    0    0  0.42434022864E+02  0.14175521075E+02  0.11230137393E+02  0.46127081851E+02  0.00000000000E+00 0. -1.
</event>
<event>
 7    1  0.2690635E-009  0.1221196E+03  0.7561462E-02  0.1239641E+00
          1   -1    0    0  501    0  0.00000000000E+00  0.00000000000E+00  0.67822692917E+02  0.67822692917E+02  0.00000000000E+00 0. -1.
         -1   -1    0    0    0  501 -0.00000000000E+00 -0.00000000000E+00 -0.37743952632E+03  0.37743952632E+03  0.00000000000E+00 0.  1.
         25    2    1    2    0    0 -0.15526443747E+02 -0.58248064435E+02 -0.30793542765E+03  0.33779500620E+03  0.12508929270E+03 0.  0.
          5    1    3    3  502    0  0.53894865822E+02 -0.12115325546E+02 -0.12384022943E+03  0.13566618038E+03  0.41800000000E+01 0. -1.
         -5    1    3    3    0  502 -0.69421309569E+02 -0.46132738889E+02 -0.18409519822E+03  0.20212882582E+03  0.41800000000E+01 0. -1.
        -11    1    1    2    0    0 -0.70228778154E+01 -0.21443621293E+02  0.83106293669E+01  0.24046127909E+02  0.00000000000E+00 0.  1.
         11    1    1    2    0    0  0.22549321563E+02  0.79691685728E+02 -0.99920351190E+01  0.83421085122E+02  0.00000000000E+00 0. -1.
</event>
<event>
 7    1  0.2690635E-009  0.1047193E+03  0.7561462E-02  0.1270674E+00
          3   -1    0    0  501    0  0.00000000000E+00  0.00000000000E+00  0.37542790411E+02  0.37542790411E+02  0.00000000000E+00 0. -1.
         -3   -1    0    0    0  501 -0.00000000000E+00 -0.00000000000E+00 -0.38290195684E+03  0.38290195684E+03  0.00000000000E+00 0.  1.
         25    2    1    2    0    0  0.26974085560E+02  0.21248265275E+02 -0.25821577451E+03  0.28896672333E+03  0.12508913189E+03 0.  0.
          5    1    3    3  502    0 -0.41295546726E+02  0.17233158721E+02 -0.39714496600E+02  0.59975141343E+02  0.41800000000E+01 0. -1.
         -5    1    3    3    0  502  0.68269632286E+02  0.40151065541E+01 -0.21850127791E+03  0.22899158199E+03  0.41800000000E+01 0. -1.
        -11    1    1    2    0    0 -0.25173253410E+02  0.33110300628E+02 -0.23544678263E+02  0.47794733700E+02  0.00000000000E+00 0. -1.
         11    1    1    2    0    0 -0.18008321497E+01 -0.54358565903E+02 -0.63598713658E+02  0.83683290223E+02  0.00000000000E+00 0.  1.
</event>
<event>
 7    1  0.2690635E-009  0.1033716E+03  0.7561462E-02  0.1273361E+00
         -3   -1    0    0    0  501 -0.00000000000E+00  0.00000000000E+00  0.16983887663E+03  0.16983887663E+03  0.00000000000E+00 0.  1.
          3   -1    0    0  501    0  0.00000000000E+00 -0.00000000000E+00 -0.11484117054E+03  0.11484117054E+03  0.00000000000E+00 0. -1.
         25    2    1    2    0    0  0.43832632234E+02  0.17750383358E+02 -0.46417042562E+02  0.14156720411E+03  0.12510138162E+03 0.  0.
          5    1    3    3  502    0 -0.20109276752E+02  0.52551017654E+02 -0.25696832655E+01  0.56480688205E+02  0.41800000000E+01 0. -1.
         -5    1    3    3    0  502  0.63941908986E+02 -0.34800634296E+02 -0.43847359296E+02  0.85086515908E+02  0.41800000000E+01 0. -1.
        -11    1    1    2    0    0 -0.15562966517E+02  0.23021720993E+02  0.87173492757E+02  0.91495482969E+02  0.00000000000E+00 0.  1.
         11    1    1    2    0    0 -0.28269665717E+02 -0.40772104351E+02  0.14241255895E+02  0.51617360088E+02  0.00000000000E+00 0. -1.
</event>
<event>
 7    1  0.2690635E-009  0.1028044E+03  0.7561462E-02  0.1274507E+00
         -1   -1    0    0    0  501 -0.00000000000E+00  0.00000000000E+00  0.31561542012E+02  0.31561542012E+02  0.00000000000E+00 0.  1.
          1   -1    0    0  501    0  0.00000000000E+00 -0.00000000000E+00 -0.36760527315E+03  0.36760527315E+03  0.00000000000E+00 0. -1.
         25    2    1    2    0    0  0.90228836729E+01  0.33321022535E+00 -0.15455510746E+03  0.19903894899E+03  0.12509076111E+03 0.  0.
          5    1    3    3  502    0  0.60020065956E+02  0.28647940752E+02 -0.75444618752E+02  0.10066019931E+03  0.41800000000E+01 0.  1.
         -5    1    3    3    0  502 -0.50997182283E+02 -0.28314730527E+02 -0.79110488705E+02  0.98378749680E+02  0.41800000000E+01 0.  1.
        -11    1    1    2    0    0  0.15371608621E+02 -0.34927667708E+02 -0.11630555336E+03  0.12240592333E+03  0.00000000000E+00 0. -1.
         11    1    1    2    0    0 -0.24394492294E+02  0.34594457482E+02 -0.65183070319E+02  0.77721942841E+02  0.00000000000E+00 0.  1.
</event>
<event>
 7    1  0.2690635E-009  0.1244081E+03  0.7561462E-02  0.1235997E+00
          2   -1    0    0  501    0  0.00000000000E+00  0.00000000000E+00  0.88580928933E+03  0.88580928933E+03  0.00000000000E+00 0. -1.
         -2   -1    0    0    0  501 -0.00000000000E+00 -0.00000000000E+00 -0.27151027918E+02  0.27151027918E+02  0.00000000000E+00 0.  1.
         25    2    1    2    0    0  0.43235400311E+02 -0.85803917591E+02  0.31065311322E+03  0.34840592436E+03  0.12509883798E+03 0.  0.
          5    1    3    3  502    0  0.68878676297E+02 -0.32966412332E+02  0.81303687904E+02  0.11161907748E+03  0.41800000000E+01 0. -1.
         -5    1    3    3    0  502 -0.25643275986E+02 -0.52837505260E+02  0.22934942531E+03  0.23678684688E+03  0.41800000000E+01 0. -1.
        -11    1    1    2    0    0 -0.26467570429E+02  0.44612667066E+00  0.33248703300E+02  0.42499500992E+02  0.00000000000E+00 0.  1.
         11    1    1    2    0    0 -0.16767829882E+02  0.85357790920E+02  0.51475644489E+03  0.52205489189E+03  0.00000000000E+00 0. -1.
</event>
<event>
 7    1  0.2690635E-009  0.1759432E+03  0.7561462E-02  0.1171788E+00
          2   -1    0    0  501    0  0.00000000000E+00  0.00000000000E+00  0.16883210879E+04  0.16883210879E+04  0.00000000000E+00 0. -1.
         -2   -1    0    0    0  501 -0.00000000000E+00 -0.00000000000E+00 -0.44867857660E+02  0.44867857660E+02  0.00000000000E+00 0.  1.
         25    2    1    2    0    0 -0.29252901760E+02 -0.15356470773E+03  0.14930258980E+04  0.15063910540E+04  0.12509925611E+03 0.  0.
          5    1    3    3  502    0  0.38535867773E+02 -0.24295438933E+02  0.20103706725E+03  0.20617627474E+03  0.41800000000E+01 0. -1.
         -5    1    3    3    0  502 -0.67788769533E+02 -0.12926926880E+03  0.12919888307E+04  0.13002147793E+04  0.41800000000E+01 0. -1.
        -11    1    1    2    0    0  0.35936114907E+02  0.10255403869E+03  0.13456005471E+03  0.17295994776E+03  0.00000000000E+00 0. -1.
         11    1    1    2    0    0 -0.66832131469E+01  0.51010669049E+02  0.15867277570E+02  0.53837943797E+02  0.00000000000E+00 0.  1.
</event>
<event>
 7    1  0.2690635E-009  0.9772566E+02  0.7561462E-02  0.1285153E+00
          4   -1    0    0  501    0  0.00000000000E+00  0.00000000000E+00  0.55290885179E+02  0.55290885179E+02  0.00000000000E+00 0. -1.
         -4   -1    0    0    0  501 -0.00000000000E+00 -0.00000000000E+00 -0.24474179009E+03  0.24474179009E+03  0.00000000000E+00 0.  1.
         25    2    1    2    0    0  0.10344876631E+02 -0.36912365840E+02 -0.80937853266E+02  0.15384233468E+03  0.12508792357E+03 0.  0.
          5    1    3    3  502    0 -0.47209966192E+02 -0.28209921425E+02 -0.13760819580E+01  0.55171972742E+02  0.41800000000E+01 0.  1.
         -5    1    3    3    0  502  0.57554842824E+02 -0.87024444150E+01 -0.79561771308E+02  0.98670361938E+02  0.41800000000E+01 0.  1.
        -11    1    1    2    0    0  0.31295716164E+02  0.12740273705E+02 -0.79752547183E+01  0.34718022872E+02  0.00000000000E+00 0. -1.
         11    1    1    2    0    0 -0.41640592795E+02  0.24172092134E+02 -0.10053779692E+03  0.11147231772E+03  0.00000000000E+00 0.  1.
</event>
<event>
 7    1  0.2690635E-009  0.3106998E+03  0.7561462E-02  0.1080011E+00
          1   -1    0    0  501    0  0.00000000000E+00  0.00000000000E+00  0.39232402417E+03  0.39232402417E+03  0.00000000000E+00 0. -1.
         -1   -1    0    0    0  501 -0.00000000000E+00 -0.00000000000E+00 -0.42763382063E+03  0.42763382063E+03  0.00000000000E+00 0.  1.
         25    2    1    2    0    0  0.13141284729E+03  0.25889884238E+03  0.24876590490E+03  0.40228040175E+03  0.12508836545E+03 0.  0.
          5    1    3    3  502    0  0.60425974327E+02  0.15555770446E+02  0.52972509926E+02  0.81956327245E+02  0.41800000000E+01 0. -1.
         -5    1    3    3    0  502  0.70986872967E+02  0.24334307194E+03  0.19579339498E+03  0.32032407451E+03  0.41800000000E+01 0. -1.
        -11    1    1    2    0    0 -0.14614893120E+03 -0.22400382551E+03 -0.23794237866E+03  0.35798575320E+03  0.00000000000E+00 0. -1.
         11    1    1    2    0    0  0.14736083909E+02 -0.34895016879E+02 -0.46133322701E+02  0.59691689836E+02  0.00000000000E+00 0.  1.
</event>
<event>
 7    1  0.2690635E-009  0.9785352E+02  0.7561462E-02  0.1284876E+00
          2   -1    0    0  501    0  0.00000000000E+00  0.00000000000E+00  0.70753992559E+03  0.70753992559E+03  0.00000000000E+00 0.  1.
         -2   -1    0    0    0  501 -0.00000000000E+00 -0.00000000000E+00 -0.19147297780E+02  0.19147297780E+02  0.00000000000E+00 0. -1.
         25    2    1    2    0    0 -0.56895169669E+01 -0.37137516140E+02  0.37355720027E+03  0.39573265129E+03  0.12509110167E+03 0.  0.
          5    1    3    3  502    0  0.13729025441E+02 -0.77154877256E+02  0.29601352642E+03  0.30623984301E+03  0.41800000000E+01 0. -1.
         -5    1    3    3    0  502 -0.19418542408E+02  0.40017361116E+02  0.77543673848E+02  0.89492808280E+02  0.41800000000E+01 0. -1.
        -11    1    1    2    0    0 -0.13753678719E+02  0.48240474024E+02  0.29983950249E+03  0.30400663523E+03  0.00000000000E+00 0.  1.
         11    1    1    2    0    0  0.19443195686E+02 -0.11102957884E+02  0.14995925058E+02  0.26947936852E+02  0.00000000000E+00 0. -1.
</event>
<event>
 7    1  0.2690635E-009  0.1058893E+03  0.7561462E-02  0.1268377E+00
         -2   -1    0    0    0  501 -0.00000000000E+00  0.00000000000E+00  0.14210714641E+02  0.14210714641E+02  0.00000000000E+00 0.  1.
          2   -1    0    0  501    0  0.00000000000E+00 -0.00000000000E+00 -0.10484073003E+04  0.10484073003E+04  0.00000000000E+00 0. -1.
         25    2    1    2    0    0  0.49791966116E+00  0.57894269673E+02 -0.61667842345E+03  0.63189448901E+03  0.12508546240E+03 0.  0.
          5    1    3    3  502    0 -0.31188925310E+02  0.68810746532E+02 -0.19975396458E+03  0.21360427586E+03  0.41800000000E+01 0.  1.
         -5    1    3    3    0  502  0.31686844971E+02 -0.10916476859E+02 -0.41692445887E+03  0.41829021315E+03  0.41800000000E+01 0.  1.
        -11    1    1    2    0    0 -0.40755880116E+02 -0.43439770482E+02 -0.29498971941E+03  0.30094349965E+03  0.00000000000E+00 0.  1.
         11    1    1    2    0    0  0.40257960455E+02 -0.14454499191E+02 -0.12252844275E+03  0.12978002624E+03  0.00000000000E+00 0. -1.
</event>
<event>
 7    1  0.2690635E-009  0.1507442E+03  0.7561462E-02  0.1199562E+00
         -2   -1    0    0    0  501 -0.00000000000E+00  0.00000000000E+00  0.40292194263E+02  0.40292194263E+02  0.00000000000E+00 0. -1.
          2   -1    0    0  501    0  0.00000000000E+00 -0.00000000000E+00 -0.71365993993E+03  0.71365993993E+03  0.00000000000E+00 0.  1.
         25    2    1    2    0    0 -0.10068751042E+03  0.76235973708E+02 -0.43711414598E+03  0.47187593087E+03  0.12509284184E+03 0.  0.
          5    1    3    3  502    0 -0.10329124716E+03  0.87439808171E+02 -0.24956362849E+03  0.28392653778E+03  0.41800000000E+01 0. -1.
         -5    1    3    3    0  502  0.26037367397E+01 -0.11203834463E+02 -0.18755051749E+03  0.18794939308E+03  0.41800000000E+01 0. -1.
        -11    1    1    2    0    0  0.47202497911E+02 -0.87292487220E+02 -0.16012526274E+03  0.18838299791E+03  0.00000000000E+00 0. -1.
         11    1    1    2    0    0  0.53485012506E+02  0.11056513511E+02 -0.76128336949E+02  0.93693205412E+02  0.00000000000E+00 0.  1.
</event>
<event>
 7    1  0.2690635E-009  0.8737344E+02  0.7561462E-02  0.1309340E+00
         -2   -1    0    0    0  501 -0.00000000000E+00  0.00000000000E+00  0.11246045863E+03  0.11246045863E+03  0.00000000000E+00 0. -1.
          2   -1    0    0  501    0  0.00000000000E+00 -0.00000000000E+00 -0.12996749482E+03  0.12996749482E+03  0.00000000000E+00 0.  1.
         25    2    1    2    0    0 -0.51332292445E+01 -0.48824986002E+02 -0.21973937050E+02  0.13616254116E+03  0.12508858622E+03 0.  0.
          5    1    3    3  502    0 -0.52874019644E+02 -0.45813929447E+02  0.19462092010E+02  0.72738047197E+02  0.41800000000E+01 0.  1.
         -5    1    3    3    0  502  0.47740790399E+02 -0.30110565548E+01 -0.41436029060E+02  0.63424493958E+02  0.41800000000E+01 0.  1.
        -11    1    1    2    0    0  0.13118330627E+02  0.87232190873E+01 -0.41710640867E+02  0.44586575460E+02  0.00000000000E+00 0.  1.
         11    1    1    2    0    0 -0.79851013828E+01  0.40101766915E+02  0.46177541727E+02  0.61678836838E+02  0.00000000000E+00 0. -1.
</event>
<event>
 7    1  0.2690635E-009  0.1126185E+03  0.7561462E-02  0.1255796E+00
         -2   -1    0    0    0  501 -0.00000000000E+00  0.00000000000E+00  0.30733623671E+02  0.30733623671E+02  0.00000000000E+00 0.  1.
          2   -1    0    0  501    0  0.00000000000E+00 -0.00000000000E+00 -0.61618751961E+03  0.61618751961E+03  0.00000000000E+00 0. -1.
         25    2    1    2    0    0  0.56657231047E+01 -0.73501267545E+02 -0.26535341557E+03  0.30247934300E+03  0.12508709381E+03 0.  0.
          5    1    3    3  502    0  0.56606883476E+01 -0.87986790472E+02 -0.27202883337E+03  0.28599104405E+03  0.41800000000E+01 0. -1.
         -5    1    3    3    0  502  0.50347570764E-02  0.14485522927E+02  0.66754177958E+01  0.16488298959E+02  0.41800000000E+01 0. -1.
        -11    1    1    2    0    0  0.26842566757E+02  0.83638612755E+02 -0.18037441433E+03  0.20062619540E+03  0.00000000000E+00 0.  1.
         11    1    1    2    0    0 -0.32508289862E+02 -0.10137345210E+02 -0.13972606604E+03  0.14381560488E+03  0.00000000000E+00 0. -1.
</event>
<event>
 7    1  0.2690635E-009  0.1067061E+03  0.7561462E-02  0.1266794E+00
          1   -1    0    0  501    0  0.00000000000E+00  0.00000000000E+00  0.43107741088E+03  0.43107741088E+03  0.00000000000E+00 0. -1.
         -1   -1    0    0    0  501 -0.00000000000E+00 -0.00000000000E+00 -0.30017391747E+02  0.30017391747E+02  0.00000000000E+00 0.  1.
         25    2    1    2    0    0  0.33360572158E+02  0.81518255098E+01  0.21700267615E+03  0.25281790365E+03  0.12508937171E+03 0.  0.
          5    1    3    3  502    0  0.78660665063E+02  0.68322684535E+01  0.16948515875E+03  0.18702104576E+03  0.41800000000E+01 0. -1.
         -5    1    3    3    0  502 -0.45300092905E+02  0.13195570563E+01  0.47517517395E+02  0.65796857884E+02  0.41800000000E+01 0. -1.
        -11    1    1    2    0    0 -0.22310688370E+02 -0.45073742791E+02  0.14470480983E+03  0.15319559750E+03  0.00000000000E+00 0. -1.
         11    1    1    2    0    0 -0.11049883788E+02  0.36921917282E+02  0.39352533158E+02  0.55081301487E+02  0.00000000000E+00 0.  1.
</event>
<event>
 7    1  0.2690635E-009  0.8961189E+02  0.7561462E-02  0.1303794E+00
          1   -1    0    0  501    0  0.00000000000E+00  0.00000000000E+00  0.28063551129E+02  0.28063551129E+02  0.00000000000E+00 0. -1.
         -1   -1    0    0    0  501 -0.00000000000E+00 -0.00000000000E+00 -0.43947576124E+03  0.43947576124E+03  0.00000000000E+00 0.  1.
         25    2    1    2    0    0  0.25221653402E+02 -0.67581395769E+01 -0.21351315070E+03  0.24883437560E+03  0.12509547039E+03 0.  0.
          5    1    3    3  502    0 -0.33892936504E+02 -0.38904284373E+02 -0.13910779702E+03  0.14842751119E+03  0.41800000000E+01 0. -1.
         -5    1    3    3    0  502  0.59114589907E+02  0.32146144796E+02 -0.74405353676E+02  0.10040686441E+03  0.41800000000E+01 0. -1.
        -11    1    1    2    0    0  0.16219683565E+02 -0.49789659164E+01 -0.83325858107E+00  0.16987129140E+02  0.00000000000E+00 0. -1.
         11    1    1    2    0    0 -0.41441336968E+02  0.11737105493E+02 -0.19706580084E+03  0.20171780763E+03  0.00000000000E+00 0.  1.
</event>
<event>
 7    1  0.2690635E-009  0.1063471E+03  0.7561462E-02  0.1267488E+00
         -2   -1    0    0    0  501 -0.00000000000E+00  0.00000000000E+00  0.53227176950E+03  0.53227176950E+03  0.00000000000E+00 0.  1.
          2   -1    0    0  501    0  0.00000000000E+00 -0.00000000000E+00 -0.39439797237E+02  0.39439797237E+02  0.00000000000E+00 0. -1.
         25    2    1    2    0    0 -0.34614032880E+02  0.53597436570E+02  0.41107185610E+03  0.43439417166E+03  0.12508960396E+03 0.  0.
          5    1    3    3  502    0  0.10718732289E+02  0.61823193990E+02  0.88757360984E+02  0.10877656028E+03  0.41800000000E+01 0.  1.
         -5    1    3    3    0  502 -0.45332765169E+02 -0.82257574200E+01  0.32231449511E+03  0.32561761138E+03  0.41800000000E+01 0.  1.
        -11    1    1    2    0    0  0.13061560130E+02  0.21644142661E+02  0.16711963379E+01  0.25335077694E+02  0.00000000000E+00 0.  1.
         11    1    1    2    0    0  0.21552472750E+02 -0.75241579231E+02  0.80088919830E+02  0.11198231738E+03  0.00000000000E+00 0. -1.
</event>
<event>
 7    1  0.2690635E-009  0.1338012E+03  0.7561462E-02  0.1221922E+00
          1   -1    0    0  501    0  0.00000000000E+00  0.00000000000E+00  0.40379340079E+02  0.40379340079E+02  0.00000000000E+00 0. -1.
         -1   -1    0    0    0  501 -0.00000000000E+00 -0.00000000000E+00 -0.51056263093E+03  0.51056263093E+03  0.00000000000E+00 0.  1.
         25    2    1    2    0    0  0.25549820753E+01  0.88546755134E+02 -0.22191577325E+03  0.26970677540E+03  0.12509227995E+03 0.  0.
          5    1    3    3  502    0 -0.31846345457E+02  0.97136352501E+02 -0.10152483594E+03  0.14413335981E+03  0.41800000000E+01 0.  1.
         -5    1    3    3    0  502  0.34401327533E+02 -0.85895973667E+01 -0.12039093730E+03  0.12557341559E+03  0.41800000000E+01 0.  1.
        -11    1    1    2    0    0 -0.44998434960E+02 -0.70126280790E+02 -0.13197864373E+03  0.15607984113E+03  0.00000000000E+00 0.  1.
         11    1    1    2    0    0  0.42443452884E+02 -0.18420474344E+02 -0.11628887387E+03  0.12515535447E+03  0.00000000000E+00 0. -1.
</event>
<event>
 7    1  0.2690635E-009  0.9622363E+02  0.7561462E-02  0.1288444E+00
          1   -1    0    0  501    0  0.00000000000E+00  0.00000000000E+00  0.86253596535E+02  0.86253596535E+02  0.00000000000E+00 0. -1.
         -1   -1    0    0    0  501 -0.00000000000E+00 -0.00000000000E+00 -0.18765775421E+03  0.18765775421E+03  0.00000000000E+00 0.  1.
         25    2    1    2    0    0  0.41460372757E+02 -0.36627632573E+02 -0.17098264756E+02  0.13784279512E+03  0.12509092506E+03 0.  0.
          5    1    3    3  502    0  0.40717710785E+02 -0.81028089311E+02 -0.20649622415E+02  0.93098670962E+02  0.41800000000E+01 0. -1.
         -5    1    3    3    0  502  0.74266197217E+00  0.44400456738E+02  0.35513576591E+01  0.44744124157E+02  0.41800000000E+01 0. -1.
        -11    1    1    2    0    0 -0.99426900364E+01  0.18200829170E+01  0.19595635458E+02  0.22049007143E+02  0.00000000000E+00 0. -1.
         11    1    1    2    0    0 -0.31517682721E+02  0.34807549656E+02 -0.10390152837E+03  0.11401954848E+03  0.00000000000E+00 0.  1.
</event>
<event>
 7    1  0.2690635E-009  0.8763967E+02  0.7561462E-02  0.1308670E+00
          1   -1    0    0  501    0  0.00000000000E+00  0.00000000000E+00  0.62270621893E+03  0.62270621893E+03  0.00000000000E+00 0. -1.
         -1   -1    0    0    0  501 -0.00000000000E+00 -0.00000000000E+00 -0.21126021420E+02  0.21126021420E+02  0.00000000000E+00 0.  1.
         25    2    1    2    0    0  0.21918074439E+02  0.91805414237E+01  0.39836282418E+03  0.41821649847E+03  0.12508963018E+03 0.  0.
          5    1    3    3  502    0 -0.23955415972E+02  0.26790448661E+02  0.33951515105E+03  0.34143754961E+03  0.41800000000E+01 0.  1.
         -5    1    3    3    0  502  0.45873490410E+02 -0.17609907237E+02  0.58847673134E+02  0.76778948863E+02  0.41800000000E+01 0.  1.
        -11    1    1    2    0    0 -0.55414129917E+02 -0.98396249929E+01  0.79252052973E+02  0.97203044782E+02  0.00000000000E+00 0.  1.
         11    1    1    2    0    0  0.33496055478E+02  0.65908356921E+00  0.12396532036E+03  0.12841269709E+03  0.00000000000E+00 0. -1.
</event>
<event>
 7    1  0.2690635E-009  0.2069119E+03  0.7561462E-02  0.1144035E+00
          1   -1    0    0  501    0  0.00000000000E+00  0.00000000000E+00  0.12323844318E+03  0.12323844318E+03  0.00000000000E+00 0. -1.
         -1   -1    0    0    0  501 -0.00000000000E+00 -0.00000000000E+00 -0.44644677619E+03  0.44644677619E+03  0.00000000000E+00 0.  1.
         25    2    1    2    0    0 -0.45813560909E+02  0.17823891732E+03 -0.50471833301E+02  0.22817344341E+03  0.12509084823E+03 0.  0.
          5    1    3    3  502    0  0.46063948802E+01 -0.11906260305E+02  0.15626752812E+02  0.20606933583E+02  0.41800000000E+01 0.  1.
         -5    1    3    3    0  502 -0.50419955789E+02  0.19014517763E+03 -0.66098586114E+02  0.20756650983E+03  0.41800000000E+01 0.  1.
        -11    1    1    2    0    0  0.23796482223E+02  0.24033196752E+00 -0.18700786138E+02  0.30266313417E+02  0.00000000000E+00 0. -1.
         11    1    1    2    0    0  0.22017078686E+02 -0.17847924929E+03 -0.25403571357E+03  0.31124546254E+03  0.00000000000E+00 0.  1.
</event>
<event>
 7    1  0.2690635E-009  0.2101794E+03  0.7561462E-02  0.1141424E+00
          1   -1    0    0  501    0  0.00000000000E+00  0.00000000000E+00  0.78885384047E+02  0.78885384047E+02  0.00000000000E+00 0. -1.
         -1   -1    0    0    0  501 -0.00000000000E+00 -0.00000000000E+00 -0.62991284999E+03  0.62991284999E+03  0.00000000000E+00 0.  1.
         25    2    1    2    0    0  0.11328682430E+03  0.14496975489E+03 -0.38918135452E+03  0.44828541974E+03  0.12509019326E+03 0.  0.
          5    1    3    3  502    0 -0.96266922869E+01 -0.12581092827E+02 -0.68383855937E+02  0.70319138603E+02  0.41800000000E+01 0. -1.
         -5    1    3    3    0  502  0.12291351659E+03  0.15755084772E+03 -0.32079749858E+03  0.37796628113E+03  0.41800000000E+01 0. -1.
        -11    1    1    2    0    0 -0.45239915267E+02 -0.14396121333E+01 -0.37842107318E+02  0.58997860154E+02  0.00000000000E+00 0. -1.
         11    1    1    2    0    0 -0.68046909036E+02 -0.14353014276E+03 -0.12400400411E+03  0.20151495415E+03  0.00000000000E+00 0.  1.
</event>
<event>
 7    1  0.2690635E-009  0.6437119E+02  0.7561462E-02  0.1380353E+00
         -1   -1    0    0    0  501 -0.00000000000E+00  0.00000000000E+00  0.28330568424E+02  0.28330568424E+02  0.00000000000E+00 0.  1.
          1   -1    0    0  501    0  0.00000000000E+00 -0.00000000000E+00 -0.47546329521E+03  0.47546329521E+03  0.00000000000E+00 0. -1.
         25    2    1    2    0    0  0.19044814074E+02  0.13319069713E+02 -0.19466382282E+03  0.23254767822E+03  0.12507724081E+03 0.  0.
          5    1    3    3  502    0  0.17687236157E+02  0.21110305796E+02  0.85488112677E+01  0.29138255057E+02  0.41800000000E+01 0. -1.
         -5    1    3    3    0  502  0.13575779174E+01 -0.77912360828E+01 -0.20321263409E+03  0.20340942316E+03  0.41800000000E+01 0. -1.
        -11    1    1    2    0    0 -0.65937576590E+01  0.38288820818E+02 -0.59139336659E+02  0.70759964529E+02  0.00000000000E+00 0.  1.
         11    1    1    2    0    0 -0.12451056415E+02 -0.51607890531E+02 -0.19332956731E+03  0.20048622089E+03  0.00000000000E+00 0. -1.
</event>
<event>
 7    1  0.2690635E-009  0.1138624E+03  0.7561462E-02  0.1253580E+00
          1   -1    0    0  501    0  0.00000000000E+00  0.00000000000E+00  0.15830342946E+04  0.15830342946E+04  0.00000000000E+00 0. -1.
         -1   -1    0    0    0  501 -0.00000000000E+00 -0.00000000000E+00 -0.13497538656E+02  0.13497538656E+02  0.00000000000E+00 0.  1.
         25    2    1    2    0    0  0.42382483969E+02 -0.43796082560E+02  0.12689304381E+04  0.12765367210E+04  0.12508865428E+03 0.  0.
          5    1    3    3  502    0  0.71033461853E+02  0.58606361378E+01  0.45381721471E+03  0.45939921258E+03  0.41800000000E+01 0. -1.
         -5    1    3    3    0  502 -0.28650977884E+02 -0.49656718698E+02  0.81511322342E+03  0.81713750840E+03  0.41800000000E+01 0. -1.
        -11    1    1    2    0    0  0.23091507731E+02  0.12864377125E+02  0.15651718698E+03  0.15873354954E+03  0.00000000000E+00 0. -1.
         11    1    1    2    0    0 -0.65473991700E+02  0.30931705434E+02  0.14408913086E+03  0.16126156276E+03  0.00000000000E+00 0.  1.
</event>
<event>
 7    1  0.2690635E-009  0.1127245E+03  0.7561462E-02  0.1255606E+00
          2   -1    0    0  501    0  0.00000000000E+00  0.00000000000E+00  0.41051360997E+03  0.41051360997E+03  0.00000000000E+00 0. -1.
         -2   -1    0    0    0  501 -0.00000000000E+00 -0.00000000000E+00 -0.39286143472E+02  0.39286143472E+02  0.00000000000E+00 0.  1.
         25    2    1    2    0    0  0.14801269710E+02 -0.61259549734E+02  0.15218661172E+03  0.20683454981E+03  0.12509179106E+03 0.  0.
          5    1    3    3  502    0 -0.40083371825E+02  0.15177072667E+02  0.29674352057E+02  0.52297799205E+02  0.41800000000E+01 0.  1.
         -5    1    3    3    0  502  0.54884641535E+02 -0.76436622401E+02  0.12251225967E+03  0.15453675061E+03  0.41800000000E+01 0.  1.
        -11    1    1    2    0    0 -0.36644807919E+02  0.53830792404E+02  0.85652861073E+02  0.10759650909E+03  0.00000000000E+00 0.  1.
         11    1    1    2    0    0  0.21843538210E+02  0.74287573298E+01  0.13338799370E+03  0.13536869454E+03  0.00000000000E+00 0. -1.
</event>
<event>
 7    1  0.2690635E-009  0.9231690E+02  0.7561462E-02  0.1297336E+00
         -1   -1    0    0    0  501 -0.00000000000E+00  0.00000000000E+00  0.33422572775E+02  0.33422572775E+02  0.00000000000E+00 0.  1.
          1   -1    0    0  501    0  0.00000000000E+00 -0.00000000000E+00 -0.42850290924E+03  0.42850290924E+03  0.00000000000E+00 0. -1.
         25    2    1    2    0    0 -0.39405972002E+02 -0.21986599225E+02 -0.16199129112E+03  0.20958222709E+03  0.12508912957E+03 0.  0.
          5    1    3    3  502    0  0.16079846793E+02  0.17671215934E+02 -0.13327472494E+03  0.13546386254E+03  0.41800000000E+01 0. -1.
         -5    1    3    3    0  502 -0.55485818795E+02 -0.39657815160E+02 -0.28716566185E+02  0.74118364553E+02  0.41800000000E+01 0. -1.
        -11    1    1    2    0    0 -0.24955895198E+02  0.77540528455E+01 -0.10603554963E+03  0.10920833222E+03  0.00000000000E+00 0. -1.
         11    1    1    2    0    0  0.64361867199E+02  0.14232546380E+02 -0.12705349571E+03  0.14313492271E+03  0.00000000000E+00 0.  1.
</event>
<event>
 7    1  0.2690635E-009  0.1221959E+03  0.7561462E-02  0.1239518E+00
          3   -1    0    0  501    0  0.00000000000E+00  0.00000000000E+00  0.25332828384E+03  0.25332828384E+03  0.00000000000E+00 0. -1.
         -3   -1    0    0    0  501 -0.00000000000E+00 -0.00000000000E+00 -0.77916402687E+02  0.77916402687E+02  0.00000000000E+00 0.  1.
         25    2    1    2    0    0  0.67475095925E+02 -0.26488144619E+02  0.35759559907E+02  0.14893037633E+03  0.12508797101E+03 0.  0.
          5    1    3    3  502    0  0.85836604553E+02  0.23494803448E+02  0.10065163796E+02  0.89658844474E+02  0.41800000000E+01 0.  1.
         -5    1    3    3    0  502 -0.18361508628E+02 -0.49982948067E+02  0.25694396112E+02  0.59271531852E+02  0.41800000000E+01 0.  1.
        -11    1    1    2    0    0 -0.71851985202E+02 -0.31563021112E+01  0.13362136334E+03  0.15174761534E+03  0.00000000000E+00 0. -1.
         11    1    1    2    0    0  0.43768892769E+01  0.29644446730E+02  0.60309579102E+01  0.30566694865E+02  0.00000000000E+00 0.  1.
</event>
<event>
 7    1  0.2690635E-009  0.1221685E+03  0.7561462E-02  0.1239562E+00
         -1   -1    0    0    0  501 -0.00000000000E+00  0.00000000000E+00  0.23588530761E+02  0.23588530761E+02  0.00000000000E+00 0.  1.
          1   -1    0    0  501    0  0.00000000000E+00 -0.00000000000E+00 -0.67190717151E+03  0.67190717151E+03  0.00000000000E+00 0. -1.
         25    2    1    2    0    0  0.22008866803E+02  0.57090084758E+02 -0.31971641335E+03  0.34872348480E+03  0.12508323585E+03 0.  0.
          5    1    3    3  502    0  0.31572036423E+02  0.91970135613E+02 -0.18335964429E+03  0.20758981401E+03  0.41800000000E+01 0. -1.
         -5    1    3    3    0  502 -0.95631696200E+01 -0.34880050855E+02 -0.13635676906E+03  0.14113367079E+03  0.41800000000E+01 0. -1.
        -11    1    1    2    0    0  0.16072486094E+02 -0.68884593539E+02 -0.20062399688E+03  0.21272846579E+03  0.00000000000E+00 0. -1.
         11    1    1    2    0    0 -0.38081352896E+02  0.11794508781E+02 -0.12797823052E+03  0.13404375168E+03  0.00000000000E+00 0.  1.
</event>
<event>
 7    1  0.2690635E-009  0.1009290E+03  0.7561462E-02  0.1278354E+00
          2   -1    0    0  501    0  0.00000000000E+00  0.00000000000E+00  0.24387902131E+03  0.24387902131E+03  0.00000000000E+00 0. -1.
         -2   -1    0    0    0  501 -0.00000000000E+00 -0.00000000000E+00 -0.64016056856E+02  0.64016056856E+02  0.00000000000E+00 0.  1.
         25    2    1    2    0    0 -0.16264600491E+02  0.33793161165E+02  0.16131008552E+03  0.20754457593E+03  0.12508913755E+03 0.  0.
          5    1    3    3  502    0 -0.52395761733E+02 -0.21404032412E+02  0.11031266603E+03  0.12405565339E+03  0.41800000000E+01 0. -1.
         -5    1    3    3    0  502  0.36131161242E+02  0.55197193576E+02  0.50997419495E+02  0.83488922538E+02  0.41800000000E+01 0. -1.
        -11    1    1    2    0    0  0.40591635061E+02 -0.36417060467E+02 -0.17062276374E+02  0.57140217054E+02  0.00000000000E+00 0.  1.
         11    1    1    2    0    0 -0.24327034570E+02  0.26238993022E+01  0.35615155309E+02  0.43210285190E+02  0.00000000000E+00 0. -1.
</event>
<event>
 7    1  0.2690635E-009  0.1369470E+03  0.7561462E-02  0.1217497E+00
          1   -1    0    0  501    0  0.00000000000E+00  0.00000000000E+00  0.37208122320E+03  0.37208122320E+03  0.00000000000E+00 0. -1.
         -1   -1    0    0    0  501 -0.00000000000E+00 -0.00000000000E+00 -0.67385342738E+02  0.67385342738E+02  0.00000000000E+00 0.  1.
         25    2    1    2    0    0  0.77748346047E+02  0.73832062598E+02  0.10584434930E+03  0.19583188615E+03  0.12510444666E+03 0.  0.
          5    1    3    3  502    0  0.10777786804E+03  0.77652541213E+02  0.75911773637E+02  0.15305572767E+03  0.41800000000E+01 0.  1.
         -5    1    3    3    0  502 -0.30029521998E+02 -0.38204786144E+01  0.29932575665E+02  0.42776158479E+02  0.41800000000E+01 0.  1.
        -11    1    1    2    0    0 -0.45363110149E+02 -0.24885250727E+02  0.17102741529E+03  0.17868257958E+03  0.00000000000E+00 0. -1.
         11    1    1    2    0    0 -0.32385235898E+02 -0.48946811872E+02  0.27824115870E+02  0.64952100201E+02  0.00000000000E+00 0.  1.
</event>
<event>
 7    1  0.2690635E-009  0.2147970E+03  0.7561462E-02  0.1137823E+00
          2   -1    0    0  501    0  0.00000000000E+00  0.00000000000E+00  0.16544108423E+04  0.16544108423E+04  0.00000000000E+00 0.  1.
         -2   -1    0    0    0  501 -0.00000000000E+00 -0.00000000000E+00 -0.34800315076E+02  0.34800315076E+02  0.00000000000E+00 0. -1.
         25    2    1    2    0    0  0.18950330168E+03 -0.70184739890E+02  0.10763677500E+04  0.11022941053E+04  0.12508941709E+03 0.  0.
          5    1    3    3  502    0  0.10424943944E+03  0.12276266303E+02  0.69473854248E+03  0.70263629791E+03  0.41800000000E+01 0.  1.
         -5    1    3    3    0  502  0.85253862241E+02 -0.82461006193E+02  0.38162920753E+03  0.39965780740E+03  0.41800000000E+01 0.  1.
        -11    1    1    2    0    0 -0.13375746869E+03  0.68047859369E+02  0.27849869960E+03  0.31635912706E+03  0.00000000000E+00 0. -1.
         11    1    1    2    0    0 -0.55745832994E+02  0.21368805210E+01  0.26474407761E+03  0.27055792501E+03  0.00000000000E+00 0.  1.
</event>
<event>
 7    1  0.2690635E-009  0.9237848E+02  0.7561462E-02  0.1297192E+00
         -1   -1    0    0    0  501 -0.00000000000E+00  0.00000000000E+00  0.28339622838E+03  0.28339622838E+03  0.00000000000E+00 0.  1.
          1   -1    0    0  501    0  0.00000000000E+00 -0.00000000000E+00 -0.51860743508E+02  0.51860743508E+02  0.00000000000E+00 0. -1.
         25    2    1    2    0    0 -0.30213637416E+02 -0.35470538455E+01  0.19217367928E+03  0.23130548578E+03  0.12508420871E+03 0.  0.
          5    1    3    3  502    0 -0.54818098431E+02  0.45705468337E+02  0.87798845377E+02  0.11322598377E+03  0.41800000000E+01 0. -1.
         -5    1    3    3    0  502  0.24604461014E+02 -0.49252522182E+02  0.10437483390E+03  0.11807950201E+03  0.41800000000E+01 0. -1.
        -11    1    1    2    0    0 -0.13060881076E+02 -0.49121044017E+01  0.55324760787E+02  0.57057379367E+02  0.00000000000E+00 0.  1.
         11    1    1    2    0    0  0.43274518493E+02  0.84591582472E+01 -0.15962955188E+02  0.46894106744E+02  0.00000000000E+00 0. -1.
</event>
<event>
 7    1  0.2690635E-009  0.1177651E+03  0.7561462E-02  0.1246830E+00
         -1   -1    0    0    0  501 -0.00000000000E+00  0.00000000000E+00  0.33557064186E+03  0.33557064186E+03  0.00000000000E+00 0.  1.
          1   -1    0    0  501    0  0.00000000000E+00 -0.00000000000E+00 -0.11526066549E+03  0.11526066549E+03  0.00000000000E+00 0. -1.
         25    2    1    2    0    0  0.94436931843E+02 -0.58554146193E+01  0.26935390675E+03  0.31169144579E+03  0.12508960916E+03 0.  0.
          5    1    3    3  502    0  0.10050170997E+03  0.28318836063E+02  0.12384525289E+03  0.16204218354E+03  0.41800000000E+01 0. -1.
         -5    1    3    3    0  502 -0.60647781240E+01 -0.34174250682E+02  0.14550865387E+03  0.14964926226E+03  0.41800000000E+01 0. -1.
        -11    1    1    2    0    0 -0.54999366203E+02 -0.48346163135E+01  0.20156981586E+02  0.58775910919E+02  0.00000000000E+00 0.  1.
         11    1    1    2    0    0 -0.39437565640E+02  0.10690030933E+02 -0.69200911971E+02  0.80363950641E+02  0.00000000000E+00 0. -1.
</event>
<event>
 7    1  0.2690635E-009  0.9056101E+02  0.7561462E-02  0.1301499E+00
          2   -1    0    0  501    0  0.00000000000E+00  0.00000000000E+00  0.16678766327E+03  0.16678766327E+03  0.00000000000E+00 0. -1.
         -2   -1    0    0    0  501 -0.00000000000E+00 -0.00000000000E+00 -0.11621951572E+03  0.11621951572E+03  0.00000000000E+00 0.  1.
         25    2    1    2    0    0 -0.36656735203E+02 -0.43991651130E+02  0.90755219186E+02  0.16481145098E+03  0.12508925997E+03 0.  0.
          5    1    3    3  502    0 -0.45710543068E+02 -0.45462011407E+01 -0.17367338817E+02  0.49287103282E+02  0.41800000000E+01 0. -1.
         -5    1    3    3    0  502  0.90538078642E+01 -0.39445449989E+02  0.10812255800E+03  0.11552434770E+03  0.41800000000E+01 0. -1.
        -11    1    1    2    0    0  0.27553158825E+02  0.65442903972E+02  0.84101387451E+00  0.71011671899E+02  0.00000000000E+00 0. -1.
         11    1    1    2    0    0  0.91035763784E+01 -0.21451252842E+02 -0.41028085502E+02  0.47184056113E+02  0.00000000000E+00 0.  1.
</event>
<event>
 7    1  0.2690635E-009  0.1723368E+03  0.7561462E-02  0.1175433E+00
          3   -1    0    0  501    0  0.00000000000E+00  0.00000000000E+00  0.12980876933E+03  0.12980876933E+03  0.00000000000E+00 0. -1.
         -3   -1    0    0    0  501 -0.00000000000E+00 -0.00000000000E+00 -0.54124866359E+03  0.54124866359E+03  0.00000000000E+00 0.  1.
         25    2    1    2    0    0 -0.12395249546E+03  0.98777894214E+02  0.18607644694E+02  0.20277723568E+03  0.12510423396E+03 0.  0.
          5    1    3    3  502    0  0.92718033953E+01  0.48159633310E+01 -0.30462730587E+02  0.32474762444E+02  0.41800000000E+01 0. -1.
         -5    1    3    3    0  502 -0.13322429886E+03  0.93961930883E+02  0.49070375281E+02  0.17030247324E+03  0.41800000000E+01 0. -1.
        -11    1    1    2    0    0  0.32870982041E+02 -0.65653803884E+02 -0.28145658747E+03  0.29087580521E+03  0.00000000000E+00 0.  1.
         11    1    1    2    0    0  0.91081513421E+02 -0.33124090330E+02 -0.14859095149E+03  0.17740439203E+03  0.00000000000E+00 0. -1.
</event>
<event>
 7    1  0.2690635E-009  0.2787716E+03  0.7561462E-02  0.1096362E+00
          1   -1    0    0  501    0  0.00000000000E+00  0.00000000000E+00  0.32892350077E+03  0.32892350077E+03  0.00000000000E+00 0. -1.
         -1   -1    0    0    0  501 -0.00000000000E+00 -0.00000000000E+00 -0.24950968552E+03  0.24950968552E+03  0.00000000000E+00 0.  1.
         25    2    1    2    0    0  0.16970707633E+03 -0.19899518113E+03  0.84824897631E+02  0.30206308313E+03  0.12508904455E+03 0.  0.
          5    1    3    3  502    0  0.94158653444E+02 -0.34593208137E+02 -0.39652101485E+01  0.10047754654E+03  0.41800000000E+01 0. -1.
         -5    1    3    3    0  502  0.75548422886E+02 -0.16440197299E+03  0.88790107779E+02  0.20158553659E+03  0.41800000000E+01 0. -1.
        -11    1    1    2    0    0 -0.70737911627E+02  0.23233621418E+02 -0.55170207495E+01  0.74659834071E+02  0.00000000000E+00 0. -1.
         11    1    1    2    0    0 -0.98969164703E+02  0.17576155971E+03  0.10593837234E+00  0.20171026909E+03  0.00000000000E+00 0.  1.
</event>
<event>
 7    1  0.2690635E-009  0.1732443E+03  0.7561462E-02  0.1174506E+00
          1   -1    0    0  501    0  0.00000000000E+00  0.00000000000E+00  0.68311893390E+02  0.68311893390E+02  0.00000000000E+00 0. -1.
         -1   -1    0    0    0  501 -0.00000000000E+00 -0.00000000000E+00 -0.58713260855E+03  0.58713260855E+03  0.00000000000E+00 0.  1.
         25    2    1    2    0    0 -0.12203759969E+03  0.66152225687E+02 -0.42658645854E+03  0.46571740867E+03  0.12508958961E+03 0.  0.
          5    1    3    3  502    0 -0.58872913777E+02  0.95879700740E+02 -0.21230120947E+03  0.24030857857E+03  0.41800000000E+01 0. -1.
         -5    1    3    3    0  502 -0.63164685915E+02 -0.29727475054E+02 -0.21428524907E+03  0.22540883010E+03  0.41800000000E+01 0. -1.
        -11    1    1    2    0    0 -0.11437521312E+02 -0.19431383824E+02 -0.36072950682E+01  0.22834363332E+02  0.00000000000E+00 0.  1.
         11    1    1    2    0    0  0.13347512100E+03 -0.46720841863E+02 -0.88626961548E+02  0.16689272993E+03  0.00000000000E+00 0. -1.
</event>
<event>
 7    1  0.2690635E-009  0.1054394E+03  0.7561462E-02  0.1269256E+00
          2   -1    0    0  501    0  0.00000000000E+00  0.00000000000E+00  0.86647070327E+02  0.86647070327E+02  0.00000000000E+00 0. -1.
         -2   -1    0    0    0  501 -0.00000000000E+00 -0.00000000000E+00 -0.16547935300E+03  0.16547935300E+03  0.00000000000E+00 0.  1.
         25    2    1    2    0    0  0.26095172473E+02 -0.14443023336E+02  0.21267407082E+01  0.12861378128E+03  0.12508965889E+03 0.  0.
          5    1    3    3  502    0  0.84393242630E+01 -0.64352288379E+02 -0.24133171925E+02  0.69370898803E+02  0.41800000000E+01 0. -1.
         -5    1    3    3    0  502  0.17655848210E+02  0.49909265043E+02  0.26259912633E+02  0.59242882481E+02  0.41800000000E+01 0. -1.
        -11    1    1    2    0    0  0.25590935479E+02 -0.18380924682E+02 -0.21349004321E+02  0.38059615819E+02  0.00000000000E+00 0.  1.
         11    1    1    2    0    0 -0.51686107951E+02  0.32823948018E+02 -0.59610019062E+02  0.85453026226E+02  0.00000000000E+00 0. -1.
</event>
<event>
 7    1  0.2690635E-009  0.1279508E+03  0.7561462E-02  0.1230528E+00
         -2   -1    0    0    0  501 -0.00000000000E+00  0.00000000000E+00  0.12343997438E+03  0.12343997438E+03  0.00000000000E+00 0.  1.
          2   -1    0    0  501    0  0.00000000000E+00 -0.00000000000E+00 -0.13591040027E+03  0.13591040027E+03  0.00000000000E+00 0. -1.
         25    2    1    2    0    0  0.14482846533E+02  0.67535916454E+02 -0.26128015338E+02  0.14526210884E+03  0.12509018436E+03 0.  0.
          5    1    3    3  502    0  0.69935553985E+02  0.41406407030E+02 -0.17115033829E+02  0.83161704151E+02  0.41800000000E+01 0. -1.
         -5    1    3    3    0  502 -0.55452707452E+02  0.26129509424E+02 -0.90129815095E+01  0.62100404686E+02  0.41800000000E+01 0. -1.
        -11    1    1    2    0    0  0.36643138382E+02 -0.14489958653E+02  0.79190612949E+01  0.40191914909E+02  0.00000000000E+00 0.  1.
         11    1    1    2    0    0 -0.51125984915E+02 -0.53045957801E+02  0.57385281539E+01  0.73896350911E+02  0.00000000000E+00 0. -1.
</event>
<event>
 7    1  0.2690635E-009  0.1027486E+03  0.7561462E-02  0.1274620E+00
          2   -1    0    0  501    0  0.00000000000E+00  0.00000000000E+00  0.18817921658E+03  0.18817921658E+03  0.00000000000E+00 0. -1.
         -2   -1    0    0    0  501 -0.00000000000E+00 -0.00000000000E+00 -0.85042990550E+02  0.85042990550E+02  0.00000000000E+00 0.  1.
         25    2    1    2    0    0  0.37819619699E+02  0.37511244504E+02  0.10380424981E+03  0.17106043323E+03  0.12509569313E+03 0.  0.
          5    1    3    3  502    0  0.50415756525E+02 -0.34409782682E+02  0.60615889193E+02  0.86125141932E+02  0.41800000000E+01 0. -1.
         -5    1    3    3    0  502 -0.12596136825E+02  0.71921027186E+02  0.43188360616E+02  0.84935291293E+02  0.41800000000E+01 0. -1.
        -11    1    1    2    0    0 -0.48991290785E+02 -0.27517078144E+02 -0.33956911479E+02  0.65653697532E+02  0.00000000000E+00 0.  1.
         11    1    1    2    0    0  0.11171671086E+02 -0.99941663600E+01  0.33288887696E+02  0.36508076368E+02  0.00000000000E+00 0. -1.
</event>
<event>
 7    1  0.2690635E-009  0.9617448E+02  0.7561462E-02  0.1288553E+00
         -3   -1    0    0    0  501 -0.00000000000E+00  0.00000000000E+00  0.20510864732E+03  0.20510864732E+03  0.00000000000E+00 0.  1.
          3   -1    0    0  501    0  0.00000000000E+00 -0.00000000000E+00 -0.93657219791E+02  0.93657219791E+02  0.00000000000E+00 0. -1.
         25    2    1    2    0    0  0.17801066819E+02  0.82383294324E+02  0.73607596581E+02  0.16783829962E+03  0.12509089248E+03 0.  0.
          5    1    3    3  502    0 -0.10598943596E+02  0.14132599459E+02  0.90159567210E+02  0.91968950914E+02  0.41800000000E+01 0. -1.
         -5    1    3    3    0  502  0.28400010414E+02  0.68250694866E+02 -0.16551970629E+02  0.75869348705E+02  0.41800000000E+01 0. -1.
        -11    1    1    2    0    0  0.12088742294E+02 -0.63850499263E+02 -0.15711375618E+02  0.66857095885E+02  0.00000000000E+00 0. -1.
         11    1    1    2    0    0 -0.29889809113E+02 -0.18532795061E+02  0.53555206571E+02  0.64070471611E+02  0.00000000000E+00 0.  1.
</event>
<event>
 7    1  0.2766392E-009  0.2139077E+03  0.7561462E-02  0.1138508E+00
         -3   -1    0    0    0  501 -0.00000000000E+00  0.00000000000E+00  0.22746965676E+03  0.22746965676E+03  0.00000000000E+00 0.  1.
          3   -1    0    0  501    0  0.00000000000E+00 -0.00000000000E+00 -0.21688482452E+03  0.21688482452E+03  0.00000000000E+00 0. -1.
         25    2    1    2    0    0  0.18676905573E+03  0.42979247929E+02 -0.20901846185E+02  0.22981294048E+03  0.12508878649E+03 0.  0.
          5    1    3    3  502    0  0.32989158430E+02  0.60948371780E+02 -0.27772186597E+02  0.74778040527E+02  0.41800000000E+01 0. -1.
         -5    1    3    3    0  502  0.15377989730E+03 -0.17969123851E+02  0.68703404126E+01  0.15503489995E+03  0.41800000000E+01 0. -1.
        -11    1    1    2    0    0 -0.33638923596E+02 -0.37356246860E+02  0.35023245303E+02  0.61267398114E+02  0.00000000000E+00 0.  1.
         11    1    1    2    0    0 -0.15313013214E+03 -0.56230010694E+01 -0.35365668775E+01  0.15327414268E+03  0.00000000000E+00 0. -1.
</event>
<event>
 7    1  0.2690635E-009  0.1031568E+03  0.7561462E-02  0.1273794E+00
          2   -1    0    0  501    0  0.00000000000E+00  0.00000000000E+00  0.57510743006E+03  0.57510743006E+03  0.00000000000E+00 0. -1.
         -2   -1    0    0    0  501 -0.00000000000E+00 -0.00000000000E+00 -0.25013386408E+02  0.25013386408E+02  0.00000000000E+00 0.  1.
         25    2    1    2    0    0  0.46234078845E+02  0.21206687350E+02  0.28012455076E+03  0.31097986255E+03  0.12510554479E+03 0.  0.
          5    1    3    3  502    0  0.72721804425E+02  0.60337108551E+01  0.79461195229E+02  0.10796490380E+03  0.41800000000E+01 0. -1.
         -5    1    3    3    0  502 -0.26487725580E+02  0.15172976495E+02  0.20066335553E+03  0.20301495875E+03  0.41800000000E+01 0. -1.
        -11    1    1    2    0    0 -0.52181869135E+01 -0.51284561465E+02  0.11465721774E+03  0.12571242301E+03  0.00000000000E+00 0. -1.
         11    1    1    2    0    0 -0.41015891932E+02  0.30077874115E+02  0.15531227516E+03  0.16342853091E+03  0.00000000000E+00 0.  1.
</event>
<event>
 7    1  0.2690635E-009  0.1343055E+03  0.7561462E-02  0.1221203E+00
          2   -1    0    0  501    0  0.00000000000E+00  0.00000000000E+00  0.42063054515E+03  0.42063054515E+03  0.00000000000E+00 0. -1.
         -2   -1    0    0    0  501 -0.00000000000E+00 -0.00000000000E+00 -0.58338403473E+02  0.58338403473E+02  0.00000000000E+00 0.  1.
         25    2    1    2    0    0  0.10083923098E+03 -0.20658228964E+02  0.12402421332E+03  0.20401947518E+03  0.12508648141E+03 0.  0.
          5    1    3    3  502    0 -0.10873594733E+02  0.13950805791E+02  0.74947474187E+02  0.77119753188E+02  0.41800000000E+01 0.  1.
         -5    1    3    3    0  502  0.11171282572E+03 -0.34609034755E+02  0.49076739136E+02  0.12689972199E+03  0.41800000000E+01 0.  1.
        -11    1    1    2    0    0  0.13381314206E+02  0.13434335684E+02  0.15456793706E+02  0.24463307561E+02  0.00000000000E+00 0.  1.
         11    1    1    2    0    0 -0.11422054519E+03  0.72238932802E+01  0.22281113465E+03  0.25048616589E+03  0.00000000000E+00 0. -1.
</event>
<event>
 7    1  0.2690635E-009  0.1243703E+03  0.7561462E-02  0.1236057E+00
         -1   -1    0    0    0  501 -0.00000000000E+00  0.00000000000E+00  0.38440237143E+02  0.38440237143E+02  0.00000000000E+00 0.  1.
          1   -1    0    0  501    0  0.00000000000E+00 -0.00000000000E+00 -0.61166169115E+03  0.61166169115E+03  0.00000000000E+00 0. -1.
         25    2    1    2    0    0 -0.71257916481E+02 -0.21671065810E+02 -0.14273822143E+03  0.20388558523E+03  0.12509119175E+03 0.  0.
          5    1    3    3  502    0  0.27692123615E+02  0.89384341347E+01 -0.73679771511E+02  0.79327992821E+02  0.41800000000E+01 0. -1.
         -5    1    3    3    0  502 -0.98950040096E+02 -0.30609499944E+02 -0.69058449922E+02  0.12455759241E+03  0.41800000000E+01 0. -1.
        -11    1    1    2    0    0  0.51566603463E+02 -0.30505234554E+02 -0.26120460752E+03  0.26798793055E+03  0.00000000000E+00 0.  1.
         11    1    1    2    0    0  0.19691313018E+02  0.52176300364E+02 -0.16927862505E+03  0.17822841252E+03  0.00000000000E+00 0. -1.
</event>
<event>
 7    1  0.2690635E-009  0.1065801E+03  0.7561462E-02  0.1267037E+00
          3   -1    0    0  501    0  0.00000000000E+00  0.00000000000E+00  0.62539969850E+02  0.62539969850E+02  0.00000000000E+00 0. -1.
         -3   -1    0    0    0  501 -0.00000000000E+00 -0.00000000000E+00 -0.44880886056E+03  0.44880886056E+03  0.00000000000E+00 0.  1.
         25    2    1    2    0    0 -0.36040371621E+02  0.97767622751E+02 -0.93119259698E+02  0.18755179275E+03  0.12508821684E+03 0.  0.
          5    1    3    3  502    0 -0.26049467378E+02  0.48557308237E+02 -0.11878011668E+03  0.13100601304E+03  0.41800000000E+01 0.  1.
         -5    1    3    3    0  502 -0.99909042426E+01  0.49210314514E+02  0.25660856980E+02  0.56545779711E+02  0.41800000000E+01 0.  1.
        -11    1    1    2    0    0  0.39097361154E+02 -0.75389986624E+02 -0.28849735236E+03  0.30073738718E+03  0.00000000000E+00 0.  1.
         11    1    1    2    0    0 -0.30569895327E+01 -0.22377636127E+02 -0.46522786580E+01  0.23059650482E+02  0.00000000000E+00 0. -1.
</event>
<event>
 7    1  0.2690635E-009  0.1290508E+03  0.7561462E-02  0.1228871E+00
         -2   -1    0    0    0  501 -0.00000000000E+00  0.00000000000E+00  0.27462496280E+02  0.27462496280E+02  0.00000000000E+00 0.  1.
          2   -1    0    0  501    0  0.00000000000E+00 -0.00000000000E+00 -0.61505992168E+03  0.61505992168E+03  0.00000000000E+00 0. -1.
         25    2    1    2    0    0  0.47343933668E+02  0.52658265567E+02 -0.33918654289E+03  0.36838630627E+03  0.12508644525E+03 0.  0.
          5    1    3    3  502    0  0.89058573908E+02  0.48725748597E+02 -0.23640937114E+03  0.25731787992E+03  0.41800000000E+01 0.  1.
         -5    1    3    3    0  502 -0.41714640240E+02  0.39325169696E+01 -0.10277717175E+03  0.11106842635E+03  0.41800000000E+01 0.  1.
        -11    1    1    2    0    0  0.16350005221E+02 -0.47792482948E+02 -0.87880303119E+02  0.10136267446E+03  0.00000000000E+00 0.  1.
         11    1    1    2    0    0 -0.63693938888E+02 -0.48657826181E+01 -0.16053057939E+03  0.17277343723E+03  0.00000000000E+00 0. -1.
</event>
<event>
 7    1  0.2690635E-009  0.8618918E+02  0.7561462E-02  0.1312352E+00
         -1   -1    0    0    0  501 -0.00000000000E+00  0.00000000000E+00  0.15702054139E+03  0.15702054139E+03  0.00000000000E+00 0. -1.
          1   -1    0    0  501    0  0.00000000000E+00 -0.00000000000E+00 -0.77287330808E+02  0.77287330808E+02  0.00000000000E+00 0.  1.
         25    2    1    2    0    0  0.11213683522E+02  0.60105617329E+01  0.26852023672E+02  0.12856540398E+03  0.12508460486E+03 0.  0.
          5    1    3    3  502    0 -0.49569126104E+01 -0.54706977847E+02 -0.94256774822E+01  0.55890430341E+02  0.41800000000E+01 0. -1.
         -5    1    3    3    0  502  0.16170596133E+02  0.60717539579E+02  0.36277701154E+02  0.72674973635E+02  0.41800000000E+01 0. -1.
        -11    1    1    2    0    0  0.31728071218E+01 -0.27922911470E+02 -0.15792526643E+02  0.32235998321E+02  0.00000000000E+00 0.  1.
         11    1    1    2    0    0 -0.14386490644E+02  0.21912349737E+02  0.68673713552E+02  0.73506469900E+02  0.00000000000E+00 0. -1.
</event>
<event>
 7    1  0.2690635E-009  0.6224721E+02  0.7561462E-02  0.1388636E+00
         -2   -1    0    0    0  501 -0.00000000000E+00  0.00000000000E+00  0.14807973238E+03  0.14807973238E+03  0.00000000000E+00 0.  1.
          2   -1    0    0  501    0  0.00000000000E+00 -0.00000000000E+00 -0.93188506606E+02  0.93188506606E+02  0.00000000000E+00 0. -1.
         25    2    1    2    0    0  0.13085750935E+02 -0.97451150584E+01  0.67466659304E+02  0.14305716610E+03  0.12508956196E+03 0.  0.
          5    1    3    3  502    0 -0.18603609061E+02  0.26047053408E+01  0.96342790768E+02  0.98246040597E+02  0.41800000000E+01 0. -1.
         -5    1    3    3    0  502  0.31689359996E+02 -0.12349820399E+02 -0.28876131464E+02  0.44811125507E+02  0.41800000000E+01 0. -1.
        -11    1    1    2    0    0 -0.31194519165E+02 -0.19353149349E+02  0.27213012920E+02  0.45696722945E+02  0.00000000000E+00 0.  1.
         11    1    1    2    0    0  0.18108768230E+02  0.29098264408E+02 -0.39788446451E+02  0.52514349937E+02  0.00000000000E+00 0. -1.
</event>
<event>
 7    1  0.2690635E-009  0.1363925E+03  0.7561462E-02  0.1218267E+00
          1   -1    0    0  501    0  0.00000000000E+00  0.00000000000E+00  0.16252332237E+04  0.16252332237E+04  0.00000000000E+00 0. -1.
         -1   -1    0    0    0  501 -0.00000000000E+00 -0.00000000000E+00 -0.12992984728E+02  0.12992984728E+02  0.00000000000E+00 0.  1.
         25    2    1    2    0    0 -0.21031500302E+02  0.82234749482E+02  0.11269019450E+04  0.11369963151E+04  0.12509096281E+03 0.  0.
          5    1    3    3  502    0  0.54157479719E+01 -0.31979249732E+02  0.30869952875E+03  0.31042692247E+03  0.41800000000E+01 0.  1.
         -5    1    3    3    0  502 -0.26447248274E+02  0.11421399921E+03  0.81820241621E+03  0.82656939264E+03  0.41800000000E+01 0.  1.
        -11    1    1    2    0    0 -0.24037734114E+02 -0.72880015637E+02  0.34876780374E+03  0.35711103352E+03  0.00000000000E+00 0.  1.
         11    1    1    2    0    0  0.45069234416E+02 -0.93547338446E+01  0.13657049026E+03  0.14411885979E+03  0.00000000000E+00 0. -1.
</event>
<event>
 7    1  0.2690635E-009  0.8908831E+02  0.7561462E-02  0.1305075E+00
          2   -1    0    0  501    0  0.00000000000E+00  0.00000000000E+00  0.25586627373E+03  0.25586627373E+03  0.00000000000E+00 0. -1.
         -2   -1    0    0    0  501 -0.00000000000E+00 -0.00000000000E+00 -0.57661325124E+02  0.57661325124E+02  0.00000000000E+00 0.  1.
         25    2    1    2    0    0 -0.82261954019E+01 -0.46575341454E+02  0.14775562750E+03  0.19928664077E+03  0.12508599845E+03 0.  0.
          5    1    3    3  502    0 -0.44300262932E+02 -0.32785937902E+02  0.10012368371E+02  0.56170730282E+02  0.41800000000E+01 0.  1.
         -5    1    3    3    0  502  0.36074067530E+02 -0.13789403552E+02  0.13774325913E+03  0.14311591048E+03  0.41800000000E+01 0.  1.
        -11    1    1    2    0    0 -0.28169904158E+02  0.36855943103E+02 -0.55819080817E+01  0.46723246249E+02  0.00000000000E+00 0.  1.
         11    1    1    2    0    0  0.36396099560E+02  0.97193983515E+01  0.56031229186E+02  0.67517711836E+02  0.00000000000E+00 0. -1.
</event>
<event>
 7    1  0.2763147E-009  0.1045849E+03  0.7561462E-02  0.1270940E+00
          2   -1    0    0  501    0  0.00000000000E+00  0.00000000000E+00  0.14224395171E+03  0.14224395171E+03  0.00000000000E+00 0. -1.
         -2   -1    0    0    0  501 -0.00000000000E+00 -0.00000000000E+00 -0.14295978533E+03  0.14295978533E+03  0.00000000000E+00 0.  1.
         25    2    1    2    0    0  0.72392943666E+02 -0.40274031813E+02 -0.39770766971E+02  0.15521573010E+03  0.12508985984E+03 0.  0.
          5    1    3    3  502    0  0.24812107229E+02 -0.64257435811E+02 -0.66168008287E+02  0.95605106782E+02  0.41800000000E+01 0. -1.
         -5    1    3    3    0  502  0.47580836437E+02  0.23983403998E+02  0.26397241316E+02  0.59610623319E+02  0.41800000000E+01 0. -1.
        -11    1    1    2    0    0 -0.55546321139E+02  0.17207093053E+02 -0.22323868281E+02  0.62288304990E+02  0.00000000000E+00 0.  1.
         11    1    1    2    0    0 -0.16846622527E+02  0.23066938760E+02  0.61378801635E+02  0.67699701952E+02  0.00000000000E+00 0. -1.
</event>
<event>
 7    1  0.2695700E-009  0.9574478E+02  0.7561462E-02  0.1289507E+00
          2   -1    0    0  501    0  0.00000000000E+00  0.00000000000E+00  0.10095297196E+04  0.10095297196E+04  0.00000000000E+00 0. -1.
         -2   -1    0    0    0  501 -0.00000000000E+00 -0.00000000000E+00 -0.13604778977E+02  0.13604778977E+02  0.00000000000E+00 0.  1.
         25    2    1    2    0    0 -0.53577140317E+01 -0.18473181098E+00  0.75876542137E+03  0.76902609660E+03  0.12508970129E+03 0.  0.
          5    1    3    3  502    0 -0.69651829825E+01  0.61190593999E+02  0.44734816568E+03  0.45158682034E+03  0.41800000000E+01 0. -1.
         -5    1    3    3    0  502  0.16074689508E+01 -0.61375325810E+02  0.31141725568E+03  0.31743927626E+03  0.41800000000E+01 0. -1.
        -11    1    1    2    0    0  0.50382427525E+01 -0.33832159007E+02  0.34387354753E+02  0.48502464267E+02  0.00000000000E+00 0.  1.
         11    1    1    2    0    0  0.31947127922E+00  0.34016890818E+02  0.20277216453E+03  0.20560593774E+03  0.00000000000E+00 0. -1.
</event>
<event>
 7    1  0.2690635E-009  0.8484273E+02  0.7561462E-02  0.1315844E+00
         -2   -1    0    0    0  501 -0.00000000000E+00  0.00000000000E+00  0.33374382894E+03  0.33374382894E+03  0.00000000000E+00 0.  1.
          2   -1    0    0  501    0  0.00000000000E+00 -0.00000000000E+00 -0.50503605252E+02  0.50503605252E+02  0.00000000000E+00 0. -1.
         25    2    1    2    0    0 -0.47408323745E+02  0.35109819578E+02  0.21661314799E+03  0.25700050235E+03  0.12509098183E+03 0.  0.
          5    1    3    3  502    0  0.17312685887E+02  0.18695338897E+02  0.17778122237E+03  0.17964654246E+03  0.41800000000E+01 0. -1.
         -5    1    3    3    0  502 -0.64721009632E+02  0.16414480681E+02  0.38831925619E+02  0.77353959893E+02  0.41800000000E+01 0. -1.
        -11    1    1    2    0    0 -0.10402579403E+02 -0.79401901641E+01  0.61819107551E+02  0.63189099823E+02  0.00000000000E+00 0.  1.
         11    1    1    2    0    0  0.57810903148E+02 -0.27169629414E+02  0.48079681475E+01  0.64057832019E+02  0.00000000000E+00 0. -1.
</event>
<event>
 7    1  0.2690635E-009  0.1043074E+03  0.7561462E-02  0.1271490E+00
          2   -1    0    0  501    0  0.00000000000E+00  0.00000000000E+00  0.91280821741E+03  0.91280821741E+03  0.00000000000E+00 0. -1.
         -2   -1    0    0    0  501 -0.00000000000E+00 -0.00000000000E+00 -0.17112841074E+02  0.17112841074E+02  0.00000000000E+00 0.  1.
         25    2    1    2    0    0 -0.42710635075E+02  0.36756311604E+02  0.62230008157E+03  0.63724574990E+03  0.12509807931E+03 0.  0.
          5    1    3    3  502    0 -0.22777777213E+02  0.65240958294E+02  0.16948572605E+03  0.18307947320E+03  0.41800000000E+01 0. -1.
         -5    1    3    3    0  502 -0.19932857862E+02 -0.28484646691E+02  0.45281435552E+03  0.45416627670E+03  0.41800000000E+01 0. -1.
        -11    1    1    2    0    0  0.22858648185E+02 -0.65535152001E+02  0.17567293701E+03  0.18888714817E+03  0.00000000000E+00 0. -1.
         11    1    1    2    0    0  0.19851986890E+02  0.28778840397E+02  0.97722357753E+02  0.10378816042E+03  0.00000000000E+00 0.  1.
</event>
<event>
 7    1  0.2690635E-009  0.1278282E+03  0.7561462E-02  0.1230714E+00
         -1   -1    0    0    0  501 -0.00000000000E+00  0.00000000000E+00  0.40665473560E+03  0.40665473560E+03  0.00000000000E+00 0.  1.
          1   -1    0    0  501    0  0.00000000000E+00 -0.00000000000E+00 -0.71663964643E+02  0.71663964643E+02  0.00000000000E+00 0. -1.
         25    2    1    2    0    0  0.56211308920E+01  0.12415321160E+03  0.23593795459E+03  0.29454876089E+03  0.12508651832E+03 0.  0.
          5    1    3    3  502    0 -0.14846812705E+02  0.25725859220E+02  0.17362405206E+03  0.17619600317E+03  0.41800000000E+01 0.  1.
         -5    1    3    3    0  502  0.20467943597E+02  0.98427352382E+02  0.62313902532E+02  0.11835275772E+03  0.41800000000E+01 0.  1.
        -11    1    1    2    0    0 -0.97978480807E+01 -0.10395194996E+03  0.25641079986E+02  0.10751497901E+03  0.00000000000E+00 0. -1.
         11    1    1    2    0    0  0.41767171887E+01 -0.20201261641E+02  0.73411736377E+02  0.76254960339E+02  0.00000000000E+00 0.  1.
</event>
<event>
 7    1  0.2690635E-009  0.1299889E+03  0.7561462E-02  0.1227472E+00
          2   -1    0    0  501    0  0.00000000000E+00  0.00000000000E+00  0.68779331708E+02  0.68779331708E+02  0.00000000000E+00 0.  1.
         -2   -1    0    0    0  501 -0.00000000000E+00 -0.00000000000E+00 -0.33766683221E+03  0.33766683221E+03  0.00000000000E+00 0. -1.
         25    2    1    2    0    0  0.83564452352E+02  0.84977048995E+01 -0.22747191294E+03  0.27284771179E+03  0.12508866443E+03 0.  0.
          5    1    3    3  502    0  0.67402016924E+02 -0.45346353106E+02 -0.18554593294E+03  0.20259340872E+03  0.41800000000E+01 0.  1.
         -5    1    3    3    0  502  0.16162435428E+02  0.53844058006E+02 -0.41925979993E+02  0.70254303070E+02  0.41800000000E+01 0.  1.
        -11    1    1    2    0    0 -0.89333875111E+02  0.21359547503E+02 -0.14502245734E+02  0.92989712566E+02  0.00000000000E+00 0.  1.
         11    1    1    2    0    0  0.57694227586E+01 -0.29857252402E+02 -0.26913341827E+02  0.40608739555E+02  0.00000000000E+00 0. -1.
</event>
<event>
 7    1  0.2690635E-009  0.9927838E+02  0.7561462E-02  0.1281821E+00
         -4   -1    0    0    0  501 -0.00000000000E+00  0.00000000000E+00  0.33002500526E+02  0.33002500526E+02  0.00000000000E+00 0.  1.
          4   -1    0    0  501    0  0.00000000000E+00 -0.00000000000E+00 -0.66673610840E+03  0.66673610840E+03  0.00000000000E+00 0. -1.
         25    2    1    2    0    0 -0.44988630315E+02 -0.15529263886E+02 -0.52352424668E+03  0.54036135815E+03  0.12509046973E+03 0.  0.
          5    1    3    3  502    0 -0.82625332471E+02 -0.36049453950E+02 -0.33131100577E+03  0.34338165885E+03  0.41800000000E+01 0. -1.
         -5    1    3    3    0  502  0.37636702155E+02  0.20520190064E+02 -0.19221324092E+03  0.19697969929E+03  0.41800000000E+01 0. -1.
        -11    1    1    2    0    0  0.17532880347E+02  0.29590849415E+02 -0.12169422273E+03  0.12646147282E+03  0.00000000000E+00 0. -1.
         11    1    1    2    0    0  0.27455749968E+02 -0.14061585528E+02  0.11484861540E+02  0.32915777956E+02  0.00000000000E+00 0.  1.
</event>
<event>
 7    1  0.2690635E-009  0.1168191E+03  0.7561462E-02  0.1248439E+00
          2   -1    0    0  501    0  0.00000000000E+00  0.00000000000E+00  0.25203997246E+03  0.25203997246E+03  0.00000000000E+00 0. -1.
         -2   -1    0    0    0  501 -0.00000000000E+00 -0.00000000000E+00 -0.92456488294E+02  0.92456488294E+02  0.00000000000E+00 0.  1.
         25    2    1    2    0    0  0.30410438944E+02 -0.72141676560E+02  0.31001774418E+01  0.14760247118E+03  0.12509061558E+03 0.  0.
          5    1    3    3  502    0 -0.36251700604E+02 -0.66568179643E+02 -0.16668547705E+02  0.77722720103E+02  0.41800000000E+01 0.  1.
         -5    1    3    3    0  502  0.66662139547E+02 -0.55734969164E+01  0.19768725147E+02  0.69879751079E+02  0.41800000000E+01 0.  1.
        -11    1    1    2    0    0 -0.37837581582E+02  0.31065773452E+02  0.14580955385E+03  0.15380894270E+03  0.00000000000E+00 0. -1.
         11    1    1    2    0    0  0.74271426382E+01  0.41075903107E+02  0.10673752879E+02  0.43085046877E+02  0.00000000000E+00 0.  1.
</event>
<event>
 7    1  0.2690635E-009  0.1462832E+03  0.7561462E-02  0.1205116E+00
         -1   -1    0    0    0  501 -0.00000000000E+00  0.00000000000E+00  0.45162363561E+02  0.45162363561E+02  0.00000000000E+00 0.  1.
          1   -1    0    0  501    0  0.00000000000E+00 -0.00000000000E+00 -0.56691280509E+03  0.56691280509E+03  0.00000000000E+00 0. -1.
         25    2    1    2    0    0  0.26015585084E+02 -0.96536535519E+02 -0.39768767549E+03  0.42871806290E+03  0.12509027487E+03 0.  0.
          5    1    3    3  502    0 -0.49182531235E+02 -0.45100269935E+02 -0.13503319816E+03  0.15067976882E+03  0.41800000000E+01 0.  1.
         -5    1    3    3    0  502  0.75198116319E+02 -0.51436265584E+02 -0.26265447732E+03  0.27803829408E+03  0.41800000000E+01 0.  1.
        -11    1    1    2    0    0  0.33797026793E+02  0.36922943999E+02 -0.38595195302E+02  0.63207055888E+02  0.00000000000E+00 0.  1.
         11    1    1    2    0    0 -0.59812611877E+02  0.59613591520E+02 -0.85467570740E+02  0.12015004986E+03  0.00000000000E+00 0. -1.
</event>
<event>
 7    1  0.2690635E-009  0.9341260E+02  0.7561462E-02  0.1294792E+00
          2   -1    0    0  501    0  0.00000000000E+00  0.00000000000E+00  0.10560599055E+04  0.10560599055E+04  0.00000000000E+00 0. -1.
         -2   -1    0    0    0  501 -0.00000000000E+00 -0.00000000000E+00 -0.11274758175E+02  0.11274758175E+02  0.00000000000E+00 0.  1.
         25    2    1    2    0    0 -0.12106554275E+02 -0.20243172456E+01  0.63460253103E+03  0.64692916563E+03  0.12508519671E+03 0.  0.
          5    1    3    3  502    0 -0.42860661234E+02 -0.30802670997E+02  0.12740508011E+03  0.13796871986E+03  0.41800000000E+01 0.  1.
         -5    1    3    3    0  502  0.30754106959E+02  0.28778353751E+02  0.50719745092E+03  0.50896044577E+03  0.41800000000E+01 0.  1.
        -11    1    1    2    0    0  0.34923824126E+02 -0.34109924185E+02  0.24231162502E+03  0.24718026628E+03  0.00000000000E+00 0. -1.
         11    1    1    2    0    0 -0.22817269850E+02  0.36134241431E+02  0.16787099126E+03  0.17322523174E+03  0.00000000000E+00 0.  1.
</event>
<event>
 7    1  0.2690635E-009  0.1004798E+03  0.7561462E-02  0.1279290E+00
         -3   -1    0    0    0  501 -0.00000000000E+00  0.00000000000E+00  0.42431450456E+03  0.42431450456E+03  0.00000000000E+00 0.  1.
          3   -1    0    0  501    0  0.00000000000E+00 -0.00000000000E+00 -0.38483255872E+02  0.38483255872E+02  0.00000000000E+00 0. -1.
         25    2    1    2    0    0 -0.29905661721E+01  0.38330655514E+02  0.30798425857E+03  0.33463335394E+03  0.12508795067E+03 0.  0.
          5    1    3    3  502    0  0.48745057861E+02  0.18554769660E+02  0.24557157512E+03  0.25108411151E+03  0.41800000000E+01 0. -1.
         -5    1    3    3    0  502 -0.51735624033E+02  0.19775885855E+02  0.62412683448E+02  0.83549242430E+02  0.41800000000E+01 0. -1.
        -11    1    1    2    0    0 -0.19815780939E+02  0.21393624776E+02  0.23789751039E+01  0.29257680663E+02  0.00000000000E+00 0. -1.
         11    1    1    2    0    0  0.22806347111E+02 -0.59724280290E+02  0.75468015018E+02  0.98906725835E+02  0.00000000000E+00 0.  1.
</event>
<event>
 7    1  0.2690635E-009  0.9258522E+02  0.7561462E-02  0.1296709E+00
          1   -1    0    0  501    0  0.00000000000E+00  0.00000000000E+00  0.10181735086E+03  0.10181735086E+03  0.00000000000E+00 0. -1.
         -1   -1    0    0    0  501 -0.00000000000E+00 -0.00000000000E+00 -0.17032297217E+03  0.17032297217E+03  0.00000000000E+00 0.  1.
         25    2    1    2    0    0 -0.69301757461E+02 -0.18753002022E+02 -0.28832231249E+02  0.14708235147E+03  0.12509001513E+03 0.  0.
          5    1    3    3  502    0 -0.37602229344E+02  0.10981575414E+01 -0.77092148887E+02  0.85882509405E+02  0.41800000000E+01 0.  1.
         -5    1    3    3    0  502 -0.31699528117E+02 -0.19851159563E+02  0.48259917638E+02  0.61199842069E+02  0.41800000000E+01 0.  1.
        -11    1    1    2    0    0 -0.11458687808E+02  0.26186408058E+02 -0.33035536985E+02  0.43684965345E+02  0.00000000000E+00 0.  1.
         11    1    1    2    0    0  0.80760445269E+02 -0.74334060367E+01 -0.66378530749E+01  0.81373006205E+02  0.00000000000E+00 0. -1.
</event>
<event>
 7    1  0.2690635E-009  0.1093707E+03  0.7561462E-02  0.1261740E+00
          4   -1    0    0  501    0  0.00000000000E+00  0.00000000000E+00  0.27986953804E+03  0.27986953804E+03  0.00000000000E+00 0.  1.
         -4   -1    0    0    0  501 -0.00000000000E+00 -0.00000000000E+00 -0.46325015529E+02  0.46325015529E+02  0.00000000000E+00 0. -1.
         25    2    1    2    0    0  0.32086915097E+02  0.74310578373E+01  0.14437472652E+03  0.19384509529E+03  0.12508824314E+03 0.  0.
          5    1    3    3  502    0  0.92754988193E+01  0.61380011066E+02  0.39642409549E+02  0.73773529614E+02  0.41800000000E+01 0. -1.
         -5    1    3    3    0  502  0.22811416278E+02 -0.53948953229E+02  0.10473231697E+03  0.12007156568E+03  0.41800000000E+01 0. -1.
        -11    1    1    2    0    0  0.22230495490E+02 -0.31365462925E+02  0.35028863149E+02  0.52009695709E+02  0.00000000000E+00 0. -1.
         11    1    1    2    0    0 -0.54317410587E+02  0.23934405087E+02  0.54140932840E+02  0.80339762562E+02  0.00000000000E+00 0.  1.
</event>
<event>
 7    1  0.2690635E-009  0.1012413E+03  0.7561462E-02  0.1277707E+00
         -2   -1    0    0    0  501 -0.00000000000E+00  0.00000000000E+00  0.19839116492E+02  0.19839116492E+02  0.00000000000E+00 0.  1.
          2   -1    0    0  501    0  0.00000000000E+00 -0.00000000000E+00 -0.95508997547E+03  0.95508997547E+03  0.00000000000E+00 0. -1.
         25    2    1    2    0    0  0.23599343502E+02 -0.68706480401E+02 -0.62041055354E+03  0.63705047946E+03  0.12508616620E+03 0.  0.
          5    1    3    3  502    0  0.59558388247E+02 -0.68364065178E+02 -0.27157217369E+03  0.28633854952E+03  0.41800000000E+01 0.  1.
         -5    1    3    3    0  502 -0.35959044745E+02 -0.34241522355E+00 -0.34883837985E+03  0.35071192994E+03  0.41800000000E+01 0.  1.
        -11    1    1    2    0    0 -0.10368341039E+02  0.72543380190E+01  0.37088324291E+01  0.13186483761E+02  0.00000000000E+00 0.  1.
         11    1    1    2    0    0 -0.13231002463E+02  0.61452142382E+02 -0.31854913787E+03  0.32469212874E+03  0.00000000000E+00 0. -1.
</event>
<event>
 7    1  0.2690635E-009  0.1805795E+03  0.7561462E-02  0.1167243E+00
         -2   -1    0    0    0  501 -0.00000000000E+00  0.00000000000E+00  0.37149596002E+03  0.37149596002E+03  0.00000000000E+00 0. -1.
          2   -1    0    0  501    0  0.00000000000E+00 -0.00000000000E+00 -0.99420868645E+02  0.99420868645E+02  0.00000000000E+00 0.  1.
         25    2    1    2    0    0 -0.13528851929E+03  0.92997784638E+02  0.12313060748E+03  0.24033481966E+03  0.12509239642E+03 0.  0.
          5    1    3    3  502    0 -0.16355497571E+02  0.74354103428E+02  0.84544516831E+02  0.11384762942E+03  0.41800000000E+01 0.  1.
         -5    1    3    3    0  502 -0.11893302172E+03  0.18643681210E+02  0.38586090652E+02  0.12648719025E+03  0.41800000000E+01 0.  1.
        -11    1    1    2    0    0  0.48544911948E+02 -0.39069174162E+02  0.98767188731E+02  0.11678170411E+03  0.00000000000E+00 0.  1.
         11    1    1    2    0    0  0.86743607345E+02 -0.53928610475E+02  0.50177295160E+02  0.11380030489E+03  0.00000000000E+00 0. -1.
</event>
<event>
 7    1  0.2690635E-009  0.9957509E+02  0.7561462E-02  0.1281192E+00
         -2   -1    0    0    0  501 -0.00000000000E+00  0.00000000000E+00  0.36038873299E+02  0.36038873299E+02  0.00000000000E+00 0.  1.
          2   -1    0    0  501    0  0.00000000000E+00 -0.00000000000E+00 -0.37175474657E+03  0.37175474657E+03  0.00000000000E+00 0. -1.
         25    2    1    2    0    0 -0.26547688473E+02  0.28732709802E+02 -0.17765639778E+03  0.22076724370E+03  0.12508409908E+03 0.  0.
          5    1    3    3  502    0 -0.24808119975E+02  0.63413257031E+02 -0.17239000083E+03  0.18539813583E+03  0.41800000000E+01 0. -1.
         -5    1    3    3    0  502 -0.17395684983E+01 -0.34680547229E+02 -0.52663969510E+01  0.35369107870E+02  0.41800000000E+01 0. -1.
        -11    1    1    2    0    0 -0.31660541406E+02 -0.15152773372E+01 -0.79167193345E+02  0.85276787284E+02  0.00000000000E+00 0. -1.
         11    1    1    2    0    0  0.58208229879E+02 -0.27217432465E+02 -0.78892282146E+02  0.10174958888E+03  0.00000000000E+00 0.  1.
</event>
<event>
 7    1  0.2690635E-009  0.1563199E+03  0.7561462E-02  0.1192915E+00
         -2   -1    0    0    0  501 -0.00000000000E+00  0.00000000000E+00  0.21436508493E+02  0.21436508493E+02  0.00000000000E+00 0.  1.
          2   -1    0    0  501    0  0.00000000000E+00 -0.00000000000E+00 -0.12332135142E+04  0.12332135142E+04  0.00000000000E+00 0. -1.
         25    2    1    2    0    0 -0.76388820949E+02  0.93027410612E+02 -0.65003479717E+03  0.67281595035E+03  0.12508682754E+03 0.  0.
          5    1    3    3  502    0 -0.26645849819E+02 -0.25362571436E+02 -0.24803439411E+03  0.25078236462E+03  0.41800000000E+01 0.  1.
         -5    1    3    3    0  502 -0.49742971129E+02  0.11838998205E+03 -0.40200040305E+03  0.42203358573E+03  0.41800000000E+01 0.  1.
        -11    1    1    2    0    0  0.47482865845E+02 -0.10546769952E+03 -0.49047184566E+03  0.50392528174E+03  0.00000000000E+00 0.  1.
         11    1    1    2    0    0  0.28905955103E+02  0.12440288904E+02 -0.71270362878E+02  0.77908790603E+02  0.00000000000E+00 0. -1.
</event>
<event>
 7    1  0.2690635E-009  0.2048687E+03  0.7561462E-02  0.1145695E+00
         -2   -1    0    0    0  501 -0.00000000000E+00  0.00000000000E+00  0.11713341305E+03  0.11713341305E+03  0.00000000000E+00 0. -1.
          2   -1    0    0  501    0  0.00000000000E+00 -0.00000000000E+00 -0.42079732291E+03  0.42079732291E+03  0.00000000000E+00 0.  1.
         25    2    1    2    0    0  0.19001016588E+03 -0.14317322439E+02 -0.13436565308E+03  0.26459491431E+03  0.12508993203E+03 0.  0.
          5    1    3    3  502    0  0.18653457461E+03 -0.41751649890E+02 -0.13881690819E+03  0.23627516627E+03  0.41800000000E+01 0. -1.
         -5    1    3    3    0  502  0.34755912695E+01  0.27434327451E+02  0.44512551185E+01  0.28319748048E+02  0.41800000000E+01 0. -1.
        -11    1    1    2    0    0 -0.16648772865E+03  0.11520556859E+02 -0.88018747910E+02  0.18867481815E+03  0.00000000000E+00 0. -1.
         11    1    1    2    0    0 -0.23522437230E+02  0.27967655797E+01 -0.81279508870E+02  0.84661003497E+02  0.00000000000E+00 0.  1.
</event>
<event>
 7    1  0.2690635E-009  0.1113957E+03  0.7561462E-02  0.1258007E+00
          1   -1    0    0  501    0  0.00000000000E+00  0.00000000000E+00  0.16367389868E+03  0.16367389868E+03  0.00000000000E+00 0. -1.
         -1   -1    0    0    0  501 -0.00000000000E+00 -0.00000000000E+00 -0.11981910394E+03  0.11981910394E+03  0.00000000000E+00 0.  1.
         25    2    1    2    0    0 -0.69339824071E+02 -0.27438411571E+02 -0.25494293731E+02  0.14784477912E+03  0.12508893664E+03 0.  0.
          5    1    3    3  502    0 -0.86152019220E+02 -0.23177394188E+02 -0.60967374039E+02  0.10813812979E+03  0.41800000000E+01 0. -1.
         -5    1    3    3    0  502  0.16812195149E+02 -0.42610173830E+01  0.35473080308E+02  0.39706649335E+02  0.41800000000E+01 0. -1.
        -11    1    1    2    0    0  0.30907621547E+02 -0.32235651900E+02  0.18522240060E+02  0.48347613177E+02  0.00000000000E+00 0.  1.
         11    1    1    2    0    0  0.38432202524E+02  0.59674063471E+02  0.50826848415E+02  0.87300610317E+02  0.00000000000E+00 0. -1.
</event>
<event>
 7    1  0.2690635E-009  0.1837062E+03  0.7561462E-02  0.1164264E+00
          2   -1    0    0  501    0  0.00000000000E+00  0.00000000000E+00  0.37353488290E+02  0.37353488290E+02  0.00000000000E+00 0. -1.
         -2   -1    0    0    0  501 -0.00000000000E+00 -0.00000000000E+00 -0.10285966433E+04  0.10285966433E+04  0.00000000000E+00 0.  1.
         25    2    1    2    0    0 -0.29815220808E+02  0.16002716272E+03 -0.51356462729E+03  0.55307680985E+03  0.12509073107E+03 0.  0.
          5    1    3    3  502    0  0.28812165933E+02  0.35679540881E+02 -0.26523132691E+03  0.26919936798E+03  0.41800000000E+01 0.  1.
         -5    1    3    3    0  502 -0.58627386742E+02  0.12434762184E+03 -0.24833330037E+03  0.28387744188E+03  0.41800000000E+01 0.  1.
        -11    1    1    2    0    0  0.49389926022E+02 -0.15627231805E+03 -0.39150897027E+03  0.42442864652E+03  0.00000000000E+00 0.  1.
         11    1    1    2    0    0 -0.19574705214E+02 -0.37548446636E+01 -0.86169557405E+02  0.88444675170E+02  0.00000000000E+00 0. -1.
</event>
<event>
 7    1  0.2690635E-009  0.3128898E+03  0.7561462E-02  0.1078969E+00
         -2   -1    0    0    0  501 -0.00000000000E+00  0.00000000000E+00  0.29804322304E+03  0.29804322304E+03  0.00000000000E+00 0.  1.
          2   -1    0    0  501    0  0.00000000000E+00 -0.00000000000E+00 -0.41213334029E+03  0.41213334029E+03  0.00000000000E+00 0. -1.
         25    2    1    2    0    0 -0.10689336801E+02  0.30406039510E+03  0.78807756063E+02  0.33826854183E+03  0.12509179901E+03 0.  0.
          5    1    3    3  502    0  0.17972317775E+02  0.14011307259E+03 -0.22910420169E+02  0.14316786325E+03  0.41800000000E+01 0. -1.
         -5    1    3    3    0  502 -0.28661654576E+02  0.16394732252E+03  0.10171817623E+03  0.19510067857E+03  0.41800000000E+01 0. -1.
        -11    1    1    2    0    0 -0.80688554860E+01 -0.29821269307E+03 -0.18123291721E+03  0.34905771302E+03  0.00000000000E+00 0.  1.
         11    1    1    2    0    0  0.18758192287E+02 -0.58477020356E+01 -0.11664956108E+02  0.22850308487E+02  0.00000000000E+00 0. -1.
</event>
<event>
 7    1  0.2690635E-009  0.1986314E+03  0.7561462E-02  0.1150899E+00
         -1   -1    0    0    0  501 -0.00000000000E+00  0.00000000000E+00  0.27450289666E+02  0.27450289666E+02  0.00000000000E+00 0.  1.
          1   -1    0    0  501    0  0.00000000000E+00 -0.00000000000E+00 -0.17785953908E+04  0.17785953908E+04  0.00000000000E+00 0. -1.
         25    2    1    2    0    0 -0.46835642077E+02  0.16971703015E+03 -0.11250026468E+04  0.11455460480E+04  0.12508934831E+03 0.  0.
          5    1    3    3  502    0 -0.63665555060E+02  0.22577787516E+02 -0.33411332812E+03  0.34089917544E+03  0.41800000000E+01 0. -1.
         -5    1    3    3    0  502  0.16829912983E+02  0.14713924263E+03 -0.79088931873E+03  0.80464687259E+03  0.41800000000E+01 0. -1.
        -11    1    1    2    0    0  0.28300582239E+02 -0.33066271114E+02 -0.42665655505E+02  0.60948005710E+02  0.00000000000E+00 0.  1.
         11    1    1    2    0    0  0.18535059838E+02 -0.13665075904E+03 -0.58347679880E+03  0.59955162674E+03  0.00000000000E+00 0. -1.
</event>
<event>
 7    1  0.2690635E-009  0.1872315E+03  0.7561462E-02  0.1160982E+00
         -1   -1    0    0    0  501 -0.00000000000E+00  0.00000000000E+00  0.96729916025E+02  0.96729916025E+02  0.00000000000E+00 0.  1.
          1   -1    0    0  501    0  0.00000000000E+00 -0.00000000000E+00 -0.46278101959E+03  0.46278101959E+03  0.00000000000E+00 0. -1.
         25    2    1    2    0    0 -0.42084467285E+02  0.15626932390E+03 -0.82737038297E+02  0.22064472030E+03  0.12508985214E+03 0.  0.
          5    1    3    3  502    0 -0.61170417623E+02  0.15954804542E+03 -0.96723828433E+02  0.19639340665E+03  0.41800000000E+01 0.  1.
         -5    1    3    3    0  502  0.19085950338E+02 -0.32787215211E+01  0.13986790136E+02  0.24251313643E+02  0.41800000000E+01 0.  1.
        -11    1    1    2    0    0  0.14401675292E+02 -0.15536423471E+03 -0.21955367114E+03  0.26934971355E+03  0.00000000000E+00 0.  1.
         11    1    1    2    0    0  0.27682791993E+02 -0.90508919216E+00 -0.63760394129E+02  0.69516501771E+02  0.00000000000E+00 0. -1.
</event>
<event>
 7    1  0.2690635E-009  0.1790885E+03  0.7561462E-02  0.1168688E+00
         -1   -1    0    0    0  501 -0.00000000000E+00  0.00000000000E+00  0.43912108431E+03  0.43912108431E+03  0.00000000000E+00 0.  1.
          1   -1    0    0  501    0  0.00000000000E+00 -0.00000000000E+00 -0.10474593087E+03  0.10474593087E+03  0.00000000000E+00 0. -1.
         25    2    1    2    0    0  0.16094890672E+03 -0.48476212520E+02  0.26977763323E+03  0.34158782658E+03  0.12509107929E+03 0.  0.
          5    1    3    3  502    0  0.72029234147E+02 -0.16213246979E+02  0.23274911049E+02  0.77525955871E+02  0.41800000000E+01 0.  1.
         -5    1    3    3    0  502  0.88919672574E+02 -0.32262965541E+02  0.24650272218E+03  0.26406187071E+03  0.41800000000E+01 0.  1.
        -11    1    1    2    0    0 -0.84712723546E+01  0.35519828471E+02  0.24865407087E+02  0.44178152287E+02  0.00000000000E+00 0. -1.
         11    1    1    2    0    0 -0.15247763437E+03  0.12956384049E+02  0.39732113123E+02  0.15810103631E+03  0.00000000000E+00 0.  1.
</event>
<event>
 7    1  0.2690635E-009  0.2313757E+03  0.7561462E-02  0.1125675E+00
         -2   -1    0    0    0  501 -0.00000000000E+00  0.00000000000E+00  0.77466224062E+03  0.77466224062E+03  0.00000000000E+00 0.  1.
          2   -1    0    0  501    0  0.00000000000E+00 -0.00000000000E+00 -0.76290436079E+02  0.76290436079E+02  0.00000000000E+00 0. -1.
         25    2    1    2    0    0  0.21402496575E+03 -0.35637176700E+02  0.34272060283E+03  0.42447808811E+03  0.12509013293E+03 0.  0.
          5    1    3    3  502    0  0.10451896021E+03  0.17203929174E+02  0.24989233729E+03  0.27144767609E+03  0.41800000000E+01 0. -1.
         -5    1    3    3    0  502  0.10950600554E+03 -0.52841105874E+02  0.92828265543E+02  0.15303041202E+03  0.41800000000E+01 0. -1.
        -11    1    1    2    0    0 -0.12488932875E+03 -0.24882276336E+02  0.20286188338E+03  0.23951913460E+03  0.00000000000E+00 0.  1.
         11    1    1    2    0    0 -0.89135637001E+02  0.60519453036E+02  0.15278931834E+03  0.18695545399E+03  0.00000000000E+00 0. -1.
</event>
<event>
 7    1  0.2690635E-009  0.1274402E+03  0.7561462E-02  0.1231304E+00
         -2   -1    0    0    0  501 -0.00000000000E+00  0.00000000000E+00  0.38291991530E+02  0.38291991530E+02  0.00000000000E+00 0.  1.
          2   -1    0    0  501    0  0.00000000000E+00 -0.00000000000E+00 -0.51355819051E+03  0.51355819051E+03  0.00000000000E+00 0. -1.
         25    2    1    2    0    0 -0.70231019130E+02  0.40817762114E+02 -0.33645127993E+03  0.36802861843E+03  0.12508842659E+03 0.  0.
          5    1    3    3  502    0 -0.10630481963E+01 -0.34557829368E+02 -0.16242829956E+03  0.16611983187E+03  0.41800000000E+01 0.  1.
         -5    1    3    3    0  502 -0.69167970933E+02  0.75375591482E+02 -0.17402298037E+03  0.20190878656E+03  0.41800000000E+01 0.  1.
        -11    1    1    2    0    0 -0.11141590940E+02 -0.34265173594E+02 -0.25412000658E+02  0.44090894156E+02  0.00000000000E+00 0. -1.
         11    1    1    2    0    0  0.81372610070E+02 -0.65525885205E+01 -0.11340291839E+03  0.13973066945E+03  0.00000000000E+00 0.  1.
</event>
<event>
 7    1  0.2690635E-009  0.1124315E+03  0.7561462E-02  0.1256132E+00
         -3   -1    0    0    0  501 -0.00000000000E+00  0.00000000000E+00  0.11419891033E+03  0.11419891033E+03  0.00000000000E+00 0.  1.
          3   -1    0    0  501    0  0.00000000000E+00 -0.00000000000E+00 -0.11297263388E+03  0.11297263388E+03  0.00000000000E+00 0. -1.
         25    2    1    2    0    0  0.30441394434E+02 -0.14091992128E+02 -0.41537724933E+01  0.12956962233E+03  0.12508305428E+03 0.  0.
          5    1    3    3  502    0  0.57756013954E+02  0.38845435120E+02 -0.41726513624E+01  0.69854193839E+02  0.41800000000E+01 0. -1.
         -5    1    3    3    0  502 -0.27314619520E+02 -0.52937427248E+02  0.18878869018E-01  0.59715428489E+02  0.41800000000E+01 0. -1.
        -11    1    1    2    0    0 -0.61815560178E+01  0.50933133545E+02 -0.70100168160E+01  0.51783550123E+02  0.00000000000E+00 0. -1.
         11    1    1    2    0    0 -0.24259838416E+02 -0.36841141417E+02  0.12390065761E+02  0.45818371757E+02  0.00000000000E+00 0.  1.
</event>
<event>
 7    1  0.2690635E-009  0.9010346E+02  0.7561462E-02  0.1302601E+00
         -1   -1    0    0    0  501 -0.00000000000E+00  0.00000000000E+00  0.13089993465E+03  0.13089993465E+03  0.00000000000E+00 0.  1.
          1   -1    0    0  501    0  0.00000000000E+00 -0.00000000000E+00 -0.91347224634E+02  0.91347224634E+02  0.00000000000E+00 0. -1.
         25    2    1    2    0    0  0.78277822900E+01  0.12307525808E+02  0.31376283896E+02  0.12978438341E+03  0.12508703218E+03 0.  0.
          5    1    3    3  502    0 -0.42704355323E+02  0.85399976910E+01 -0.27745766012E+02  0.51806307103E+02  0.41800000000E+01 0. -1.
         -5    1    3    3    0  502  0.50532137613E+02  0.37675281168E+01  0.59122049908E+02  0.77978076311E+02  0.41800000000E+01 0. -1.
        -11    1    1    2    0    0 -0.11176840874E+02  0.35740712445E+02  0.20575138369E+02  0.42727703154E+02  0.00000000000E+00 0.  1.
         11    1    1    2    0    0  0.33490585835E+01 -0.48048238252E+02 -0.12398712249E+02  0.49735072715E+02  0.00000000000E+00 0. -1.
</event>
<event>
 7    1  0.2690635E-009  0.7690334E+02  0.7561462E-02  0.1338076E+00
         -2   -1    0    0    0  501 -0.00000000000E+00  0.00000000000E+00  0.53797508126E+02  0.53797508126E+02  0.00000000000E+00 0.  1.
          2   -1    0    0  501    0  0.00000000000E+00 -0.00000000000E+00 -0.32123537772E+03  0.32123537772E+03  0.00000000000E+00 0. -1.
         25    2    1    2    0    0  0.17884681865E+02 -0.72718119981E+02 -0.15994955354E+03  0.21642315960E+03  0.12508931816E+03 0.  0.
          5    1    3    3  502    0  0.30639383983E+01 -0.43990817061E+02  0.82824488654E+01  0.45062745848E+02  0.41800000000E+01 0.  1.
         -5    1    3    3    0  502  0.14820743466E+02 -0.28727302920E+02 -0.16823200240E+03  0.17136041375E+03  0.41800000000E+01 0.  1.
        -11    1    1    2    0    0 -0.15172514537E+02  0.25871619394E+02 -0.10758217090E+03  0.11168468732E+03  0.00000000000E+00 0. -1.
         11    1    1    2    0    0 -0.27121673281E+01  0.46846500587E+02  0.93854840760E-01  0.46925038920E+02  0.00000000000E+00 0.  1.
</event>
<event>
 7    1  0.2690635E-009  0.2161301E+03  0.7561462E-02  0.1136802E+00
          1   -1    0    0  501    0  0.00000000000E+00  0.00000000000E+00  0.47053767490E+03  0.47053767490E+03  0.00000000000E+00 0. -1.
         -1   -1    0    0    0  501 -0.00000000000E+00 -0.00000000000E+00 -0.10548630620E+03  0.10548630620E+03  0.00000000000E+00 0.  1.
         25    2    1    2    0    0 -0.13995643698E+03 -0.12628638106E+03  0.12869467162E+03  0.26027873128E+03  0.12508655066E+03 0.  0.
          5    1    3    3  502    0  0.17611562626E+02  0.38928998680E+01  0.24839272211E+02  0.30980375264E+02  0.41800000000E+01 0.  1.
         -5    1    3    3    0  502 -0.15756799960E+03 -0.13017928093E+03  0.10385539941E+03  0.22929835601E+03  0.41800000000E+01 0.  1.
        -11    1    1    2    0    0 -0.12921825546E+02  0.17175134676E+02  0.26239949094E+02  0.33918929155E+02  0.00000000000E+00 0. -1.
         11    1    1    2    0    0  0.15287826252E+03  0.10911124639E+03  0.21011674798E+03  0.28182632067E+03  0.00000000000E+00 0.  1.
</event>
<event>
 7    1  0.2690635E-009  0.1153366E+03  0.7561462E-02  0.1250995E+00
          2   -1    0    0  501    0  0.00000000000E+00  0.00000000000E+00  0.51644367739E+03  0.51644367739E+03  0.00000000000E+00 0. -1.
         -2   -1    0    0    0  501 -0.00000000000E+00 -0.00000000000E+00 -0.37180568088E+02  0.37180568088E+02  0.00000000000E+00 0.  1.
         25    2    1    2    0    0 -0.10542248031E+03  0.24757502928E+01  0.28870344724E+03  0.33183874453E+03  0.12508894127E+03 0.  0.
          5    1    3    3  502    0 -0.59117015843E+02  0.28944832913E+02  0.26541914494E+03  0.27349116954E+03  0.41800000000E+01 0. -1.
         -5    1    3    3    0  502 -0.46305464466E+02 -0.26469082620E+02  0.23284302305E+02  0.58347574997E+02  0.41800000000E+01 0. -1.
        -11    1    1    2    0    0  0.58881835467E+02  0.16199944881E+02  0.82377269760E+02  0.10254522580E+03  0.00000000000E+00 0.  1.
         11    1    1    2    0    0  0.46540644842E+02 -0.18675695174E+02  0.10818239230E+03  0.11924027514E+03  0.00000000000E+00 0. -1.
</event>
<event>
 7    1  0.2690635E-009  0.1537420E+03  0.7561462E-02  0.1195949E+00
          1   -1    0    0  501    0  0.00000000000E+00  0.00000000000E+00  0.49994926389E+03  0.49994926389E+03  0.00000000000E+00 0. -1.
         -1   -1    0    0    0  501 -0.00000000000E+00 -0.00000000000E+00 -0.63210564639E+02  0.63210564639E+02  0.00000000000E+00 0.  1.
         25    2    1    2    0    0 -0.12860768170E+03 -0.59462137652E+02  0.26524572617E+03  0.32569653829E+03  0.12508900111E+03 0.  0.
          5    1    3    3  502    0 -0.96489502725E+02 -0.64137983467E+02  0.26884139251E+03  0.29277477997E+03  0.41800000000E+01 0.  1.
         -5    1    3    3    0  502 -0.32118178976E+02  0.46758458148E+01 -0.35956663394E+01  0.32921758325E+02  0.41800000000E+01 0.  1.
        -11    1    1    2    0    0  0.38720772244E+02  0.56992187431E+02  0.45107366416E+02  0.82353397843E+02  0.00000000000E+00 0.  1.
         11    1    1    2    0    0  0.89886909456E+02  0.24699502211E+01  0.12638560667E+03  0.15510989239E+03  0.00000000000E+00 0. -1.
</event>
<event>
 7    1  0.3044935E-009  0.1129271E+03  0.7561462E-02  0.1255243E+00
          3   -1    0    0  501    0  0.00000000000E+00  0.00000000000E+00  0.33390666668E+03  0.33390666668E+03  0.00000000000E+00 0. -1.
         -3   -1    0    0    0  501 -0.00000000000E+00 -0.00000000000E+00 -0.58540415748E+02  0.58540415748E+02  0.00000000000E+00 0.  1.
         25    2    1    2    0    0  0.73624898780E+02 -0.16354439423E+01  0.82718005576E+02  0.16707203816E+03  0.12508995599E+03 0.  0.
          5    1    3    3  502    0  0.91585332526E+02 -0.72365201200E+01  0.10368456430E+03  0.13859365654E+03  0.41800000000E+01 0.  1.
         -5    1    3    3    0  502 -0.17960433746E+02  0.56010761777E+01 -0.20966558729E+02  0.28478381619E+02  0.41800000000E+01 0.  1.
        -11    1    1    2    0    0 -0.34538951964E+02  0.44680105498E+02  0.11744054784E+03  0.13031321233E+03  0.00000000000E+00 0. -1.
         11    1    1    2    0    0 -0.39085946816E+02 -0.43044661556E+02  0.75207697515E+02  0.95061831944E+02  0.00000000000E+00 0.  1.
</event>
<event>
 7    1  0.2690635E-009  0.1020798E+03  0.7561462E-02  0.1275982E+00
         -1   -1    0    0    0  501 -0.00000000000E+00  0.00000000000E+00  0.37504056647E+03  0.37504056647E+03  0.00000000000E+00 0.  1.
          1   -1    0    0  501    0  0.00000000000E+00 -0.00000000000E+00 -0.35587814647E+02  0.35587814647E+02  0.00000000000E+00 0. -1.
         25    2    1    2    0    0  0.39240134299E+02 -0.16917845367E+02  0.19900627983E+03  0.23890795861E+03  0.12509001416E+03 0.  0.
          5    1    3    3  502    0 -0.25390239278E+02 -0.52079574574E+02  0.78537104436E+02  0.97685697579E+02  0.41800000000E+01 0.  1.
         -5    1    3    3    0  502  0.64630373578E+02  0.35161729207E+02  0.12046917540E+03  0.14122226103E+03  0.41800000000E+01 0.  1.
        -11    1    1    2    0    0  0.59865337629E+01  0.25627538684E+02  0.26737214628E+01  0.26452941461E+02  0.00000000000E+00 0. -1.
         11    1    1    2    0    0 -0.45226668062E+02 -0.87096933168E+01  0.13777275052E+03  0.14526748104E+03  0.00000000000E+00 0.  1.
</event>
<event>
 7    1  0.2690635E-009  0.1242135E+03  0.7561462E-02  0.1236304E+00
         -2   -1    0    0    0  501 -0.00000000000E+00  0.00000000000E+00  0.14342936119E+03  0.14342936119E+03  0.00000000000E+00 0.  1.
          2   -1    0    0  501    0  0.00000000000E+00 -0.00000000000E+00 -0.19022348272E+03  0.19022348272E+03  0.00000000000E+00 0. -1.
         25    2    1    2    0    0 -0.51953514565E+02  0.87707880619E+02  0.46571752569E+02  0.16795462753E+03  0.12509192129E+03 0.  0.
          5    1    3    3  502    0 -0.71892857824E+01  0.71105422941E+02  0.81629205498E+02  0.10857470512E+03  0.41800000000E+01 0. -1.
         -5    1    3    3    0  502 -0.44764228782E+02  0.16602457677E+02 -0.35057452929E+02  0.59379922409E+02  0.41800000000E+01 0. -1.
        -11    1    1    2    0    0  0.25134289854E+02 -0.97248975353E+02 -0.93506882759E+02  0.13723204020E+03  0.00000000000E+00 0. -1.
         11    1    1    2    0    0  0.26819224711E+02  0.95410947345E+01  0.14100865532E+00  0.28466176180E+02  0.00000000000E+00 0.  1.
</event>
<event>
 7    1  0.2690635E-009  0.1053229E+03  0.7561462E-02  0.1269485E+00
         -1   -1    0    0    0  501 -0.00000000000E+00  0.00000000000E+00  0.36307159423E+02  0.36307159423E+02  0.00000000000E+00 0.  1.
          1   -1    0    0  501    0  0.00000000000E+00 -0.00000000000E+00 -0.41337020161E+03  0.41337020161E+03  0.00000000000E+00 0. -1.
         25    2    1    2    0    0  0.40459133156E+02 -0.11213011742E+02 -0.28612388091E+03  0.31508044116E+03  0.12508451577E+03 0.  0.
          5    1    3    3  502    0 -0.10243495496E+02 -0.59730390887E+02 -0.15104877932E+03  0.16280618824E+03  0.41800000000E+01 0. -1.
         -5    1    3    3    0  502  0.50702628652E+02  0.48517379146E+02 -0.13507510159E+03  0.15227425292E+03  0.41800000000E+01 0. -1.
        -11    1    1    2    0    0 -0.15425768358E+01 -0.25827026355E+02  0.33363851864E+01  0.26087282337E+02  0.00000000000E+00 0.  1.
         11    1    1    2    0    0 -0.38916556320E+02  0.37040038096E+02 -0.94275546459E+02  0.10850963754E+03  0.00000000000E+00 0. -1.
</event>
<event>
 7    1  0.2690635E-009  0.1077847E+03  0.7561462E-02  0.1264728E+00
          1   -1    0    0  501    0  0.00000000000E+00  0.00000000000E+00  0.46514602293E+03  0.46514602293E+03  0.00000000000E+00 0. -1.
         -1   -1    0    0    0  501 -0.00000000000E+00 -0.00000000000E+00 -0.41327247906E+02  0.41327247906E+02  0.00000000000E+00 0.  1.
         25    2    1    2    0    0 -0.73766269135E+01 -0.37935833056E+02  0.37021056178E+03  0.39267772585E+03  0.12508554782E+03 0.  0.
          5    1    3    3  502    0  0.51839984219E+02 -0.11929290552E+02  0.25468206381E+03  0.26021167914E+03  0.41800000000E+01 0. -1.
         -5    1    3    3    0  502 -0.59216611133E+02 -0.26006542504E+02  0.11552849797E+03  0.13246604671E+03  0.41800000000E+01 0. -1.
        -11    1    1    2    0    0  0.39013581676E+01  0.67509797083E+02  0.23870301904E+02  0.71711816395E+02  0.00000000000E+00 0. -1.
         11    1    1    2    0    0  0.34752687459E+01 -0.29573964027E+02  0.29737911340E+02  0.42083728589E+02  0.00000000000E+00 0.  1.
</event>
<event>
 7    1  0.2690635E-009  0.1071000E+03  0.7561462E-02  0.1266036E+00
         -1   -1    0    0    0  501 -0.00000000000E+00  0.00000000000E+00  0.23573046170E+02  0.23573046170E+02  0.00000000000E+00 0.  1.
          1   -1    0    0  501    0  0.00000000000E+00 -0.00000000000E+00 -0.74152310931E+03  0.74152310931E+03  0.00000000000E+00 0. -1.
         25    2    1    2    0    0 -0.17345871638E+02  0.39945594654E+02 -0.58274093419E+03  0.59760416814E+03  0.12508883085E+03 0.  0.
          5    1    3    3  502    0  0.47848924936E+02  0.16946374852E+02 -0.37913742449E+03  0.38254327635E+03  0.41800000000E+01 0. -1.
         -5    1    3    3    0  502 -0.65194796574E+02  0.22999219801E+02 -0.20360350970E+03  0.21506089178E+03  0.41800000000E+01 0. -1.
        -11    1    1    2    0    0  0.10732746230E+02  0.25793392874E+02 -0.66697750681E+02  0.72312384164E+02  0.00000000000E+00 0. -1.
         11    1    1    2    0    0  0.66131254080E+01 -0.65738987527E+02 -0.68511378276E+02  0.95179603183E+02  0.00000000000E+00 0.  1.
</event>
<event>
 7    1  0.2690635E-009  0.1275496E+03  0.7561462E-02  0.1231138E+00
          1   -1    0    0  501    0  0.00000000000E+00  0.00000000000E+00  0.12162904339E+04  0.12162904339E+04  0.00000000000E+00 0. -1.
         -1   -1    0    0    0  501 -0.00000000000E+00 -0.00000000000E+00 -0.25236007532E+02  0.25236007532E+02  0.00000000000E+00 0.  1.
         25    2    1    2    0    0 -0.92750802507E+02  0.61740101088E+01  0.98852042569E+03  0.10007297963E+04  0.12508662363E+03 0.  0.
          5    1    3    3  502    0 -0.15022745445E+02 -0.35132138988E+02  0.89549218557E+02  0.97449910286E+02  0.41800000000E+01 0.  1.
         -5    1    3    3    0  502 -0.77728057062E+02  0.41306149096E+02  0.89897120713E+03  0.90327988600E+03  0.41800000000E+01 0.  1.
        -11    1    1    2    0    0  0.26541479070E+02  0.39869170091E+02  0.57363232098E+02  0.74729788115E+02  0.00000000000E+00 0.  1.
         11    1    1    2    0    0  0.66209323437E+02 -0.46043180200E+02  0.14517076860E+03  0.16606685705E+03  0.00000000000E+00 0. -1.
</event>
<event>
 7    1  0.2690635E-009  0.8916223E+02  0.7561462E-02  0.1304893E+00
          1   -1    0    0  501    0  0.00000000000E+00  0.00000000000E+00  0.34588822720E+03  0.34588822720E+03  0.00000000000E+00 0. -1.
         -1   -1    0    0    0  501 -0.00000000000E+00 -0.00000000000E+00 -0.90319270352E+02  0.90319270352E+02  0.00000000000E+00 0.  1.
         25    2    1    2    0    0 -0.63095830143E+02 -0.11596231683E+02 -0.20748671370E+02  0.14210012191E+03  0.12508549441E+03 0.  0.
          5    1    3    3  502    0 -0.13033590703E+02  0.15811448417E+02  0.48173465450E+02  0.52516964508E+02  0.41800000000E+01 0.  1.
         -5    1    3    3    0  502 -0.50062239440E+02 -0.27407680100E+02 -0.68922136820E+02  0.89583157402E+02  0.41800000000E+01 0.  1.
        -11    1    1    2    0    0  0.42727349254E+02  0.44369634440E+02  0.15459339045E+03  0.16641336246E+03  0.00000000000E+00 0.  1.
         11    1    1    2    0    0  0.20368480889E+02 -0.32773402757E+02  0.12172423777E+03  0.12769401318E+03  0.00000000000E+00 0. -1.
</event>
<event>
 7    1  0.2690635E-009  0.1041321E+03  0.7561462E-02  0.1271839E+00
         -1   -1    0    0    0  501 -0.00000000000E+00  0.00000000000E+00  0.27107759142E+02  0.27107759142E+02  0.00000000000E+00 0.  1.
          1   -1    0    0  501    0  0.00000000000E+00 -0.00000000000E+00 -0.52177413338E+03  0.52177413338E+03  0.00000000000E+00 0. -1.
         25    2    1    2    0    0 -0.41275636001E+02 -0.21862615919E+02 -0.24589029388E+03  0.27980949554E+03  0.12509862138E+03 0.  0.
          5    1    3    3  502    0 -0.29240346082E+02 -0.67892558928E+02 -0.88788515243E+02  0.11560826197E+03  0.41800000000E+01 0.  1.
         -5    1    3    3    0  502 -0.12035289919E+02  0.46029943008E+02 -0.15710177863E+03  0.16420123357E+03  0.41800000000E+01 0.  1.
        -11    1    1    2    0    0  0.38512058476E+02  0.47232877721E+02 -0.22847160764E+03  0.23646014228E+03  0.00000000000E+00 0. -1.
         11    1    1    2    0    0  0.27635775252E+01 -0.25370261802E+02 -0.20304472720E+02  0.32612254707E+02  0.00000000000E+00 0.  1.
</event>
<event>
 7    1  0.2690635E-009  0.9746819E+02  0.7561462E-02  0.1285712E+00
          2   -1    0    0  501    0  0.00000000000E+00  0.00000000000E+00  0.17780377070E+03  0.17780377070E+03  0.00000000000E+00 0. -1.
         -2   -1    0    0    0  501 -0.00000000000E+00 -0.00000000000E+00 -0.90401421831E+02  0.90401421831E+02  0.00000000000E+00 0.  1.
         25    2    1    2    0    0  0.46180768389E+02 -0.27170623316E+02  0.99203332103E+01  0.13644447125E+03  0.12509106517E+03 0.  0.
          5    1    3    3  502    0  0.66624023600E+02 -0.19726248747E+02  0.53342530954E+02  0.87697111805E+02  0.41800000000E+01 0.  1.
         -5    1    3    3    0  502 -0.20443255211E+02 -0.74443745691E+01 -0.43422197744E+02  0.48747359449E+02  0.41800000000E+01 0.  1.
        -11    1    1    2    0    0 -0.18508477129E+00  0.51253831713E+02  0.22004259340E+02  0.55777925300E+02  0.00000000000E+00 0.  1.
         11    1    1    2    0    0 -0.45995683618E+02 -0.24083208397E+02  0.55477756314E+02  0.75982795973E+02  0.00000000000E+00 0. -1.
</event>
<event>
 7    1  0.2690635E-009  0.2052241E+03  0.7561462E-02  0.1145405E+00
         -1   -1    0    0    0  501 -0.00000000000E+00  0.00000000000E+00  0.27465195729E+03  0.27465195729E+03  0.00000000000E+00 0.  1.
          1   -1    0    0  501    0  0.00000000000E+00 -0.00000000000E+00 -0.21262760528E+03  0.21262760528E+03  0.00000000000E+00 0. -1.
         25    2    1    2    0    0 -0.11665160689E+03  0.15026109244E+03  0.13587545840E+03  0.26513138115E+03  0.12508603353E+03 0.  0.
          5    1    3    3  502    0 -0.10051159087E+02  0.60868579440E+02 -0.10976323926E+02  0.62800970128E+02  0.41800000000E+01 0. -1.
         -5    1    3    3    0  502 -0.10660044780E+03  0.89392513002E+02  0.14685178233E+03  0.20233041102E+03  0.41800000000E+01 0. -1.
        -11    1    1    2    0    0  0.96134089129E+02 -0.16004579044E+03 -0.63862258763E+02  0.19731904679E+03  0.00000000000E+00 0.  1.
         11    1    1    2    0    0  0.20517517757E+02  0.97846979994E+01 -0.99888476255E+01  0.24829134635E+02  0.00000000000E+00 0. -1.
</event>
<event>
 7    1  0.2690635E-009  0.2111701E+03  0.7561462E-02  0.1140643E+00
          2   -1    0    0  501    0  0.00000000000E+00  0.00000000000E+00  0.10632287610E+03  0.10632287610E+03  0.00000000000E+00 0. -1.
         -2   -1    0    0    0  501 -0.00000000000E+00 -0.00000000000E+00 -0.51971843835E+03  0.51971843835E+03  0.00000000000E+00 0.  1.
         25    2    1    2    0    0  0.11264673402E+02  0.18975430829E+03 -0.10619372379E+03  0.25111453562E+03  0.12509121731E+03 0.  0.
          5    1    3    3  502    0 -0.41624618608E+02  0.13074231811E+03 -0.10313886896E+03  0.17170108127E+03  0.41800000000E+01 0. -1.
         -5    1    3    3    0  502  0.52889292010E+02  0.59011990180E+02 -0.30548548286E+01  0.79413454353E+02  0.41800000000E+01 0. -1.
        -11    1    1    2    0    0  0.32252319279E+02 -0.11265310971E+03 -0.11935583595E+03  0.16726252062E+03  0.00000000000E+00 0. -1.
         11    1    1    2    0    0 -0.43516992680E+02 -0.77101198579E+02 -0.18784600252E+03  0.20766425820E+03  0.00000000000E+00 0.  1.
</event>
<event>
 7    1  0.2690635E-009  0.1557128E+03  0.7561462E-02  0.1193624E+00
         -2   -1    0    0    0  501 -0.00000000000E+00  0.00000000000E+00  0.22136101864E+03  0.22136101864E+03  0.00000000000E+00 0.  1.
          2   -1    0    0  501    0  0.00000000000E+00 -0.00000000000E+00 -0.12081133398E+03  0.12081133398E+03  0.00000000000E+00 0. -1.
         25    2    1    2    0    0 -0.21639570151E+02 -0.11793960199E+03  0.73512296919E+02  0.18822684143E+03  0.12508902959E+03 0.  0.
          5    1    3    3  502    0  0.41484768574E+02 -0.76328615821E+02  0.71315801763E+02  0.11247426194E+03  0.41800000000E+01 0. -1.
         -5    1    3    3    0  502 -0.63124338724E+02 -0.41610986174E+02  0.21964951562E+01  0.75752579499E+02  0.41800000000E+01 0. -1.
        -11    1    1    2    0    0  0.90379921675E+01 -0.13741802913E+02  0.12912285382E+02  0.20910513229E+02  0.00000000000E+00 0.  1.
         11    1    1    2    0    0  0.12601577983E+02  0.13168140491E+03  0.14125102357E+02  0.13303499796E+03  0.00000000000E+00 0. -1.
</event>
<event>
 7    1  0.2690635E-009  0.7585976E+02  0.7561462E-02  0.1341229E+00
         -2   -1    0    0    0  501 -0.00000000000E+00  0.00000000000E+00  0.98301078193E+02  0.98301078193E+02  0.00000000000E+00 0. -1.
          2   -1    0    0  501    0  0.00000000000E+00 -0.00000000000E+00 -0.14428224472E+03  0.14428224472E+03  0.00000000000E+00 0.  1.
         25    2    1    2    0    0 -0.38421448117E+02 -0.21316356346E+02 -0.52773338779E+02  0.14269988801E+03  0.12509051934E+03 0.  0.
          5    1    3    3  502    0 -0.36797361851E+02  0.12453041080E+02  0.32533232018E+02  0.50842970575E+02  0.41800000000E+01 0. -1.
         -5    1    3    3    0  502 -0.16240862662E+01 -0.33769397426E+02 -0.85306570797E+02  0.91856917430E+02  0.41800000000E+01 0. -1.
        -11    1    1    2    0    0 -0.33930922862E+01 -0.19711216508E+02 -0.25957664366E+02  0.32769581487E+02  0.00000000000E+00 0.  1.
         11    1    1    2    0    0  0.41814540404E+02  0.41027572854E+02  0.32749836613E+02  0.67113853425E+02  0.00000000000E+00 0. -1.
</event>
<event>
 7    1  0.2690635E-009  0.1224030E+03  0.7561462E-02  0.1239185E+00
         -2   -1    0    0    0  501 -0.00000000000E+00  0.00000000000E+00  0.61274901873E+03  0.61274901873E+03  0.00000000000E+00 0.  1.
          2   -1    0    0  501    0  0.00000000000E+00 -0.00000000000E+00 -0.26709143909E+02  0.26709143909E+02  0.00000000000E+00 0. -1.
         25    2    1    2    0    0 -0.67552195894E+02  0.91946230288E+01  0.31692474764E+03  0.34747555460E+03  0.12510046010E+03 0.  0.
          5    1    3    3  502    0 -0.69955652281E+02  0.57064194672E+02  0.24311892292E+03  0.25937308781E+03  0.41800000000E+01 0. -1.
         -5    1    3    3    0  502  0.24034563869E+01 -0.47869571644E+02  0.73805824719E+02  0.88102466790E+02  0.41800000000E+01 0. -1.
        -11    1    1    2    0    0 -0.38090917547E+01 -0.31363645302E+02  0.13303754688E+03  0.13673761847E+03  0.00000000000E+00 0.  1.
         11    1    1    2    0    0  0.71361287649E+02  0.22169022273E+02  0.13607758031E+03  0.15524498957E+03  0.00000000000E+00 0. -1.
</event>
<event>
 7    1  0.3203883E-009  0.9972589E+02  0.7561462E-02  0.1280873E+00
          2   -1    0    0  501    0  0.00000000000E+00  0.00000000000E+00  0.13993694039E+04  0.13993694039E+04  0.00000000000E+00 0. -1.
         -2   -1    0    0    0  501 -0.00000000000E+00 -0.00000000000E+00 -0.12543704121E+02  0.12543704121E+02  0.00000000000E+00 0.  1.
         25    2    1    2    0    0 -0.33281215732E+02  0.28451853198E+02  0.10952938326E+04  0.11032824413E+04  0.12508564367E+03 0.  0.
          5    1    3    3  502    0  0.43587084973E+01  0.72193152328E+02  0.50688109835E+03  0.51203200080E+03  0.41800000000E+01 0. -1.
         -5    1    3    3    0  502 -0.37639924230E+02 -0.43741299130E+02  0.58841273425E+03  0.59125044049E+03  0.41800000000E+01 0. -1.
        -11    1    1    2    0    0  0.22724690321E+02 -0.44484372101E+02  0.28342465211E+03  0.28779298869E+03  0.00000000000E+00 0. -1.
         11    1    1    2    0    0  0.10556525411E+02  0.16032518903E+02  0.81072151014E+01  0.20837678082E+02  0.00000000000E+00 0.  1.
</event>
<event>
 7    1  0.2690635E-009  0.1097062E+03  0.7561462E-02  0.1261115E+00
         -1   -1    0    0    0  501 -0.00000000000E+00  0.00000000000E+00  0.51917862931E+02  0.51917862931E+02  0.00000000000E+00 0.  1.
          1   -1    0    0  501    0  0.00000000000E+00 -0.00000000000E+00 -0.24555083900E+03  0.24555083900E+03  0.00000000000E+00 0. -1.
         25    2    1    2    0    0 -0.18026180431E+01  0.10623314615E+02 -0.13582934062E+03  0.18497096711E+03  0.12509414317E+03 0.  0.
          5    1    3    3  502    0 -0.37254870530E+02  0.55847494197E+02 -0.82678394119E+02  0.10658356928E+03  0.41800000000E+01 0.  1.
         -5    1    3    3    0  502  0.35452252487E+02 -0.45224179581E+02 -0.53150946497E+02  0.78387397831E+02  0.41800000000E+01 0.  1.
        -11    1    1    2    0    0  0.13289447744E+02 -0.50923070525E+02 -0.20787624475E+02  0.56585279573E+02  0.00000000000E+00 0.  1.
         11    1    1    2    0    0 -0.11486829701E+02  0.40299755909E+02 -0.37016010974E+02  0.55912455244E+02  0.00000000000E+00 0. -1.
</event>
<event>
 7    1  0.2690635E-009  0.9388417E+02  0.7561462E-02  0.1293709E+00
          1   -1    0    0  501    0  0.00000000000E+00  0.00000000000E+00  0.26391480367E+03  0.26391480367E+03  0.00000000000E+00 0. -1.
         -1   -1    0    0    0  501 -0.00000000000E+00 -0.00000000000E+00 -0.87822947859E+02  0.87822947859E+02  0.00000000000E+00 0.  1.
         25    2    1    2    0    0 -0.10268169071E+02 -0.50356189683E+02 -0.13694346948E+02  0.13591771196E+03  0.12507960725E+03 0.  0.
          5    1    3    3  502    0 -0.20550067555E+02 -0.66005984408E+02 -0.56259486570E+02  0.89228344619E+02  0.41800000000E+01 0. -1.
         -5    1    3    3    0  502  0.10281898483E+02  0.15649794725E+02  0.42565139622E+02  0.46689367338E+02  0.41800000000E+01 0. -1.
        -11    1    1    2    0    0 -0.17443945947E+02  0.65473677251E+02  0.15308850821E+03  0.16741321635E+03  0.00000000000E+00 0. -1.
         11    1    1    2    0    0  0.27712115018E+02 -0.15117487568E+02  0.36697694545E+02  0.48406823218E+02  0.00000000000E+00 0.  1.
</event>
<event>
 7    1  0.2690635E-009  0.1281931E+03  0.7561462E-02  0.1230162E+00
         -1   -1    0    0    0  501 -0.00000000000E+00  0.00000000000E+00  0.37709050946E+02  0.37709050946E+02  0.00000000000E+00 0.  1.
          1   -1    0    0  501    0  0.00000000000E+00 -0.00000000000E+00 -0.53672986621E+03  0.53672986621E+03  0.00000000000E+00 0. -1.
         25    2    1    2    0    0  0.51118027488E+02  0.54360099285E+02 -0.35418219471E+03  0.38296046176E+03  0.12508243319E+03 0.  0.
          5    1    3    3  502    0  0.70457211313E+02  0.78149727198E+02 -0.20347328953E+03  0.22910794495E+03  0.41800000000E+01 0. -1.
         -5    1    3    3    0  502 -0.19339183826E+02 -0.23789627913E+02 -0.15070890518E+03  0.15385251681E+03  0.41800000000E+01 0. -1.
        -11    1    1    2    0    0  0.30155617006E+01  0.24391095363E+02 -0.10758814778E+02  0.26828552715E+02  0.00000000000E+00 0. -1.
         11    1    1    2    0    0 -0.54133589188E+02 -0.78751194648E+02 -0.13407980578E+03  0.16464990268E+03  0.00000000000E+00 0.  1.
</event>
<event>
 7    1  0.2690635E-009  0.1088355E+03  0.7561462E-02  0.1262742E+00
          2   -1    0    0  501    0  0.00000000000E+00  0.00000000000E+00  0.73042980771E+03  0.73042980771E+03  0.00000000000E+00 0. -1.
         -2   -1    0    0    0  501 -0.00000000000E+00 -0.00000000000E+00 -0.18375029046E+02  0.18375029046E+02  0.00000000000E+00 0.  1.
         25    2    1    2    0    0  0.11279375055E+02 -0.36847250522E+02  0.34214594618E+03  0.36632963010E+03  0.12509438529E+03 0.  0.
          5    1    3    3  502    0 -0.37488651979E+02 -0.57309137073E+02  0.25706963252E+03  0.26606766918E+03  0.41800000000E+01 0. -1.
         -5    1    3    3    0  502  0.48768027034E+02  0.20461886551E+02  0.85076313661E+02  0.10026196092E+03  0.41800000000E+01 0. -1.
        -11    1    1    2    0    0 -0.28346233433E+02 -0.21269878202E+02  0.10851631796E+03  0.11415650631E+03  0.00000000000E+00 0.  1.
         11    1    1    2    0    0  0.17066858378E+02  0.58117128724E+02  0.26139251453E+03  0.26831870035E+03  0.00000000000E+00 0. -1.
</event>
<event>
 7    1  0.2690635E-009  0.9453727E+02  0.7561462E-02  0.1292222E+00
         -2   -1    0    0    0  501 -0.00000000000E+00  0.00000000000E+00  0.10272886627E+03  0.10272886627E+03  0.00000000000E+00 0.  1.
          2   -1    0    0  501    0  0.00000000000E+00 -0.00000000000E+00 -0.11565984965E+03  0.11565984965E+03  0.00000000000E+00 0. -1.
         25    2    1    2    0    0  0.71531051687E+01  0.12311584470E+02 -0.74507684123E+01  0.12611583632E+03  0.12508776197E+03 0.  0.
          5    1    3    3  502    0 -0.39002721738E+02  0.45971160349E+02  0.18546365748E+02  0.63213922274E+02  0.41800000000E+01 0.  1.
         -5    1    3    3    0  502  0.46155826907E+02 -0.33659575879E+02 -0.25997134161E+02  0.62901914044E+02  0.41800000000E+01 0.  1.
        -11    1    1    2    0    0 -0.37386774350E+02 -0.16455406339E+02  0.26007044872E+02  0.48424350042E+02  0.00000000000E+00 0.  1.
         11    1    1    2    0    0  0.30233669181E+02  0.41438218684E+01 -0.31487259839E+02  0.43848529553E+02  0.00000000000E+00 0. -1.
</event>
<event>
 7    1  0.2690635E-009  0.1094400E+03  0.7561462E-02  0.1261610E+00
         -2   -1    0    0    0  501 -0.00000000000E+00  0.00000000000E+00  0.41369014535E+03  0.41369014535E+03  0.00000000000E+00 0.  1.
          2   -1    0    0  501    0  0.00000000000E+00 -0.00000000000E+00 -0.43665457399E+02  0.43665457399E+02  0.00000000000E+00 0. -1.
         25    2    1    2    0    0 -0.20411449942E+02 -0.33989397136E+00  0.33380993986E+03  0.35706189799E+03  0.12508948887E+03 0.  0.
          5    1    3    3  502    0 -0.40750831988E+02  0.53654710249E+02  0.15319234086E+03  0.16740616458E+03  0.41800000000E+01 0. -1.
         -5    1    3    3    0  502  0.20339382046E+02 -0.53994604220E+02  0.18061759900E+03  0.18965573341E+03  0.41800000000E+01 0. -1.
        -11    1    1    2    0    0 -0.30399995530E+01 -0.43606884623E+02  0.17240003712E+02  0.46989570245E+02  0.00000000000E+00 0. -1.
         11    1    1    2    0    0  0.23451449495E+02  0.43946778594E+02  0.18974744375E+02  0.53304134515E+02  0.00000000000E+00 0.  1.
</event>
<event>
 7    1  0.2690635E-009  0.7374667E+02  0.7561462E-02  0.1347797E+00
         -2   -1    0    0    0  501 -0.00000000000E+00  0.00000000000E+00  0.47972397589E+03  0.47972397589E+03  0.00000000000E+00 0.  1.
          2   -1    0    0  501    0  0.00000000000E+00 -0.00000000000E+00 -0.25080439240E+02  0.25080439240E+02  0.00000000000E+00 0. -1.
         25    2    1    2    0    0 -0.30711032099E+01 -0.24704324484E+01  0.24692117974E+03  0.27682711950E+03  0.12509056869E+03 0.  0.
          5    1    3    3  502    0 -0.80000174897E+01  0.37039974019E+02  0.23037337945E+03  0.23350658731E+03  0.41800000000E+01 0.  1.
         -5    1    3    3    0  502  0.49289142799E+01 -0.39510406467E+02  0.16547800288E+02  0.43320532194E+02  0.41800000000E+01 0.  1.
        -11    1    1    2    0    0 -0.32370036590E+02 -0.59352420133E+01  0.24134016906E+02  0.40810502798E+02  0.00000000000E+00 0. -1.
         11    1    1    2    0    0  0.35441139800E+02  0.84056744617E+01  0.18358834000E+03  0.18716679283E+03  0.00000000000E+00 0.  1.
</event>
<event>
 7    1  0.2690635E-009  0.2120875E+03  0.7561462E-02  0.1139924E+00
         -2   -1    0    0    0  501 -0.00000000000E+00  0.00000000000E+00  0.61918556888E+02  0.61918556888E+02  0.00000000000E+00 0.  1.
          2   -1    0    0  501    0  0.00000000000E+00 -0.00000000000E+00 -0.86293238116E+03  0.86293238116E+03  0.00000000000E+00 0. -1.
         25    2    1    2    0    0 -0.18691287116E+03  0.79739304342E+02 -0.44616686581E+03  0.50597177722E+03  0.12509112331E+03 0.  0.
          5    1    3    3  502    0 -0.17296308467E+02  0.36042415571E+01  0.42739271914E+01  0.18651855067E+02  0.41800000000E+01 0.  1.
         -5    1    3    3    0  502 -0.16961656270E+03  0.76135062785E+02 -0.45044079300E+03  0.48731992215E+03  0.41800000000E+01 0.  1.
        -11    1    1    2    0    0  0.18158102195E+03 -0.47931687122E+02 -0.32253215869E+03  0.37322393754E+03  0.00000000000E+00 0.  1.
         11    1    1    2    0    0  0.53318492137E+01 -0.31807617220E+02 -0.32314799763E+02  0.45655223283E+02  0.00000000000E+00 0. -1.
</event>
<event>
 7    1  0.2690635E-009  0.1076831E+03  0.7561462E-02  0.1264921E+00
          1   -1    0    0  501    0  0.00000000000E+00  0.00000000000E+00  0.15994710836E+03  0.15994710836E+03  0.00000000000E+00 0. -1.
         -1   -1    0    0    0  501 -0.00000000000E+00 -0.00000000000E+00 -0.18499696557E+03  0.18499696557E+03  0.00000000000E+00 0.  1.
         25    2    1    2    0    0 -0.50233580236E+02 -0.97012664837E+01 -0.13823561548E+03  0.19331864133E+03  0.12508191133E+03 0.  0.
          5    1    3    3  502    0  0.90746068527E+01  0.43461071482E+02 -0.16027953584E+02  0.47387560815E+02  0.41800000000E+01 0. -1.
         -5    1    3    3    0  502 -0.59308187088E+02 -0.53162337965E+02 -0.12220766190E+03  0.14593108052E+03  0.41800000000E+01 0. -1.
        -11    1    1    2    0    0 -0.18950611916E+01 -0.27124385245E+02  0.75730925164E+01  0.28225436438E+02  0.00000000000E+00 0.  1.
         11    1    1    2    0    0  0.52128641427E+02  0.36825651729E+02  0.10561266576E+03  0.12339999616E+03  0.00000000000E+00 0. -1.
</event>
<event>
 7    1  0.3146255E-009  0.1296517E+03  0.7561462E-02  0.1227973E+00
          1   -1    0    0  501    0  0.00000000000E+00  0.00000000000E+00  0.84061136387E+03  0.84061136387E+03  0.00000000000E+00 0. -1.
         -1   -1    0    0    0  501 -0.00000000000E+00 -0.00000000000E+00 -0.31196489032E+02  0.31196489032E+02  0.00000000000E+00 0.  1.
         25    2    1    2    0    0 -0.11394935023E+03  0.34437232878E+02  0.47179153598E+03  0.50239930152E+03  0.12508967710E+03 0.  0.
          5    1    3    3  502    0 -0.75840129075E+02  0.17096633497E+02  0.93039205631E+02  0.12131688357E+03  0.41800000000E+01 0.  1.
         -5    1    3    3    0  502 -0.38109221160E+02  0.17340599381E+02  0.37875233035E+03  0.38108241795E+03  0.41800000000E+01 0.  1.
        -11    1    1    2    0    0  0.35687484014E+02 -0.48132717920E+02  0.80910566134E+02  0.10068204786E+03  0.00000000000E+00 0.  1.
         11    1    1    2    0    0  0.78261866221E+02  0.13695485043E+02  0.25671277272E+03  0.26872650352E+03  0.00000000000E+00 0. -1.
</event>
<event>
 7    1  0.2690635E-009  0.1047176E+03  0.7561462E-02  0.1270677E+00
         -2   -1    0    0    0  501 -0.00000000000E+00  0.00000000000E+00  0.36487475436E+02  0.36487475436E+02  0.00000000000E+00 0. -1.
          2   -1    0    0  501    0  0.00000000000E+00 -0.00000000000E+00 -0.36401983927E+03  0.36401983927E+03  0.00000000000E+00 0.  1.
         25    2    1    2    0    0 -0.85908249858E+01 -0.30795905212E+02 -0.15076533120E+03  0.19849398762E+03  0.12508991956E+03 0.  0.
          5    1    3    3  502    0  0.46838879754E+02 -0.30612032961E+02 -0.12542313428E+03  0.13740237345E+03  0.41800000000E+01 0.  1.
         -5    1    3    3    0  502 -0.55429704740E+02 -0.18387225077E+00 -0.25342196929E+02  0.61091614169E+02  0.41800000000E+01 0.  1.
        -11    1    1    2    0    0 -0.31559407427E+02 -0.16568904059E+02 -0.61298813593E+02  0.70908880451E+02  0.00000000000E+00 0.  1.
         11    1    1    2    0    0  0.40150232413E+02  0.47364809271E+02 -0.11546821904E+03  0.13110444664E+03  0.00000000000E+00 0. -1.
</event>
<event>
 7    1  0.2690635E-009  0.1061279E+03  0.7561462E-02  0.1267913E+00
          1   -1    0    0  501    0  0.00000000000E+00  0.00000000000E+00  0.20315105234E+03  0.20315105234E+03  0.00000000000E+00 0. -1.
         -1   -1    0    0    0  501 -0.00000000000E+00 -0.00000000000E+00 -0.10317112851E+03  0.10317112851E+03  0.00000000000E+00 0.  1.
         25    2    1    2    0    0  0.77491108246E+01  0.84784262615E+02  0.10275584512E+03  0.18290524225E+03  0.12508854476E+03 0.  0.
          5    1    3    3  502    0 -0.28503776289E+02  0.85601883085E+02  0.11331489895E+03  0.14490647458E+03  0.41800000000E+01 0.  1.
         -5    1    3    3    0  502  0.36252887114E+02 -0.81762046995E+00 -0.10559053825E+02  0.37998767677E+02  0.41800000000E+01 0.  1.
        -11    1    1    2    0    0 -0.79040977428E+01 -0.47776603232E+02 -0.45808536913E+02  0.66659587695E+02  0.00000000000E+00 0. -1.
         11    1    1    2    0    0  0.15498691816E+00 -0.37007659383E+02  0.43032615619E+02  0.56757350898E+02  0.00000000000E+00 0.  1.
</event>
<event>
 7    1  0.2690635E-009  0.7922415E+02  0.7561462E-02  0.1331268E+00
         -2   -1    0    0    0  501 -0.00000000000E+00  0.00000000000E+00  0.10255815351E+02  0.10255815351E+02  0.00000000000E+00 0. -1.
          2   -1    0    0  501    0  0.00000000000E+00 -0.00000000000E+00 -0.12909590473E+04  0.12909590473E+04  0.00000000000E+00 0.  1.
         25    2    1    2    0    0  0.15004000771E+02 -0.74290655811E+01 -0.93758641839E+03  0.94604255661E+03  0.12509163005E+03 0.  0.
          5    1    3    3  502    0 -0.12910983565E+02  0.26552648433E+02 -0.56824135317E+02  0.64173136046E+02  0.41800000000E+01 0. -1.
         -5    1    3    3    0  502  0.27914984336E+02 -0.33981714014E+02 -0.88076228308E+03  0.88186942057E+03  0.41800000000E+01 0. -1.
        -11    1    1    2    0    0  0.10991891435E+02  0.40741329370E+02 -0.24086661827E+03  0.24453508008E+03  0.00000000000E+00 0.  1.
         11    1    1    2    0    0 -0.25995892206E+02 -0.33312263789E+02 -0.10225019526E+03  0.11063722593E+03  0.00000000000E+00 0. -1.
</event>
<event>
 7    1  0.2690635E-009  0.1437200E+03  0.7561462E-02  0.1208409E+00
          1   -1    0    0  501    0  0.00000000000E+00  0.00000000000E+00  0.12258862907E+03  0.12258862907E+03  0.00000000000E+00 0. -1.
         -1   -1    0    0    0  501 -0.00000000000E+00 -0.00000000000E+00 -0.18164751118E+03  0.18164751118E+03  0.00000000000E+00 0.  1.
         25    2    1    2    0    0  0.24821024508E+02 -0.96370561120E+02 -0.37960289652E+02  0.16429075583E+03  0.12508837098E+03 0.  0.
          5    1    3    3  502    0 -0.28871952466E+02  0.11630238890E+02  0.12073157246E+02  0.33646480079E+02  0.41800000000E+01 0.  1.
         -5    1    3    3    0  502  0.53692976974E+02 -0.10800080001E+03 -0.50033446898E+02  0.13064427576E+03  0.41800000000E+01 0.  1.
        -11    1    1    2    0    0 -0.22680941431E+02 -0.12877316949E+02  0.72279084652E+01  0.27064608934E+02  0.00000000000E+00 0. -1.
         11    1    1    2    0    0 -0.21400830775E+01  0.10924787807E+03 -0.28326500928E+02  0.11288077548E+03  0.00000000000E+00 0.  1.
</event>
<event>
 7    1  0.2690635E-009  0.7169486E+02  0.7561462E-02  0.1354423E+00
         -2   -1    0    0    0  501 -0.00000000000E+00  0.00000000000E+00  0.55807421682E+03  0.55807421682E+03  0.00000000000E+00 0.  1.
          2   -1    0    0  501    0  0.00000000000E+00 -0.00000000000E+00 -0.22204947055E+02  0.22204947055E+02  0.00000000000E+00 0. -1.
         25    2    1    2    0    0 -0.17705863592E+02  0.13936730526E+02  0.36962121368E+03  0.39086360661E+03  0.12508711887E+03 0.  0.
          5    1    3    3  502    0  0.19342243693E+02 -0.16903360807E+01  0.84556233744E+00  0.19878807883E+02  0.41800000000E+01 0.  1.
         -5    1    3    3    0  502 -0.37048107286E+02  0.15627066607E+02  0.36877565135E+03  0.37098479873E+03  0.41800000000E+01 0.  1.
        -11    1    1    2    0    0 -0.19383156195E+02 -0.35321762503E+02  0.42921794156E+02  0.58869466313E+02  0.00000000000E+00 0. -1.
         11    1    1    2    0    0  0.37089019787E+02  0.21385031977E+02  0.12332626192E+03  0.13054609095E+03  0.00000000000E+00 0.  1.
</event>
<event>
 7    1  0.2690635E-009  0.1928085E+03  0.7561462E-02  0.1155952E+00
         -1   -1    0    0    0  501 -0.00000000000E+00  0.00000000000E+00  0.39741344631E+02  0.39741344631E+02  0.00000000000E+00 0.  1.
          1   -1    0    0  501    0  0.00000000000E+00 -0.00000000000E+00 -0.10617183510E+04  0.10617183510E+04  0.00000000000E+00 0. -1.
         25    2    1    2    0    0  0.15989489257E+03 -0.68968130348E+02 -0.50315603308E+03  0.54693325189E+03  0.12508800392E+03 0.  0.
          5    1    3    3  502    0  0.62573639115E+02  0.25872591368E+02 -0.25617350335E+03  0.26500412735E+03  0.41800000000E+01 0.  1.
         -5    1    3    3    0  502  0.97321253450E+02 -0.94840721716E+02 -0.24698252973E+03  0.28192912454E+03  0.41800000000E+01 0.  1.
        -11    1    1    2    0    0 -0.11912835223E+03  0.24736901353E+02 -0.23755806347E+03  0.26690318865E+03  0.00000000000E+00 0.  1.
         11    1    1    2    0    0 -0.40766540340E+02  0.44231228995E+02 -0.28126290977E+03  0.28762325505E+03  0.00000000000E+00 0. -1.
</event>
<event>
 7    1  0.2690635E-009  0.2473476E+03  0.7561462E-02  0.1114993E+00
          3   -1    0    0  501    0  0.00000000000E+00  0.00000000000E+00  0.38962449868E+03  0.38962449868E+03  0.00000000000E+00 0. -1.
         -3   -1    0    0    0  501 -0.00000000000E+00 -0.00000000000E+00 -0.18020907905E+03  0.18020907905E+03  0.00000000000E+00 0.  1.
         25    2    1    2    0    0  0.29679947194E+02 -0.23696312976E+03  0.65569762669E+02  0.27745159103E+03  0.12509023726E+03 0.  0.
          5    1    3    3  502    0  0.22587466590E+02 -0.22784099354E+03  0.93181918267E+02  0.24722874889E+03  0.41800000000E+01 0.  1.
         -5    1    3    3    0  502  0.70924806041E+01 -0.91221362178E+01 -0.27612155598E+02  0.30222842140E+02  0.41800000000E+01 0.  1.
        -11    1    1    2    0    0 -0.49878632099E+02  0.74240842644E+02  0.64163732703E+02  0.11007527084E+03  0.00000000000E+00 0. -1.
         11    1    1    2    0    0  0.20198684905E+02  0.16272228712E+03  0.79681924251E+02  0.18230671586E+03  0.00000000000E+00 0.  1.
</event>
<event>
 7    1  0.2690635E-009  0.1162485E+03  0.7561462E-02  0.1249417E+00
         -4   -1    0    0    0  501 -0.00000000000E+00  0.00000000000E+00  0.61042035749E+03  0.61042035749E+03  0.00000000000E+00 0. -1.
          4   -1    0    0  501    0  0.00000000000E+00 -0.00000000000E+00 -0.41112089927E+02  0.41112089927E+02  0.00000000000E+00 0.  1.
         25    2    1    2    0    0  0.54021674032E+02 -0.93542792796E+02  0.22396893437E+03  0.27834955600E+03  0.12509115243E+03 0.  0.
          5    1    3    3  502    0  0.51205925970E+02 -0.87438459234E+02  0.23995765957E+03  0.26050850618E+03  0.41800000000E+01 0.  1.
         -5    1    3    3    0  502  0.28157480624E+01 -0.61043335617E+01 -0.15988725198E+02  0.17841049824E+02  0.41800000000E+01 0.  1.
        -11    1    1    2    0    0 -0.45392315015E+01  0.66733269043E+02  0.27543106803E+03  0.28343642507E+03  0.00000000000E+00 0.  1.
         11    1    1    2    0    0 -0.49482442531E+02  0.26809523753E+02  0.69908265159E+02  0.89746466338E+02  0.00000000000E+00 0. -1.
</event>
<event>
 7    1  0.2690635E-009  0.8136628E+02  0.7561462E-02  0.1325218E+00
          2   -1    0    0  501    0  0.00000000000E+00  0.00000000000E+00  0.78624668432E+02  0.78624668432E+02  0.00000000000E+00 0. -1.
         -2   -1    0    0    0  501 -0.00000000000E+00 -0.00000000000E+00 -0.22312423549E+03  0.22312423549E+03  0.00000000000E+00 0.  1.
         25    2    1    2    0    0 -0.28092642401E+01 -0.41744127644E+02 -0.15484357384E+03  0.20340588355E+03  0.12508779695E+03 0.  0.
          5    1    3    3  502    0 -0.61026948982E+01  0.13536287639E+02  0.16914760632E+02  0.22892258415E+02  0.41800000000E+01 0.  1.
         -5    1    3    3    0  502  0.32934306581E+01 -0.55280415283E+02 -0.17175833447E+03  0.18051362513E+03  0.41800000000E+01 0.  1.
        -11    1    1    2    0    0 -0.39208191704E+02  0.25232491544E+02  0.22237640505E+02  0.51657270364E+02  0.00000000000E+00 0. -1.
         11    1    1    2    0    0  0.42017455944E+02  0.16511636099E+02 -0.11893633725E+02  0.46685750009E+02  0.00000000000E+00 0.  1.
</event>
<event>
 7    1  0.2690635E-009  0.1205706E+03  0.7561462E-02  0.1242159E+00
         -2   -1    0    0    0  501 -0.00000000000E+00  0.00000000000E+00  0.10263420792E+03  0.10263420792E+03  0.00000000000E+00 0.  1.
          2   -1    0    0  501    0  0.00000000000E+00 -0.00000000000E+00 -0.23193130786E+03  0.23193130786E+03  0.00000000000E+00 0. -1.
         25    2    1    2    0    0  0.73158834048E+02 -0.49477094926E+02 -0.13913258931E+03  0.20689161320E+03  0.12508422876E+03 0.  0.
          5    1    3    3  502    0 -0.17490566006E+02  0.28099467673E+02 -0.36564472829E+02  0.49496798441E+02  0.41800000000E+01 0. -1.
         -5    1    3    3    0  502  0.90649400053E+02 -0.77576562599E+02 -0.10256811648E+03  0.15739481476E+03  0.41800000000E+01 0. -1.
        -11    1    1    2    0    0 -0.12261421380E+02  0.99844665245E+01  0.44509488484E+02  0.47234802753E+02  0.00000000000E+00 0.  1.
         11    1    1    2    0    0 -0.60897412667E+02  0.39492628401E+02 -0.34673999114E+02  0.80439099835E+02  0.00000000000E+00 0. -1.
</event>
<event>
 7    1  0.2690635E-009  0.7874198E+02  0.7561462E-02  0.1332660E+00
         -2   -1    0    0    0  501 -0.00000000000E+00  0.00000000000E+00  0.38753970572E+02  0.38753970572E+02  0.00000000000E+00 0.  1.
          2   -1    0    0  501    0  0.00000000000E+00 -0.00000000000E+00 -0.35585614745E+03  0.35585614745E+03  0.00000000000E+00 0. -1.
         25    2    1    2    0    0  0.16190668467E+02 -0.36819436999E+02 -0.26739488696E+03  0.29793585387E+03  0.12509172141E+03 0.  0.
          5    1    3    3  502    0  0.42646568120E+02 -0.25174421704E+02 -0.26387973426E+03  0.26851902695E+03  0.41800000000E+01 0.  1.
         -5    1    3    3    0  502 -0.26455899654E+02 -0.11645015295E+02 -0.35151526948E+01  0.29416826922E+02  0.41800000000E+01 0.  1.
        -11    1    1    2    0    0 -0.38573073312E+02  0.38975956964E+01 -0.91312259108E+01  0.39830296554E+02  0.00000000000E+00 0.  1.
         11    1    1    2    0    0  0.22382404845E+02  0.32921841302E+02 -0.40576064010E+02  0.56843967595E+02  0.00000000000E+00 0. -1.
</event>
<event>
 7    1  0.2690635E-009  0.1230340E+03  0.7561462E-02  0.1238174E+00
          2   -1    0    0  501    0  0.00000000000E+00  0.00000000000E+00  0.25938929189E+03  0.25938929189E+03  0.00000000000E+00 0. -1.
         -2   -1    0    0    0  501 -0.00000000000E+00 -0.00000000000E+00 -0.16300712603E+03  0.16300712603E+03  0.00000000000E+00 0.  1.
         25    2    1    2    0    0  0.83880684710E+02  0.66452944416E+02  0.18762054229E+03  0.24960204729E+03  0.12509097103E+03 0.  0.
          5    1    3    3  502    0  0.61870283416E+02 -0.67022750507E+01  0.15377157794E+03  0.16593981753E+03  0.41800000000E+01 0.  1.
         -5    1    3    3    0  502  0.22010401294E+02  0.73155219467E+02  0.33848964352E+02  0.83662229758E+02  0.41800000000E+01 0.  1.
        -11    1    1    2    0    0 -0.61907959941E+02 -0.52374368273E+02 -0.11281407392E+03  0.13893410392E+03  0.00000000000E+00 0.  1.
         11    1    1    2    0    0 -0.21972724769E+02 -0.14078576143E+02  0.21575697487E+02  0.33860266716E+02  0.00000000000E+00 0. -1.
</event>
<event>
 7    1  0.2690635E-009  0.1381965E+03  0.7561462E-02  0.1215777E+00
         -1   -1    0    0    0  501 -0.00000000000E+00  0.00000000000E+00  0.95475036228E+02  0.95475036228E+02  0.00000000000E+00 0.  1.
          1   -1    0    0  501    0  0.00000000000E+00 -0.00000000000E+00 -0.34991972798E+03  0.34991972798E+03  0.00000000000E+00 0. -1.
         25    2    1    2    0    0  0.59279053088E+02  0.10442068330E+03 -0.24121698964E+03  0.29707077550E+03  0.12509086429E+03 0.  0.
          5    1    3    3  502    0  0.83993130791E+02  0.87637812191E+02 -0.11488128271E+03  0.16718377212E+03  0.41800000000E+01 0. -1.
         -5    1    3    3    0  502 -0.24714077703E+02  0.16782871113E+02 -0.12633570694E+03  0.12988700338E+03  0.41800000000E+01 0. -1.
        -11    1    1    2    0    0  0.54567737889E+00 -0.26616324745E+02  0.30838456279E+02  0.40739868586E+02  0.00000000000E+00 0.  1.
         11    1    1    2    0    0 -0.59824730467E+02 -0.77804358558E+02 -0.44066158386E+02  0.10758412012E+03  0.00000000000E+00 0. -1.
</event>
<event>
 7    1  0.2690635E-009  0.1087096E+03  0.7561462E-02  0.1262978E+00
         -2   -1    0    0    0  501 -0.00000000000E+00  0.00000000000E+00  0.24861447156E+03  0.24861447156E+03  0.00000000000E+00 0.  1.
          2   -1    0    0  501    0  0.00000000000E+00 -0.00000000000E+00 -0.63808980342E+02  0.63808980342E+02  0.00000000000E+00 0. -1.
         25    2    1    2    0    0 -0.48203092552E+02  0.46877216280E+02  0.11275461969E+03  0.18133462179E+03  0.12509048429E+03 0.  0.
          5    1    3    3  502    0 -0.84447173547E+02  0.56458483279E+02  0.65793851547E+02  0.12109991229E+03  0.41800000000E+01 0.  1.
         -5    1    3    3    0  502  0.36244080995E+02 -0.95812669994E+01  0.46960768147E+02  0.60234709507E+02  0.41800000000E+01 0.  1.
        -11    1    1    2    0    0 -0.30313665043E+01 -0.19895081778E+02  0.70335858442E+02  0.73158297169E+02  0.00000000000E+00 0.  1.
         11    1    1    2    0    0  0.51234459056E+02 -0.26982134502E+02  0.17150130839E+01  0.57930532942E+02  0.00000000000E+00 0. -1.
</event>
<event>
 7    1  0.2690635E-009  0.9068772E+02  0.7561462E-02  0.1301195E+00
         -2   -1    0    0    0  501 -0.00000000000E+00  0.00000000000E+00  0.58298245500E+02  0.58298245500E+02  0.00000000000E+00 0.  1.
          2   -1    0    0  501    0  0.00000000000E+00 -0.00000000000E+00 -0.26637200082E+03  0.26637200082E+03  0.00000000000E+00 0. -1.
         25    2    1    2    0    0  0.75410463105E-01  0.52263641354E+02 -0.15915697776E+03  0.20906060784E+03  0.12507557830E+03 0.  0.
          5    1    3    3  502    0 -0.45300908372E+02  0.63742247833E+02 -0.13537360494E+03  0.15639287635E+03  0.41800000000E+01 0.  1.
         -5    1    3    3    0  502  0.45376318836E+02 -0.11478606478E+02 -0.23783372815E+02  0.52667731489E+02  0.41800000000E+01 0.  1.
        -11    1    1    2    0    0  0.10116348615E+02 -0.26556243800E+02 -0.73378550867E+02  0.78689175377E+02  0.00000000000E+00 0. -1.
         11    1    1    2    0    0 -0.10191759078E+02 -0.25707397554E+02  0.24461773308E+02  0.36920463100E+02  0.00000000000E+00 0.  1.
</event>
<event>
 7    1  0.2690635E-009  0.1511952E+03  0.7561462E-02  0.1199012E+00
         -1   -1    0    0    0  501 -0.00000000000E+00  0.00000000000E+00  0.30840185867E+03  0.30840185867E+03  0.00000000000E+00 0.  1.
          1   -1    0    0  501    0  0.00000000000E+00 -0.00000000000E+00 -0.11168429634E+03  0.11168429634E+03  0.00000000000E+00 0. -1.
         25    2    1    2    0    0 -0.12751793398E+03 -0.11970016495E+02  0.14803181528E+02  0.17963926612E+03  0.12508807683E+03 0.  0.
          5    1    3    3  502    0 -0.26812894399E+02 -0.57567680331E+02  0.25362151717E+02  0.68510439091E+02  0.41800000000E+01 0.  1.
         -5    1    3    3    0  502 -0.10070503959E+03  0.45597663836E+02 -0.10558970189E+02  0.11112882703E+03  0.41800000000E+01 0.  1.
        -11    1    1    2    0    0  0.84554596607E+02  0.95086227400E+01  0.17793099289E+03  0.19722913564E+03  0.00000000000E+00 0.  1.
         11    1    1    2    0    0  0.42963337378E+02  0.24613937552E+01  0.39833879124E+01  0.43217753263E+02  0.00000000000E+00 0. -1.
</event>
<event>
 7    1  0.2690635E-009  0.7171553E+02  0.7561462E-02  0.1354355E+00
          3   -1    0    0  501    0  0.00000000000E+00  0.00000000000E+00  0.27363922002E+02  0.27363922002E+02  0.00000000000E+00 0. -1.
         -3   -1    0    0    0  501 -0.00000000000E+00 -0.00000000000E+00 -0.45724193143E+03  0.45724193143E+03  0.00000000000E+00 0.  1.
         25    2    1    2    0    0 -0.13997132568E+02 -0.78825102283E+01 -0.27246256398E+03  0.30023515575E+03  0.12508895352E+03 0.  0.
          5    1    3    3  502    0  0.13242114078E+02  0.27768110493E+02 -0.24605723477E+03  0.24800817876E+03  0.41800000000E+01 0.  1.
         -5    1    3    3    0  502 -0.27239246646E+02 -0.35650620721E+02 -0.26405329207E+02  0.52226976996E+02  0.41800000000E+01 0.  1.
        -11    1    1    2    0    0 -0.17986066074E+02  0.25194890723E+02 -0.14119610177E+03  0.14454971548E+03  0.00000000000E+00 0. -1.
         11    1    1    2    0    0  0.31983198642E+02 -0.17312380495E+02 -0.16219343679E+02  0.39820982197E+02  0.00000000000E+00 0.  1.
</event>
<event>
 7    1  0.2690635E-009  0.1111389E+03  0.7561462E-02  0.1258475E+00
          2   -1    0    0  501    0  0.00000000000E+00  0.00000000000E+00  0.94185688680E+03  0.94185688680E+03  0.00000000000E+00 0. -1.
         -2   -1    0    0    0  501 -0.00000000000E+00 -0.00000000000E+00 -0.36087223460E+02  0.36087223460E+02  0.00000000000E+00 0.  1.
         25    2    1    2    0    0 -0.64195607187E+02  0.83058605148E+02  0.76006254602E+03  0.77740713199E+03  0.12508783768E+03 0.  0.
          5    1    3    3  502    0 -0.37385394477E+01  0.10788641434E+02  0.66735509775E+00  0.12177406293E+02  0.41800000000E+01 0.  1.
         -5    1    3    3    0  502 -0.60457067739E+02  0.72269963714E+02  0.75939519093E+03  0.76522972570E+03  0.41800000000E+01 0.  1.
        -11    1    1    2    0    0  0.36049840160E+02 -0.98515094129E+01  0.27433300006E+01  0.37472244032E+02  0.00000000000E+00 0.  1.
         11    1    1    2    0    0  0.28145767027E+02 -0.73207095735E+02  0.14296378732E+03  0.16306473424E+03  0.00000000000E+00 0. -1.
</event>
<event>
 7    1  0.2690635E-009  0.2986980E+03  0.7561462E-02  0.1085893E+00
         -2   -1    0    0    0  501 -0.00000000000E+00  0.00000000000E+00  0.74807799357E+02  0.74807799357E+02  0.00000000000E+00 0. -1.
          2   -1    0    0  501    0  0.00000000000E+00 -0.00000000000E+00 -0.12480270860E+04  0.12480270860E+04  0.00000000000E+00 0.  1.
         25    2    1    2    0    0  0.21894619622E+03 -0.17906805047E+03 -0.68414862770E+03  0.75080615911E+03  0.12509092786E+03 0.  0.
          5    1    3    3  502    0  0.19198076434E+03 -0.19225894696E+03 -0.55239961803E+03  0.61561589238E+03  0.41800000000E+01 0. -1.
         -5    1    3    3    0  502  0.26965431883E+02  0.13190896488E+02 -0.13174900968E+03  0.13519026673E+03  0.41800000000E+01 0. -1.
        -11    1    1    2    0    0 -0.72466359886E+02  0.11398248939E+03 -0.19682550996E+03  0.23871251030E+03  0.00000000000E+00 0.  1.
         11    1    1    2    0    0 -0.14647983633E+03  0.65085561086E+02 -0.29224514901E+03  0.33331621598E+03  0.00000000000E+00 0. -1.
</event>
<event>
 7    1  0.2690635E-009  0.1460814E+03  0.7561462E-02  0.1205372E+00
         -2   -1    0    0    0  501 -0.00000000000E+00  0.00000000000E+00  0.58958211427E+02  0.58958211427E+02  0.00000000000E+00 0.  1.
          2   -1    0    0  501    0  0.00000000000E+00 -0.00000000000E+00 -0.40841804927E+03  0.40841804927E+03  0.00000000000E+00 0. -1.
         25    2    1    2    0    0  0.10131567405E+03  0.15705142685E+02 -0.25319305162E+03  0.30044279289E+03  0.12509049960E+03 0.  0.
          5    1    3    3  502    0  0.51846488977E+01 -0.43023615670E+02 -0.39246205176E+02  0.58614410432E+02  0.41800000000E+01 0. -1.
         -5    1    3    3    0  502  0.96131025156E+02  0.58728758355E+02 -0.21394684645E+03  0.24182838245E+03  0.41800000000E+01 0. -1.
        -11    1    1    2    0    0  0.98959886149E+01  0.17267037020E+02 -0.93647670236E+01  0.21994999875E+02  0.00000000000E+00 0.  1.
         11    1    1    2    0    0 -0.11121166267E+03 -0.32972179705E+02 -0.86902019200E+02  0.14493846794E+03  0.00000000000E+00 0. -1.
</event>
<event>
 7    1  0.2690635E-009  0.1392681E+03  0.7561462E-02  0.1214317E+00
          2   -1    0    0  501    0  0.00000000000E+00  0.00000000000E+00  0.97677340900E+03  0.97677340900E+03  0.00000000000E+00 0. -1.
         -2   -1    0    0    0  501 -0.00000000000E+00 -0.00000000000E+00 -0.26113145775E+02  0.26113145775E+02  0.00000000000E+00 0.  1.
         25    2    1    2    0    0  0.10522441174E+03  0.24754448478E+02  0.37526702878E+03  0.41007010534E+03  0.12508872395E+03 0.  0.
          5    1    3    3  502    0  0.59367369044E+02 -0.36822883171E+02  0.27471201537E+03  0.28348646003E+03  0.41800000000E+01 0.  1.
         -5    1    3    3    0  502  0.45857042695E+02  0.61577331649E+02  0.10055501341E+03  0.12658364531E+03  0.41800000000E+01 0.  1.
        -11    1    1    2    0    0 -0.55022920571E+02 -0.50990765705E+02  0.43509998436E+03  0.44151962172E+03  0.00000000000E+00 0. -1.
         11    1    1    2    0    0 -0.50201491168E+02  0.26236317227E+02  0.14029325009E+03  0.15129682772E+03  0.00000000000E+00 0.  1.
</event>
<event>
 7    1  0.2690635E-009  0.8191280E+02  0.7561462E-02  0.1323709E+00
         -2   -1    0    0    0  501 -0.00000000000E+00  0.00000000000E+00  0.43246176356E+02  0.43246176356E+02  0.00000000000E+00 0.  1.
          2   -1    0    0  501    0  0.00000000000E+00 -0.00000000000E+00 -0.29674036084E+03  0.29674036084E+03  0.00000000000E+00 0. -1.
         25    2    1    2    0    0  0.23464744719E+02  0.21728319695E+02 -0.12427511985E+03  0.17920531772E+03  0.12509007301E+03 0.  0.
          5    1    3    3  502    0 -0.22900278496E+02  0.25907106193E+02  0.10644049845E+02  0.36419350675E+02  0.41800000000E+01 0.  1.
         -5    1    3    3    0  502  0.46365023215E+02 -0.41787864976E+01 -0.13491916970E+03  0.14278596705E+03  0.41800000000E+01 0.  1.
        -11    1    1    2    0    0 -0.50810933443E+02 -0.20773114567E+02 -0.41277944952E+02  0.68681452996E+02  0.00000000000E+00 0.  1.
         11    1    1    2    0    0  0.27346188724E+02 -0.95520512787E+00 -0.87941119681E+02  0.92099766478E+02  0.00000000000E+00 0. -1.
</event>
<event>
 7    1  0.2690635E-009  0.8708497E+02  0.7561462E-02  0.1310068E+00
          1   -1    0    0  501    0  0.00000000000E+00  0.00000000000E+00  0.36812445185E+03  0.36812445185E+03  0.00000000000E+00 0. -1.
         -1   -1    0    0    0  501 -0.00000000000E+00 -0.00000000000E+00 -0.32769139723E+02  0.32769139723E+02  0.00000000000E+00 0.  1.
         25    2    1    2    0    0 -0.17276004501E+02 -0.15911046856E+02  0.20404494966E+03  0.24048560075E+03  0.12508941180E+03 0.  0.
          5    1    3    3  502    0 -0.56928850724E+01  0.32540062006E+02  0.31298519341E+01  0.33444475611E+02  0.41800000000E+01 0.  1.
         -5    1    3    3    0  502 -0.11583119429E+02 -0.48451108862E+02  0.20091509772E+03  0.20704112514E+03  0.41800000000E+01 0.  1.
        -11    1    1    2    0    0 -0.27733899695E+02  0.32667905386E+02  0.48864454728E+02  0.64993047093E+02  0.00000000000E+00 0.  1.
         11    1    1    2    0    0  0.45009904196E+02 -0.16756858530E+02  0.82445907746E+02  0.95414943733E+02  0.00000000000E+00 0. -1.
</event>
<event>
 7    1  0.2690635E-009  0.1113381E+03  0.7561462E-02  0.1258112E+00
         -2   -1    0    0    0  501 -0.00000000000E+00  0.00000000000E+00  0.13069918945E+03  0.13069918945E+03  0.00000000000E+00 0.  1.
          2   -1    0    0  501    0  0.00000000000E+00 -0.00000000000E+00 -0.12349216677E+03  0.12349216677E+03  0.00000000000E+00 0. -1.
         25    2    1    2    0    0  0.23134181345E+01  0.65970673890E+02 -0.46757056790E+01  0.14151637849E+03  0.12509013326E+03 0.  0.
          5    1    3    3  502    0  0.42225778717E+02  0.19844562375E+01  0.36043721725E+02  0.55709754358E+02  0.41800000000E+01 0. -1.
         -5    1    3    3    0  502 -0.39912360583E+02  0.63986217652E+02 -0.40719427404E+02  0.85806624131E+02  0.41800000000E+01 0. -1.
        -11    1    1    2    0    0  0.37497619741E+02 -0.48207513905E+02 -0.13052663561E+02  0.62453245786E+02  0.00000000000E+00 0.  1.
         11    1    1    2    0    0 -0.39811037875E+02 -0.17763159985E+02  0.24935391919E+02  0.50221731944E+02  0.00000000000E+00 0. -1.
</event>
<event>
 7    1  0.2690635E-009  0.7449712E+02  0.7561462E-02  0.1345435E+00
         -2   -1    0    0    0  501 -0.00000000000E+00  0.00000000000E+00  0.84957855740E+02  0.84957855740E+02  0.00000000000E+00 0.  1.
          2   -1    0    0  501    0  0.00000000000E+00 -0.00000000000E+00 -0.16674975554E+03  0.16674975554E+03  0.00000000000E+00 0. -1.
         25    2    1    2    0    0  0.10874335989E+02  0.19675570291E+02 -0.57207084238E+01  0.12722161285E+03  0.12508890047E+03 0.  0.
          5    1    3    3  502    0 -0.18041318881E+02  0.52153638195E+02  0.36637630884E+02  0.66372280063E+02  0.41800000000E+01 0.  1.
         -5    1    3    3    0  502  0.28915654869E+02 -0.32478067905E+02 -0.42358339308E+02  0.60849332784E+02  0.41800000000E+01 0.  1.
        -11    1    1    2    0    0 -0.27645866188E+02 -0.59171937389E+01 -0.92851630672E+02  0.97060457538E+02  0.00000000000E+00 0. -1.
         11    1    1    2    0    0  0.16771530200E+02 -0.13758376552E+02  0.16780439294E+02  0.27425540897E+02  0.00000000000E+00 0.  1.
</event>
<event>
 7    1  0.2690635E-009  0.6982159E+02  0.7561462E-02  0.1360701E+00
         -2   -1    0    0    0  501 -0.00000000000E+00  0.00000000000E+00  0.12595509023E+03  0.12595509023E+03  0.00000000000E+00 0.  1.
          2   -1    0    0  501    0  0.00000000000E+00 -0.00000000000E+00 -0.10846528228E+03  0.10846528228E+03  0.00000000000E+00 0. -1.
         25    2    1    2    0    0 -0.35832667507E+02 -0.12807674640E+02  0.25247359378E+02  0.13316632931E+03  0.12509126874E+03 0.  0.
          5    1    3    3  502    0 -0.21953220785E+02 -0.23688141697E+02 -0.47836023825E+02  0.57869072355E+02  0.41800000000E+01 0. -1.
         -5    1    3    3    0  502 -0.13879446723E+02  0.10880467057E+02  0.73083383202E+02  0.75297256955E+02  0.41800000000E+01 0. -1.
        -11    1    1    2    0    0  0.55209891195E+02  0.30186909677E+02 -0.27414644378E+02  0.68636319307E+02  0.00000000000E+00 0. -1.
         11    1    1    2    0    0 -0.19377223688E+02 -0.17379235037E+02  0.19657092958E+02  0.32617723892E+02  0.00000000000E+00 0.  1.
</event>
<event>
 7    1  0.2690635E-009  0.1071654E+03  0.7561462E-02  0.1265911E+00
          1   -1    0    0  501    0  0.00000000000E+00  0.00000000000E+00  0.42162980873E+03  0.42162980873E+03  0.00000000000E+00 0. -1.
         -1   -1    0    0    0  501 -0.00000000000E+00 -0.00000000000E+00 -0.32986260127E+02  0.32986260127E+02  0.00000000000E+00 0.  1.
         25    2    1    2    0    0 -0.41238051579E+02  0.12535405990E+02  0.25239055995E+03  0.28496887754E+03  0.12509417699E+03 0.  0.
          5    1    3    3  502    0 -0.82829993080E+02  0.19157108188E+01  0.20358030774E+03  0.21983378221E+03  0.41800000000E+01 0. -1.
         -5    1    3    3    0  502  0.41591941501E+02  0.10619695172E+02  0.48810252201E+02  0.65135095327E+02  0.41800000000E+01 0. -1.
        -11    1    1    2    0    0  0.64356133650E+01 -0.42093913892E+02  0.10765241698E+03  0.11576855181E+03  0.00000000000E+00 0. -1.
         11    1    1    2    0    0  0.34802438214E+02  0.29558507902E+02  0.28600571682E+02  0.53878639511E+02  0.00000000000E+00 0.  1.
</event>
<event>
 7    1  0.2690635E-009  0.1211094E+03  0.7561462E-02  0.1241278E+00
         -2   -1    0    0    0  501 -0.00000000000E+00  0.00000000000E+00  0.19436171143E+03  0.19436171143E+03  0.00000000000E+00 0.  1.
          2   -1    0    0  501    0  0.00000000000E+00 -0.00000000000E+00 -0.17759716703E+03  0.17759716703E+03  0.00000000000E+00 0. -1.
         25    2    1    2    0    0  0.71670891532E+02 -0.63286294109E+01  0.14050498826E+03  0.20140995111E+03  0.12509016124E+03 0.  0.
          5    1    3    3  502    0  0.49424422221E+02 -0.54545011353E+02  0.31669979202E+02  0.80239589718E+02  0.41800000000E+01 0. -1.
         -5    1    3    3    0  502  0.22246469312E+02  0.48216381942E+02  0.10883500905E+03  0.12117036139E+03  0.41800000000E+01 0. -1.
        -11    1    1    2    0    0  0.21509209458E+02 -0.23874721785E+01 -0.11829180884E+02  0.24663244622E+02  0.00000000000E+00 0.  1.
         11    1    1    2    0    0 -0.93180100990E+02  0.87161015894E+01 -0.11191126297E+03  0.14588568274E+03  0.00000000000E+00 0. -1.
</event>
<event>
 7    1  0.2690635E-009  0.1600117E+03  0.7561462E-02  0.1188684E+00
         -2   -1    0    0    0  501 -0.00000000000E+00  0.00000000000E+00  0.43889073716E+02  0.43889073716E+02  0.00000000000E+00 0. -1.
          2   -1    0    0  501    0  0.00000000000E+00 -0.00000000000E+00 -0.72903648813E+03  0.72903648813E+03  0.00000000000E+00 0.  1.
         25    2    1    2    0    0  0.45300190989E+02 -0.12382251254E+03 -0.24970852635E+03  0.30884587906E+03  0.12508919603E+03 0.  0.
          5    1    3    3  502    0 -0.17981526289E+01 -0.13177639683E+03 -0.20185522789E+03  0.24110424621E+03  0.41800000000E+01 0.  1.
         -5    1    3    3    0  502  0.47098343618E+02  0.79538842957E+01 -0.47853298464E+02  0.67741632848E+02  0.41800000000E+01 0.  1.
        -11    1    1    2    0    0 -0.30866539000E+02  0.23315960167E+02 -0.39336184257E+02  0.55169852458E+02  0.00000000000E+00 0. -1.
         11    1    1    2    0    0 -0.14433651990E+02  0.10050655237E+03 -0.39610270381E+03  0.40890983033E+03  0.00000000000E+00 0.  1.
</event>
<event>
 7    1  0.2690635E-009  0.9363780E+02  0.7561462E-02  0.1294274E+00
          1   -1    0    0  501    0  0.00000000000E+00  0.00000000000E+00  0.26592155086E+03  0.26592155086E+03  0.00000000000E+00 0. -1.
         -1   -1    0    0    0  501 -0.00000000000E+00 -0.00000000000E+00 -0.84416056229E+02  0.84416056229E+02  0.00000000000E+00 0.  1.
         25    2    1    2    0    0  0.26062836143E+02 -0.94636914008E+01  0.21398874936E+03  0.24941642174E+03  0.12509409937E+03 0.  0.
          5    1    3    3  502    0 -0.67992301256E+01  0.52602900897E+02  0.60467577260E+02  0.80542504386E+02  0.41800000000E+01 0.  1.
         -5    1    3    3    0  502  0.32862066268E+02 -0.62066592297E+02  0.15352117210E+03  0.16887391735E+03  0.41800000000E+01 0.  1.
        -11    1    1    2    0    0 -0.29779345607E+02 -0.18795237817E+02 -0.54512883468E+02  0.64897803148E+02  0.00000000000E+00 0.  1.
         11    1    1    2    0    0  0.37165094640E+01  0.28258929217E+02  0.22029628742E+02  0.36023382207E+02  0.00000000000E+00 0. -1.
</event>
<event>
 7    1  0.2690635E-009  0.1148347E+03  0.7561462E-02  0.1251870E+00
         -2   -1    0    0    0  501 -0.00000000000E+00  0.00000000000E+00  0.13950602413E+03  0.13950602413E+03  0.00000000000E+00 0.  1.
          2   -1    0    0  501    0  0.00000000000E+00 -0.00000000000E+00 -0.11914847787E+03  0.11914847787E+03  0.00000000000E+00 0. -1.
         25    2    1    2    0    0  0.41614691085E+02 -0.50239212943E+02 -0.95318954944E+01  0.14141420612E+03  0.12510539409E+03 0.  0.
          5    1    3    3  502    0  0.79186089974E+02 -0.57724467668E+02  0.93004489949E+01  0.98521681697E+02  0.41800000000E+01 0. -1.
         -5    1    3    3    0  502 -0.37571398889E+02  0.74852547252E+01 -0.18832344489E+02  0.42892524427E+02  0.41800000000E+01 0. -1.
        -11    1    1    2    0    0  0.85452967989E+01  0.41207045578E+02  0.47365777769E+02  0.63360552446E+02  0.00000000000E+00 0.  1.
         11    1    1    2    0    0 -0.50159987884E+02  0.90321673651E+01 -0.17476336020E+02  0.53879743434E+02  0.00000000000E+00 0. -1.
</event>
<event>
 7    1  0.2690635E-009  0.2079404E+03  0.7561462E-02  0.1143207E+00
         -2   -1    0    0    0  501 -0.00000000000E+00  0.00000000000E+00  0.41870768313E+02  0.41870768313E+02  0.00000000000E+00 0.  1.
          2   -1    0    0  501    0  0.00000000000E+00 -0.00000000000E+00 -0.26381118352E+04  0.26381118352E+04  0.00000000000E+00 0. -1.
         25    2    1    2    0    0  0.16934309609E+03 -0.10529607640E+03 -0.23005335139E+04  0.23125453257E+04  0.12508831694E+03 0.  0.
          5    1    3    3  502    0  0.37882769716E+02  0.58451284436E+01 -0.98958870535E+03  0.99033961242E+03  0.41800000000E+01 0.  1.
         -5    1    3    3    0  502  0.13146032638E+03 -0.11114120485E+03 -0.13109448086E+04  0.13222057133E+04  0.41800000000E+01 0.  1.
        -11    1    1    2    0    0 -0.80439275095E+01  0.22341508037E+02 -0.42101491589E+01  0.24115826900E+02  0.00000000000E+00 0. -1.
         11    1    1    2    0    0 -0.16129916858E+03  0.82954568366E+02 -0.29149740379E+03  0.34332145085E+03  0.00000000000E+00 0.  1.
</event>
<event>
 7    1  0.2690635E-009  0.1091813E+03  0.7561462E-02  0.1262094E+00
         -1   -1    0    0    0  501 -0.00000000000E+00  0.00000000000E+00  0.12639439552E+03  0.12639439552E+03  0.00000000000E+00 0.  1.
          1   -1    0    0  501    0  0.00000000000E+00 -0.00000000000E+00 -0.13006708301E+03  0.13006708301E+03  0.00000000000E+00 0. -1.
         25    2    1    2    0    0 -0.21655773858E+02  0.42272905186E+02 -0.49168314266E+02  0.14255059433E+03  0.12508867959E+03 0.  0.
          5    1    3    3  502    0  0.58150042388E+00 -0.41462698799E+02 -0.35489102905E+02  0.54739769450E+02  0.41800000000E+01 0.  1.
         -5    1    3    3    0  502 -0.22237274281E+02  0.83735603985E+02 -0.13679211361E+02  0.87810824878E+02  0.41800000000E+01 0.  1.
        -11    1    1    2    0    0 -0.28869129719E+02 -0.15304274122E+02  0.46257440401E+02  0.56633896648E+02  0.00000000000E+00 0.  1.
         11    1    1    2    0    0  0.50524903576E+02 -0.26968631065E+02 -0.76181362810E+00  0.57276987551E+02  0.00000000000E+00 0. -1.
</event>
<event>
 7    1  0.2690635E-009  0.1640140E+03  0.7561462E-02  0.1184238E+00
          1   -1    0    0  501    0  0.00000000000E+00  0.00000000000E+00  0.15439585200E+04  0.15439585200E+04  0.00000000000E+00 0. -1.
         -1   -1    0    0    0  501 -0.00000000000E+00 -0.00000000000E+00 -0.19440346792E+02  0.19440346792E+02  0.00000000000E+00 0.  1.
         25    2    1    2    0    0 -0.84661079748E+02  0.10431492744E+03  0.10103962208E+04  0.10269360248E+04  0.12509186022E+03 0.  0.
          5    1    3    3  502    0 -0.10560335077E+03  0.11033331782E+03  0.73865421091E+03  0.75428974831E+03  0.41800000000E+01 0. -1.
         -5    1    3    3    0  502  0.20942271024E+02 -0.60183903718E+01  0.27174200989E+03  0.27264627647E+03  0.41800000000E+01 0. -1.
        -11    1    1    2    0    0  0.94544180109E+02 -0.70801220395E+02  0.38666505316E+03  0.40430344809E+03  0.00000000000E+00 0. -1.
         11    1    1    2    0    0 -0.98831003609E+01 -0.33513707049E+02  0.12745689924E+03  0.13215939390E+03  0.00000000000E+00 0.  1.
</event>
<event>
 7    1  0.2690635E-009  0.1287123E+03  0.7561462E-02  0.1229379E+00
         -1   -1    0    0    0  501 -0.00000000000E+00  0.00000000000E+00  0.19457501656E+03  0.19457501656E+03  0.00000000000E+00 0.  1.
          1   -1    0    0  501    0  0.00000000000E+00 -0.00000000000E+00 -0.95437763802E+02  0.95437763802E+02  0.00000000000E+00 0. -1.
         25    2    1    2    0    0 -0.43283953215E+01  0.77428255108E+02  0.22817422122E+02  0.14893663576E+03  0.12509043538E+03 0.  0.
          5    1    3    3  502    0  0.27418365275E+02 -0.25790038279E+02  0.14472065828E+02  0.40543876457E+02  0.41800000000E+01 0. -1.
         -5    1    3    3    0  502 -0.31746760597E+02  0.10321829339E+03  0.83453562942E+01  0.10839275931E+03  0.41800000000E+01 0. -1.
        -11    1    1    2    0    0 -0.37660303733E+02 -0.30099142849E+02  0.96566230282E+01  0.49168152760E+02  0.00000000000E+00 0. -1.
         11    1    1    2    0    0  0.41988699054E+02 -0.47329112259E+02  0.66663207604E+02  0.91907991837E+02  0.00000000000E+00 0.  1.
</event>
<event>
 7    1  0.2690635E-009  0.1034435E+03  0.7561462E-02  0.1273217E+00
          2   -1    0    0  501    0  0.00000000000E+00  0.00000000000E+00  0.42977731842E+02  0.42977731842E+02  0.00000000000E+00 0. -1.
         -2   -1    0    0    0  501 -0.00000000000E+00 -0.00000000000E+00 -0.32036960816E+03  0.32036960816E+03  0.00000000000E+00 0.  1.
         25    2    1    2    0    0  0.39550277479E+02  0.13288508846E+02 -0.18851441235E+03  0.23005921263E+03  0.12509495889E+03 0.  0.
          5    1    3    3  502    0 -0.41010614273E+01  0.60273783623E+02 -0.12882022759E+03  0.14234419951E+03  0.41800000000E+01 0. -1.
         -5    1    3    3    0  502  0.43651338906E+02 -0.46985274777E+02 -0.59694184756E+02  0.87715013127E+02  0.41800000000E+01 0. -1.
        -11    1    1    2    0    0  0.64076230668E+01  0.22764089271E+02 -0.66767626037E+02  0.70832035693E+02  0.00000000000E+00 0.  1.
         11    1    1    2    0    0 -0.45957900546E+02 -0.36052598116E+02 -0.22109837930E+02  0.62456091671E+02  0.00000000000E+00 0. -1.
</event>
<event>
 7    1  0.2690635E-009  0.7982428E+02  0.7561462E-02  0.1329551E+00
         -4   -1    0    0    0  501 -0.00000000000E+00  0.00000000000E+00  0.49092501123E+03  0.49092501123E+03  0.00000000000E+00 0.  1.
          4   -1    0    0  501    0  0.00000000000E+00 -0.00000000000E+00 -0.23644403473E+02  0.23644403473E+02  0.00000000000E+00 0. -1.
         25    2    1    2    0    0 -0.65500008990E+01  0.36261041935E+01  0.29217861724E+03  0.31791829538E+03  0.12509055529E+03 0.  0.
          5    1    3    3  502    0  0.33957916658E+02  0.15285905845E+02  0.20026159744E+02  0.42489039708E+02  0.41800000000E+01 0. -1.
         -5    1    3    3    0  502 -0.40507917557E+02 -0.11659801651E+02  0.27215245749E+03  0.27542925567E+03  0.41800000000E+01 0. -1.
        -11    1    1    2    0    0  0.25272720004E+02  0.31274882699E+02  0.13257096211E+03  0.13853479224E+03  0.00000000000E+00 0.  1.
         11    1    1    2    0    0 -0.18722719105E+02 -0.34900986892E+02  0.42531028401E+02  0.58116327083E+02  0.00000000000E+00 0. -1.
</event>
<event>
 7    1  0.2690635E-009  0.1337667E+03  0.7561462E-02  0.1221971E+00
          4   -1    0    0  501    0  0.00000000000E+00  0.00000000000E+00  0.19073205853E+03  0.19073205853E+03  0.00000000000E+00 0.  1.
         -4   -1    0    0    0  501 -0.00000000000E+00 -0.00000000000E+00 -0.10228702675E+03  0.10228702675E+03  0.00000000000E+00 0. -1.
         25    2    1    2    0    0 -0.59592705140E+02 -0.63672768467E+02  0.61640427968E+02  0.16447433048E+03  0.12508697405E+03 0.  0.
          5    1    3    3  502    0 -0.70258449912E+01 -0.92093703997E+02  0.34115581485E+02  0.98549267444E+02  0.41800000000E+01 0. -1.
         -5    1    3    3    0  502 -0.52566860148E+02  0.28420935530E+02  0.27524846483E+02  0.65925063035E+02  0.41800000000E+01 0. -1.
        -11    1    1    2    0    0  0.45244679358E+02 -0.45365291281E+01  0.36319955540E+02  0.58196222190E+02  0.00000000000E+00 0.  1.
         11    1    1    2    0    0  0.14348025782E+02  0.68209297595E+02 -0.95153517321E+01  0.70348532613E+02  0.00000000000E+00 0. -1.
</event>
<event>
 7    1  0.2690635E-009  0.1818543E+03  0.7561462E-02  0.1166020E+00
         -1   -1    0    0    0  501 -0.00000000000E+00  0.00000000000E+00  0.86482747483E+03  0.86482747483E+03  0.00000000000E+00 0.  1.
          1   -1    0    0  501    0  0.00000000000E+00 -0.00000000000E+00 -0.59084439551E+02  0.59084439551E+02  0.00000000000E+00 0. -1.
         25    2    1    2    0    0  0.14273948670E+03 -0.66117814379E+02  0.17211420716E+03  0.26461350490E+03  0.12510347807E+03 0.  0.
          5    1    3    3  502    0  0.23751836177E+01 -0.59158057241E+02  0.63733609191E+02  0.87090542393E+02  0.41800000000E+01 0. -1.
         -5    1    3    3    0  502  0.14036430309E+03 -0.69597571376E+01  0.10838059797E+03  0.17752296251E+03  0.41800000000E+01 0. -1.
        -11    1    1    2    0    0 -0.92558308778E+02  0.18117837715E+02  0.49879294502E+03  0.50763145940E+03  0.00000000000E+00 0.  1.
         11    1    1    2    0    0 -0.50181177927E+02  0.47999976664E+02  0.13483588310E+03  0.15166695009E+03  0.00000000000E+00 0. -1.
</event>
<event>
 7    1  0.2690635E-009  0.1946559E+03  0.7561462E-02  0.1154328E+00
          1   -1    0    0  501    0  0.00000000000E+00  0.00000000000E+00  0.70533958813E+03  0.70533958813E+03  0.00000000000E+00 0. -1.
         -1   -1    0    0    0  501 -0.00000000000E+00 -0.00000000000E+00 -0.66349749955E+02  0.66349749955E+02  0.00000000000E+00 0.  1.
         25    2    1    2    0    0  0.17464939646E+03  0.24542461565E+02  0.42687615393E+03  0.47851555883E+03  0.12509654328E+03 0.  0.
          5    1    3    3  502    0  0.41348913335E+02 -0.31112574122E+02  0.22078351712E+03  0.22680511179E+03  0.41800000000E+01 0.  1.
         -5    1    3    3    0  502  0.13330048312E+03  0.55655035687E+02  0.20609263681E+03  0.25171044703E+03  0.41800000000E+01 0.  1.
        -11    1    1    2    0    0 -0.11385629837E+03  0.22446191133E+02  0.16918175649E+03  0.20515739057E+03  0.00000000000E+00 0.  1.
         11    1    1    2    0    0 -0.60793098091E+02 -0.46988652698E+02  0.42931927752E+02  0.88016388692E+02  0.00000000000E+00 0. -1.
</event>
<event>
 7    1  0.2690635E-009  0.9790309E+02  0.7561462E-02  0.1284768E+00
         -1   -1    0    0    0  501 -0.00000000000E+00  0.00000000000E+00  0.18336947042E+03  0.18336947042E+03  0.00000000000E+00 0.  1.
          1   -1    0    0  501    0  0.00000000000E+00 -0.00000000000E+00 -0.76421261272E+02  0.76421261272E+02  0.00000000000E+00 0. -1.
         25    2    1    2    0    0  0.31190667192E+02  0.39473564421E+01  0.10094909713E+03  0.16378899736E+03  0.12509067152E+03 0.  0.
          5    1    3    3  502    0  0.33953117133E+02  0.61885598316E+02  0.51941524158E+02  0.87738450942E+02  0.41800000000E+01 0. -1.
         -5    1    3    3    0  502 -0.27624499409E+01 -0.57938241874E+02  0.49007572974E+02  0.76050546414E+02  0.41800000000E+01 0. -1.
        -11    1    1    2    0    0 -0.34975645817E+02 -0.26620127433E+02 -0.30052492290E+02  0.53245462508E+02  0.00000000000E+00 0. -1.
         11    1    1    2    0    0  0.37849786243E+01  0.22672770991E+02  0.36051604306E+02  0.42756271828E+02  0.00000000000E+00 0.  1.
</event>
<event>
 7    1  0.2690635E-009  0.1112641E+03  0.7561462E-02  0.1258247E+00
          2   -1    0    0  501    0  0.00000000000E+00  0.00000000000E+00  0.17447062505E+02  0.17447062505E+02  0.00000000000E+00 0.  1.
         -2   -1    0    0    0  501 -0.00000000000E+00 -0.00000000000E+00 -0.90827700038E+03  0.90827700038E+03  0.00000000000E+00 0. -1.
         25    2    1    2    0    0  0.51940442542E+01 -0.45417545445E+02 -0.65893727923E+03  0.67226111640E+03  0.12508772577E+03 0.  0.
          5    1    3    3  502    0  0.48151967198E+02  0.11091385106E+02 -0.42144589570E+03  0.42435332704E+03  0.41800000000E+01 0.  1.
         -5    1    3    3    0  502 -0.42957922943E+02 -0.56508930551E+02 -0.23749138353E+03  0.24790778936E+03  0.41800000000E+01 0.  1.
        -11    1    1    2    0    0 -0.29712825343E+02 -0.17376880926E+02 -0.90428860679E+02  0.96758394077E+02  0.00000000000E+00 0.  1.
         11    1    1    2    0    0  0.24518781089E+02  0.62794426371E+02 -0.14146379796E+03  0.15670455240E+03  0.00000000000E+00 0. -1.
</event>
<event>
 7    1  0.2690635E-009  0.1078271E+03  0.7561462E-02  0.1264648E+00
         -1   -1    0    0    0  501 -0.00000000000E+00  0.00000000000E+00  0.56411409072E+03  0.56411409072E+03  0.00000000000E+00 0.  1.
          1   -1    0    0  501    0  0.00000000000E+00 -0.00000000000E+00 -0.50724295404E+02  0.50724295404E+02  0.00000000000E+00 0. -1.
         25    2    1    2    0    0 -0.10163337120E+02 -0.64728036992E+02  0.47455722578E+03  0.49512169316E+03  0.12509163961E+03 0.  0.
          5    1    3    3  502    0 -0.29446330722E+02 -0.84865027558E+02  0.20202421988E+03  0.22113438700E+03  0.41800000000E+01 0. -1.
         -5    1    3    3    0  502  0.19282993602E+02  0.20136990565E+02  0.27253300590E+03  0.27398730616E+03  0.41800000000E+01 0. -1.
        -11    1    1    2    0    0  0.17185982341E+02  0.79416746500E+02  0.53921450734E+02  0.97518718526E+02  0.00000000000E+00 0.  1.
         11    1    1    2    0    0 -0.70226452216E+01 -0.14688709508E+02 -0.15088881205E+02  0.22197974433E+02  0.00000000000E+00 0. -1.
</event>
<event>
 7    1  0.2690635E-009  0.1530798E+03  0.7561462E-02  0.1196739E+00
          1   -1    0    0  501    0  0.00000000000E+00  0.00000000000E+00  0.13944825306E+03  0.13944825306E+03  0.00000000000E+00 0. -1.
         -1   -1    0    0    0  501 -0.00000000000E+00 -0.00000000000E+00 -0.23013947076E+03  0.23013947076E+03  0.00000000000E+00 0.  1.
         25    2    1    2    0    0 -0.12751007189E+03  0.21761609635E+02  0.12690005101E+02  0.18039116332E+03  0.12509016542E+03 0.  0.
          5    1    3    3  502    0  0.19563918204E+02  0.15019044269E+02  0.21295010879E+02  0.32852221760E+02  0.41800000000E+01 0. -1.
         -5    1    3    3    0  502 -0.14707399010E+03  0.67425653654E+01 -0.86050057771E+01  0.14753894156E+03  0.41800000000E+01 0. -1.
        -11    1    1    2    0    0  0.11375431279E+03 -0.30230043135E+02 -0.11853604591E+03  0.16704697952E+03  0.00000000000E+00 0.  1.
         11    1    1    2    0    0  0.13755759100E+02  0.84684335002E+01  0.15154823114E+02  0.22149580989E+02  0.00000000000E+00 0. -1.
</event>
<event>
 7    1  0.2690635E-009  0.9244665E+02  0.7561462E-02  0.1297033E+00
         -2   -1    0    0    0  501 -0.00000000000E+00  0.00000000000E+00  0.62565460980E+02  0.62565460980E+02  0.00000000000E+00 0.  1.
          2   -1    0    0  501    0  0.00000000000E+00 -0.00000000000E+00 -0.27566354102E+03  0.27566354102E+03  0.00000000000E+00 0. -1.
         25    2    1    2    0    0  0.43685541023E+02  0.26880456270E+02 -0.51442175008E+02  0.14464884660E+03  0.12508399589E+03 0.  0.
          5    1    3    3  502    0  0.76826730543E+02  0.40493083750E+02 -0.62320057426E+02  0.10697335329E+03  0.41800000000E+01 0.  1.
         -5    1    3    3    0  502 -0.33141189520E+02 -0.13612627480E+02  0.10877882418E+02  0.37675493302E+02  0.41800000000E+01 0.  1.
        -11    1    1    2    0    0 -0.17085199742E+02 -0.30571476519E+02 -0.16297221237E+03  0.16669271499E+03  0.00000000000E+00 0. -1.
         11    1    1    2    0    0 -0.26600341281E+02  0.36910202487E+01  0.13163073401E+01  0.26887440409E+02  0.00000000000E+00 0.  1.
</event>
<event>
 7    1  0.2690635E-009  0.1453422E+03  0.7561462E-02  0.1206316E+00
          2   -1    0    0  501    0  0.00000000000E+00  0.00000000000E+00  0.71877013678E+03  0.71877013678E+03  0.00000000000E+00 0. -1.
         -2   -1    0    0    0  501 -0.00000000000E+00 -0.00000000000E+00 -0.43266324211E+02  0.43266324211E+02  0.00000000000E+00 0.  1.
         25    2    1    2    0    0  0.62220296105E+02 -0.10229674819E+03  0.53136110297E+03  0.55886249105E+03  0.12508665885E+03 0.  0.
          5    1    3    3  502    0 -0.29873015677E+02 -0.62579427540E+02  0.16569436458E+03  0.17966824058E+03  0.41800000000E+01 0.  1.
         -5    1    3    3    0  502  0.92093311782E+02 -0.39717320648E+02  0.36566673838E+03  0.37919425048E+03  0.41800000000E+01 0.  1.
        -11    1    1    2    0    0 -0.28951264605E+02  0.63085391154E+02  0.25641391904E+02  0.73996103128E+02  0.00000000000E+00 0.  1.
         11    1    1    2    0    0 -0.33269031500E+02  0.39211357034E+02  0.11850131770E+03  0.12917786681E+03  0.00000000000E+00 0. -1.
</event>
<event>
 7    1  0.2690635E-009  0.1088780E+03  0.7561462E-02  0.1262662E+00
          1   -1    0    0  501    0  0.00000000000E+00  0.00000000000E+00  0.86577151232E+03  0.86577151232E+03  0.00000000000E+00 0. -1.
         -1   -1    0    0    0  501 -0.00000000000E+00 -0.00000000000E+00 -0.35042614978E+02  0.35042614978E+02  0.00000000000E+00 0.  1.
         25    2    1    2    0    0  0.55377020144E+02  0.19434064314E+02  0.75533245075E+03  0.76786680486E+03  0.12509205264E+03 0.  0.
          5    1    3    3  502    0  0.72561595639E+02  0.57424528360E+02  0.59408838563E+03  0.60126636690E+03  0.41800000000E+01 0.  1.
         -5    1    3    3    0  502 -0.17184575495E+02 -0.37990464046E+02  0.16124406512E+03  0.16660043796E+03  0.41800000000E+01 0.  1.
        -11    1    1    2    0    0 -0.82214539390E+01  0.20080562329E+02 -0.12965558890E+02  0.25277005472E+02  0.00000000000E+00 0. -1.
         11    1    1    2    0    0 -0.47155566205E+02 -0.39514626643E+02  0.88362005485E+02  0.10767031697E+03  0.00000000000E+00 0.  1.
</event>
<event>
 7    1  0.2690635E-009  0.2277483E+03  0.7561462E-02  0.1128235E+00
         -1   -1    0    0    0  501 -0.00000000000E+00  0.00000000000E+00  0.66519566086E+03  0.66519566086E+03  0.00000000000E+00 0.  1.
          1   -1    0    0  501    0  0.00000000000E+00 -0.00000000000E+00 -0.91976994631E+02  0.91976994631E+02  0.00000000000E+00 0. -1.
         25    2    1    2    0    0  0.67962113448E+02 -0.20608892823E+03  0.22348858568E+03  0.33568791038E+03  0.12509088713E+03 0.  0.
          5    1    3    3  502    0  0.71821622012E+02 -0.10251176925E+03  0.52720251477E+02  0.13588195442E+03  0.41800000000E+01 0.  1.
         -5    1    3    3    0  502 -0.38595085638E+01 -0.10357715898E+03  0.17076833420E+03  0.19980595595E+03  0.41800000000E+01 0.  1.
        -11    1    1    2    0    0 -0.77740118005E+02  0.14375160360E+03  0.29808341350E+03  0.33994377607E+03  0.00000000000E+00 0.  1.
         11    1    1    2    0    0  0.97780045570E+01  0.62337324627E+02  0.51646667054E+02  0.81540969044E+02  0.00000000000E+00 0. -1.
</event>
<event>
 7    1  0.2690635E-009  0.2517690E+03  0.7561462E-02  0.1112192E+00
         -1   -1    0    0    0  501 -0.00000000000E+00  0.00000000000E+00  0.21491436875E+03  0.21491436875E+03  0.00000000000E+00 0.  1.
          1   -1    0    0  501    0  0.00000000000E+00 -0.00000000000E+00 -0.36227038646E+03  0.36227038646E+03  0.00000000000E+00 0. -1.
         25    2    1    2    0    0  0.78433299910E+02 -0.23179705669E+03  0.77350397693E+01  0.27493566156E+03  0.12509248233E+03 0.  0.
          5    1    3    3  502    0  0.32433593023E+02 -0.14402463990E+03  0.63935934407E+02  0.16093573551E+03  0.41800000000E+01 0.  1.
         -5    1    3    3    0  502  0.45999706888E+02 -0.87772416781E+02 -0.56200894638E+02  0.11399992605E+03  0.41800000000E+01 0.  1.
        -11    1    1    2    0    0  0.15849117403E+02  0.30069434437E+02 -0.66535469575E+01  0.34635748828E+02  0.00000000000E+00 0. -1.
         11    1    1    2    0    0 -0.94282417313E+02  0.20172762225E+03 -0.14843751052E+03  0.26761334481E+03  0.00000000000E+00 0.  1.
</event>
<event>
 7    1  0.2690635E-009  0.1126144E+03  0.7561462E-02  0.1255804E+00
          2   -1    0    0  501    0  0.00000000000E+00  0.00000000000E+00  0.10122616014E+04  0.10122616014E+04  0.00000000000E+00 0.  1.
         -2   -1    0    0    0  501 -0.00000000000E+00 -0.00000000000E+00 -0.14998346197E+02  0.14998346197E+02  0.00000000000E+00 0. -1.
         25    2    1    2    0    0 -0.49541994704E+02 -0.18141499553E+02  0.68494325857E+03  0.69826927632E+03  0.12509672874E+03 0.  0.
          5    1    3    3  502    0 -0.50363713258E+02 -0.60999963471E+02  0.57080289854E+03  0.57627330368E+03  0.41800000000E+01 0.  1.
         -5    1    3    3    0  502  0.82171855364E+00  0.42858463917E+02  0.11414036003E+03  0.12199597263E+03  0.41800000000E+01 0.  1.
        -11    1    1    2    0    0  0.61771646133E+01  0.49211569781E+02  0.16590009250E+03  0.17315535410E+03  0.00000000000E+00 0. -1.
         11    1    1    2    0    0  0.43364830091E+02 -0.31070070228E+02  0.14641990409E+03  0.15583531713E+03  0.00000000000E+00 0.  1.
</event>
<event>
 7    1  0.2690635E-009  0.1040216E+03  0.7561462E-02  0.1272059E+00
         -1   -1    0    0    0  501 -0.00000000000E+00  0.00000000000E+00  0.16697710620E+03  0.16697710620E+03  0.00000000000E+00 0.  1.
          1   -1    0    0  501    0  0.00000000000E+00 -0.00000000000E+00 -0.12968947884E+03  0.12968947884E+03  0.00000000000E+00 0. -1.
         25    2    1    2    0    0 -0.51630337083E+02  0.68162128384E+02  0.72094026795E+02  0.16779958399E+03  0.12508950490E+03 0.  0.
          5    1    3    3  502    0  0.52493288347E+01 -0.11083031662E+02  0.68905190425E+02  0.70112671548E+02  0.41800000000E+01 0. -1.
         -5    1    3    3    0  502 -0.56879665918E+02  0.79245160046E+02  0.31888363691E+01  0.97686912445E+02  0.41800000000E+01 0. -1.
        -11    1    1    2    0    0 -0.15447891987E+01 -0.34464083112E+02 -0.53088000646E+02  0.63312678123E+02  0.00000000000E+00 0. -1.
         11    1    1    2    0    0  0.53175126282E+02 -0.33698045272E+02  0.18281601212E+02  0.65554322917E+02  0.00000000000E+00 0.  1.
</event>
<event>
 7    1  0.2690635E-009  0.7977640E+02  0.7561462E-02  0.1329687E+00
         -2   -1    0    0    0  501 -0.00000000000E+00  0.00000000000E+00  0.83279324425E+03  0.83279324425E+03  0.00000000000E+00 0.  1.
          2   -1    0    0  501    0  0.00000000000E+00 -0.00000000000E+00 -0.18086568074E+02  0.18086568074E+02  0.00000000000E+00 0. -1.
         25    2    1    2    0    0  0.15431079945E+02  0.82117218582E+01  0.64827197849E+03  0.66046150534E+03  0.12508913356E+03 0.  0.
          5    1    3    3  502    0 -0.30923880100E+02 -0.32720881169E+00  0.41891903907E+02  0.52237892750E+02  0.41800000000E+01 0.  1.
         -5    1    3    3    0  502  0.46354960045E+02  0.85389306699E+01  0.60638007458E+03  0.60822361259E+03  0.41800000000E+01 0.  1.
        -11    1    1    2    0    0 -0.35211803366E+02  0.24431352485E+02  0.13280094279E+03  0.13954516289E+03  0.00000000000E+00 0.  1.
         11    1    1    2    0    0  0.19780723421E+02 -0.32643074343E+02  0.33633754898E+02  0.50873144095E+02  0.00000000000E+00 0. -1.
</event>
<event>
 7    1  0.2690635E-009  0.1084858E+03  0.7561462E-02  0.1263400E+00
         -2   -1    0    0    0  501 -0.00000000000E+00  0.00000000000E+00  0.39322165115E+02  0.39322165115E+02  0.00000000000E+00 0.  1.
          2   -1    0    0  501    0  0.00000000000E+00 -0.00000000000E+00 -0.47915256421E+03  0.47915256421E+03  0.00000000000E+00 0. -1.
         25    2    1    2    0    0  0.39643113860E+02  0.54437272141E+02 -0.33757122510E+03  0.36624773858E+03  0.12509228961E+03 0.  0.
          5    1    3    3  502    0  0.34206170615E+02 -0.27541252640E+02 -0.20904243189E+03  0.21364642154E+03  0.41800000000E+01 0.  1.
         -5    1    3    3    0  502  0.54369432455E+01  0.81978524781E+02 -0.12852879321E+03  0.15260131704E+03  0.41800000000E+01 0.  1.
        -11    1    1    2    0    0 -0.16601536198E+02  0.11861772922E+02  0.76728489923E+01  0.21798744749E+02  0.00000000000E+00 0.  1.
         11    1    1    2    0    0 -0.23041577662E+02 -0.66299045063E+02 -0.10993202299E+03  0.13042824600E+03  0.00000000000E+00 0. -1.
</event>
<event>
 7    1  0.2690635E-009  0.1392777E+03  0.7561462E-02  0.1214304E+00
         -1   -1    0    0    0  501 -0.00000000000E+00  0.00000000000E+00  0.15144431955E+03  0.15144431955E+03  0.00000000000E+00 0.  1.
          1   -1    0    0  501    0  0.00000000000E+00 -0.00000000000E+00 -0.23195507443E+03  0.23195507443E+03  0.00000000000E+00 0. -1.
         25    2    1    2    0    0  0.88919760893E+02 -0.56352342203E+02 -0.14356145301E+03  0.21757730624E+03  0.12509069929E+03 0.  0.
          5    1    3    3  502    0  0.91058727281E+02 -0.20225507194E+02 -0.29625401160E+02  0.97958663472E+02  0.41800000000E+01 0.  1.
         -5    1    3    3    0  502 -0.21389663886E+01 -0.36126835008E+02 -0.11393605185E+03  0.11961864277E+03  0.41800000000E+01 0.  1.
        -11    1    1    2    0    0 -0.56684841771E+02 -0.24469103339E+02  0.65783613038E+01  0.62090121133E+02  0.00000000000E+00 0.  1.
         11    1    1    2    0    0 -0.32234919121E+02  0.80821445542E+02  0.56472336830E+02  0.10373196661E+03  0.00000000000E+00 0. -1.
</event>
<event>
 7    1  0.2690635E-009  0.8221394E+02  0.7561462E-02  0.1322883E+00
         -1   -1    0    0    0  501 -0.00000000000E+00  0.00000000000E+00  0.18325855530E+03  0.18325855530E+03  0.00000000000E+00 0.  1.
          1   -1    0    0  501    0  0.00000000000E+00 -0.00000000000E+00 -0.74117886091E+02  0.74117886091E+02  0.00000000000E+00 0. -1.
         25    2    1    2    0    0  0.29866232895E+02 -0.20233142673E+02  0.90582849514E+02  0.15859859048E+03  0.12508752274E+03 0.  0.
          5    1    3    3  502    0 -0.18200727989E+02 -0.16810408198E+02 -0.23675720276E+02  0.34523447882E+02  0.41800000000E+01 0.  1.
         -5    1    3    3    0  502  0.48066960883E+02 -0.34227344753E+01  0.11425856979E+03  0.12407514260E+03  0.41800000000E+01 0.  1.
        -11    1    1    2    0    0  0.19902614149E+02  0.33908997167E+02 -0.89028592758E+01  0.40313707869E+02  0.00000000000E+00 0. -1.
         11    1    1    2    0    0 -0.49768847044E+02 -0.13675854494E+02  0.27460678970E+02  0.58464143042E+02  0.00000000000E+00 0.  1.
</event>
<event>
 7    1  0.2690635E-009  0.9584170E+02  0.7561462E-02  0.1289292E+00
         -2   -1    0    0    0  501 -0.00000000000E+00  0.00000000000E+00  0.80677694079E+03  0.80677694079E+03  0.00000000000E+00 0.  1.
          2   -1    0    0  501    0  0.00000000000E+00 -0.00000000000E+00 -0.14966892768E+02  0.14966892768E+02  0.00000000000E+00 0. -1.
         25    2    1    2    0    0 -0.35333032873E+01 -0.12846847008E+02  0.43491679553E+03  0.45274443553E+03  0.12508948464E+03 0.  0.
          5    1    3    3  502    0 -0.23887666249E+02  0.36836138771E+02  0.62728638560E+02  0.76680350899E+02  0.41800000000E+01 0.  1.
         -5    1    3    3    0  502  0.20354362961E+02 -0.49682985779E+02  0.37218815697E+03  0.37606408464E+03  0.41800000000E+01 0.  1.
        -11    1    1    2    0    0  0.32843371424E+01 -0.40373641480E+02  0.15098018480E+03  0.15631965327E+03  0.00000000000E+00 0. -1.
         11    1    1    2    0    0  0.24896614492E+00  0.53220488488E+02  0.20591306769E+03  0.21267974475E+03  0.00000000000E+00 0.  1.
</event>
<event>
 7    1  0.2690635E-009  0.1826659E+03  0.7561462E-02  0.1165248E+00
          2   -1    0    0  501    0  0.00000000000E+00  0.00000000000E+00  0.39771138579E+03  0.39771138579E+03  0.00000000000E+00 0. -1.
         -2   -1    0    0    0  501 -0.00000000000E+00 -0.00000000000E+00 -0.15991111884E+03  0.15991111884E+03  0.00000000000E+00 0.  1.
         25    2    1    2    0    0  0.90823569976E+02  0.14148070115E+03 -0.46877846844E+02  0.21473378440E+03  0.12508939194E+03 0.  0.
          5    1    3    3  502    0  0.70315368826E+02  0.65447655677E+02  0.33796160212E+02  0.10191810228E+03  0.41800000000E+01 0. -1.
         -5    1    3    3    0  502  0.20508201150E+02  0.76033045469E+02 -0.80674007057E+02  0.11281568212E+03  0.41800000000E+01 0. -1.
        -11    1    1    2    0    0 -0.44287907179E+02 -0.13651502660E+03  0.22767709597E+03  0.26913682624E+03  0.00000000000E+00 0.  1.
         11    1    1    2    0    0 -0.46535662797E+02 -0.49656745505E+01  0.57001017821E+02  0.73751893998E+02  0.00000000000E+00 0. -1.
</event>
<event>
 7    1  0.2690635E-009  0.1350432E+03  0.7561462E-02  0.1220159E+00
         -1   -1    0    0    0  501 -0.00000000000E+00  0.00000000000E+00  0.13065849074E+03  0.13065849074E+03  0.00000000000E+00 0.  1.
          1   -1    0    0  501    0  0.00000000000E+00 -0.00000000000E+00 -0.16985827591E+03  0.16985827591E+03  0.00000000000E+00 0. -1.
         25    2    1    2    0    0  0.90955765957E+02 -0.64973145326E+01 -0.74765392772E+02  0.17190982166E+03  0.12509179178E+03 0.  0.
          5    1    3    3  502    0  0.11092338241E+01 -0.51751376978E+02 -0.39423560636E+02  0.65200651469E+02  0.41800000000E+01 0. -1.
         -5    1    3    3    0  502  0.89846532133E+02  0.45254062445E+02 -0.35341832136E+02  0.10670917019E+03  0.41800000000E+01 0. -1.
        -11    1    1    2    0    0 -0.73243341706E+02 -0.28221324185E+02  0.42127119241E+02  0.89082683046E+02  0.00000000000E+00 0.  1.
         11    1    1    2    0    0 -0.17712424251E+02  0.34718638718E+02 -0.65615116398E+01  0.39524261945E+02  0.00000000000E+00 0. -1.
</event>
<event>
 7    1  0.2690635E-009  0.1422198E+03  0.7561462E-02  0.1210373E+00
         -1   -1    0    0    0  501 -0.00000000000E+00  0.00000000000E+00  0.37750847059E+02  0.37750847059E+02  0.00000000000E+00 0.  1.
          1   -1    0    0  501    0  0.00000000000E+00 -0.00000000000E+00 -0.75527980592E+03  0.75527980592E+03  0.00000000000E+00 0. -1.
         25    2    1    2    0    0  0.82630953374E+02 -0.72246269071E+02 -0.20965702036E+03  0.26767662741E+03  0.12508921945E+03 0.  0.
          5    1    3    3  502    0 -0.17931793170E+02 -0.49268728212E+02 -0.11969184602E+03  0.13073854516E+03  0.41800000000E+01 0.  1.
         -5    1    3    3    0  502  0.10056274654E+03 -0.22977540859E+02 -0.89965174343E+02  0.13693808225E+03  0.41800000000E+01 0.  1.
        -11    1    1    2    0    0 -0.17128162339E+02  0.59442753514E+02 -0.32136126171E+03  0.32726117310E+03  0.00000000000E+00 0.  1.
         11    1    1    2    0    0 -0.65502791035E+02  0.12803515557E+02 -0.18651067678E+03  0.19809285246E+03  0.00000000000E+00 0. -1.
</event>
<event>
 7    1  0.2690635E-009  0.9229583E+02  0.7561462E-02  0.1297385E+00
         -2   -1    0    0    0  501 -0.00000000000E+00  0.00000000000E+00  0.32426225894E+03  0.32426225894E+03  0.00000000000E+00 0.  1.
          2   -1    0    0  501    0  0.00000000000E+00 -0.00000000000E+00 -0.44840049131E+02  0.44840049131E+02  0.00000000000E+00 0. -1.
         25    2    1    2    0    0 -0.21326958397E+02 -0.18920500239E+02  0.89036764009E+02  0.15616567777E+03  0.12508936439E+03 0.  0.
          5    1    3    3  502    0 -0.53511431686E+02 -0.18651492090E+02 -0.46535415916E+01  0.57012975081E+02  0.41800000000E+01 0. -1.
         -5    1    3    3    0  502  0.32184473289E+02 -0.26900814934E+00  0.93690305600E+02  0.99152702685E+02  0.41800000000E+01 0. -1.
        -11    1    1    2    0    0 -0.20510560703E+02  0.42570341586E+02  0.90717268559E+02  0.10228655776E+03  0.00000000000E+00 0.  1.
         11    1    1    2    0    0  0.41837519100E+02 -0.23649841347E+02  0.99668177243E+02  0.11065007255E+03  0.00000000000E+00 0. -1.
</event>
<event>
 7    1  0.2690635E-009  0.1643719E+03  0.7561462E-02  0.1183847E+00
         -2   -1    0    0    0  501 -0.00000000000E+00  0.00000000000E+00  0.45705035563E+02  0.45705035563E+02  0.00000000000E+00 0. -1.
          2   -1    0    0  501    0  0.00000000000E+00 -0.00000000000E+00 -0.78784475255E+03  0.78784475255E+03  0.00000000000E+00 0.  1.
         25    2    1    2    0    0  0.18991465675E+02  0.14829135865E+03 -0.31682026583E+03  0.37198599705E+03  0.12508996101E+03 0.  0.
          5    1    3    3  502    0 -0.39073605521E+02  0.54863762033E+02 -0.20176563944E+03  0.21275249632E+03  0.41800000000E+01 0.  1.
         -5    1    3    3    0  502  0.58065071196E+02  0.93427596612E+02 -0.11505462639E+03  0.15923350073E+03  0.41800000000E+01 0.  1.
        -11    1    1    2    0    0 -0.50601890126E+01 -0.11471174602E+03 -0.40269186779E+03  0.41874232002E+03  0.00000000000E+00 0.  1.
         11    1    1    2    0    0 -0.13931276662E+02 -0.33579612621E+02 -0.22627583365E+02  0.42821471042E+02  0.00000000000E+00 0. -1.
</event>
<event>
 7    1  0.3067038E-009  0.1261108E+03  0.7561462E-02  0.1233343E+00
          2   -1    0    0  501    0  0.00000000000E+00  0.00000000000E+00  0.12894488790E+03  0.12894488790E+03  0.00000000000E+00 0. -1.
         -2   -1    0    0    0  501 -0.00000000000E+00 -0.00000000000E+00 -0.13877582188E+03  0.13877582188E+03  0.00000000000E+00 0.  1.
         25    2    1    2    0    0 -0.70085467024E+02  0.12658860190E+02  0.25851167865E+02  0.14624463606E+03  0.12508793413E+03 0.  0.
          5    1    3    3  502    0 -0.18660324745E+02 -0.50925824340E+02  0.33690969839E+02  0.63985944964E+02  0.41800000000E+01 0. -1.
         -5    1    3    3    0  502 -0.51425142280E+02  0.63584684530E+02 -0.78398019748E+01  0.82258691092E+02  0.41800000000E+01 0. -1.
        -11    1    1    2    0    0  0.56724017675E+02  0.34858982836E+02 -0.23803805095E+02  0.70706322225E+02  0.00000000000E+00 0.  1.
         11    1    1    2    0    0  0.13361449349E+02 -0.47517843026E+02 -0.11878296750E+02  0.50769751508E+02  0.00000000000E+00 0. -1.
</event>
<event>
 7    1  0.2690635E-009  0.6578601E+02  0.7561462E-02  0.1375039E+00
         -1   -1    0    0    0  501 -0.00000000000E+00  0.00000000000E+00  0.24470195262E+03  0.24470195262E+03  0.00000000000E+00 0.  1.
          1   -1    0    0  501    0  0.00000000000E+00 -0.00000000000E+00 -0.53053978447E+02  0.53053978447E+02  0.00000000000E+00 0. -1.
         25    2    1    2    0    0  0.32974593842E+02  0.34127926618E+01  0.10193836387E+03  0.16473649448E+03  0.12509081338E+03 0.  0.
          5    1    3    3  502    0  0.43461033406E+02  0.91211217037E+01  0.12811820226E+03  0.13566061491E+03  0.41800000000E+01 0.  1.
         -5    1    3    3    0  502 -0.10486439563E+02 -0.57083290419E+01 -0.26179838389E+02  0.29075879578E+02  0.41800000000E+01 0.  1.
        -11    1    1    2    0    0 -0.13704662369E+02  0.31549101857E+02  0.86360359996E+02  0.92958460493E+02  0.00000000000E+00 0.  1.
         11    1    1    2    0    0 -0.19269931473E+02 -0.34961894519E+02  0.33492503002E+01  0.40060976086E+02  0.00000000000E+00 0. -1.
</event>
<event>
 7    1  0.2690635E-009  0.1061229E+03  0.7561462E-02  0.1267923E+00
         -1   -1    0    0    0  501 -0.00000000000E+00  0.00000000000E+00  0.30705413150E+03  0.30705413150E+03  0.00000000000E+00 0.  1.
          1   -1    0    0  501    0  0.00000000000E+00 -0.00000000000E+00 -0.53288853377E+02  0.53288853377E+02  0.00000000000E+00 0. -1.
         25    2    1    2    0    0  0.54834661001E+02  0.17366492019E+02  0.97533275478E+02  0.16872733817E+03  0.12509092584E+03 0.  0.
          5    1    3    3  502    0  0.93835873869E+02  0.10993329856E+02  0.50689363730E+02  0.10729822236E+03  0.41800000000E+01 0.  1.
         -5    1    3    3    0  502 -0.39001212868E+02  0.63731621623E+01  0.46843911748E+02  0.61429115808E+02  0.41800000000E+01 0.  1.
        -11    1    1    2    0    0 -0.87663009196E+01 -0.29104854728E+02  0.22700639551E+01  0.30481039860E+02  0.00000000000E+00 0. -1.
         11    1    1    2    0    0 -0.46068360081E+02  0.11738362709E+02  0.15396193869E+03  0.16113460685E+03  0.00000000000E+00 0.  1.
</event>
<event>
 7    1  0.2690635E-009  0.1699981E+03  0.7561462E-02  0.1177850E+00
         -2   -1    0    0    0  501 -0.00000000000E+00  0.00000000000E+00  0.38781389153E+03  0.38781389153E+03  0.00000000000E+00 0.  1.
          2   -1    0    0  501    0  0.00000000000E+00 -0.00000000000E+00 -0.80356067499E+02  0.80356067499E+02  0.00000000000E+00 0. -1.
         25    2    1    2    0    0  0.15853889992E+02 -0.98359462761E+02  0.19733174496E+03  0.25399318991E+03  0.12508714246E+03 0.  0.
          5    1    3    3  502    0  0.37488353861E+02  0.15167204017E+02  0.29732834385E+02  0.50367991755E+02  0.41800000000E+01 0. -1.
         -5    1    3    3    0  502 -0.21634463868E+02 -0.11352666678E+03  0.16759891057E+03  0.20362519815E+03  0.41800000000E+01 0. -1.
        -11    1    1    2    0    0 -0.27798693716E+02  0.13878511227E+03  0.84814720508E+02  0.16500791367E+03  0.00000000000E+00 0.  1.
         11    1    1    2    0    0  0.11944803724E+02 -0.40425649506E+02  0.25311358562E+02  0.49168855450E+02  0.00000000000E+00 0. -1.
</event>
<event>
 7    1  0.2690635E-009  0.1193079E+03  0.7561462E-02  0.1244243E+00
          1   -1    0    0  501    0  0.00000000000E+00  0.00000000000E+00  0.68658313793E+03  0.68658313793E+03  0.00000000000E+00 0. -1.
         -1   -1    0    0    0  501 -0.00000000000E+00 -0.00000000000E+00 -0.54145290446E+02  0.54145290446E+02  0.00000000000E+00 0.  1.
         25    2    1    2    0    0  0.96229779537E+02  0.42877304077E+02  0.10209269135E+03  0.19279383526E+03  0.12509161288E+03 0.  0.
          5    1    3    3  502    0  0.38846120812E+02  0.49785163973E+02 -0.12383862090E+02  0.64485782109E+02  0.41800000000E+01 0.  1.
         -5    1    3    3    0  502  0.57383658725E+02 -0.69078598950E+01  0.11447655344E+03  0.12830805315E+03  0.41800000000E+01 0.  1.
        -11    1    1    2    0    0 -0.16226853390E+02 -0.32996481118E+02  0.57392536373E+02  0.68161439014E+02  0.00000000000E+00 0.  1.
         11    1    1    2    0    0 -0.80002926147E+02 -0.98808229591E+01  0.47295261977E+03  0.47977315410E+03  0.00000000000E+00 0. -1.
</event>
<event>
 7    1  0.2690635E-009  0.1121851E+03  0.7561462E-02  0.1256576E+00
         -1   -1    0    0    0  501 -0.00000000000E+00  0.00000000000E+00  0.30833297529E+02  0.30833297529E+02  0.00000000000E+00 0.  1.
          1   -1    0    0  501    0  0.00000000000E+00 -0.00000000000E+00 -0.58050805539E+03  0.58050805539E+03  0.00000000000E+00 0. -1.
         25    2    1    2    0    0 -0.61459733012E+02  0.38034701400E+02 -0.23635912170E+03  0.27701451812E+03  0.12508985390E+03 0.  0.
          5    1    3    3  502    0 -0.66269268968E+02 -0.27664200820E+01 -0.42682767143E+02  0.78984556090E+02  0.41800000000E+01 0.  1.
         -5    1    3    3    0  502  0.48095359560E+01  0.40801121482E+02 -0.19367635455E+03  0.19802996203E+03  0.41800000000E+01 0.  1.
        -11    1    1    2    0    0  0.53554061321E+02 -0.67468054587E+02 -0.23505501576E+03  0.25034143945E+03  0.00000000000E+00 0.  1.
         11    1    1    2    0    0  0.79056716918E+01  0.29433353187E+02 -0.78260620405E+02  0.83985395343E+02  0.00000000000E+00 0. -1.
</event>
<event>
 7    1  0.2690635E-009  0.1308529E+03  0.7561462E-02  0.1226196E+00
          3   -1    0    0  501    0  0.00000000000E+00  0.00000000000E+00  0.32731156733E+02  0.32731156733E+02  0.00000000000E+00 0. -1.
         -3   -1    0    0    0  501 -0.00000000000E+00 -0.00000000000E+00 -0.58396775657E+03  0.58396775657E+03  0.00000000000E+00 0.  1.
         25    2    1    2    0    0 -0.62344441222E+02  0.45687005319E+02 -0.37484850849E+03  0.40265728842E+03  0.12508939121E+03 0.  0.
          5    1    3    3  502    0 -0.46209362025E+02  0.85525434219E+02 -0.19804617939E+03  0.22065735113E+03  0.41800000000E+01 0. -1.
         -5    1    3    3    0  502 -0.16135079197E+02 -0.39838428900E+02 -0.17680232910E+03  0.18199993729E+03  0.41800000000E+01 0. -1.
        -11    1    1    2    0    0 -0.16806769703E+02  0.14171356699E+02 -0.33760382221E+02  0.40287197300E+02  0.00000000000E+00 0.  1.
         11    1    1    2    0    0  0.79151210925E+02 -0.59858362017E+02 -0.14262770912E+03  0.17375442758E+03  0.00000000000E+00 0. -1.
</event>
<event>
 7    1  0.2690635E-009  0.1844597E+03  0.7561462E-02  0.1163555E+00
         -1   -1    0    0    0  501 -0.00000000000E+00  0.00000000000E+00  0.15575236728E+03  0.15575236728E+03  0.00000000000E+00 0.  1.
          1   -1    0    0  501    0  0.00000000000E+00 -0.00000000000E+00 -0.31692892250E+03  0.31692892250E+03  0.00000000000E+00 0. -1.
         25    2    1    2    0    0  0.18342367729E+03 -0.14338127474E+02 -0.14990089835E+03  0.26826763403E+03  0.12508963527E+03 0.  0.
          5    1    3    3  502    0  0.56823008600E+02 -0.86552012056E+01 -0.12693853727E+03  0.13940814703E+03  0.41800000000E+01 0.  1.
         -5    1    3    3    0  502  0.12660066869E+03 -0.56829262686E+01 -0.22962361077E+02  0.12885948700E+03  0.41800000000E+01 0.  1.
        -11    1    1    2    0    0 -0.36729979167E+02 -0.26106596583E+01 -0.39575607446E+02  0.54056781426E+02  0.00000000000E+00 0. -1.
         11    1    1    2    0    0 -0.14669369812E+03  0.16948787132E+02  0.28299950585E+02  0.15035687432E+03  0.00000000000E+00 0.  1.
</event>
<event>
 7    1  0.2690635E-009  0.1119694E+03  0.7561462E-02  0.1256966E+00
         -4   -1    0    0    0  501 -0.00000000000E+00  0.00000000000E+00  0.53098064412E+02  0.53098064412E+02  0.00000000000E+00 0.  1.
          4   -1    0    0  501    0  0.00000000000E+00 -0.00000000000E+00 -0.25001693867E+03  0.25001693867E+03  0.00000000000E+00 0. -1.
         25    2    1    2    0    0  0.13099280385E+02  0.34994987952E+02 -0.13575271007E+03  0.18834279803E+03  0.12509185005E+03 0.  0.
          5    1    3    3  502    0  0.50104902056E+00 -0.47151926543E+02 -0.49672407286E+02  0.68617604682E+02  0.41800000000E+01 0. -1.
         -5    1    3    3    0  502  0.12598231365E+02  0.82146914494E+02 -0.86080302787E+02  0.11972519335E+03  0.41800000000E+01 0. -1.
        -11    1    1    2    0    0  0.25066992508E+02 -0.47093093749E+02 -0.19014545561E+02  0.56636265194E+02  0.00000000000E+00 0.  1.
         11    1    1    2    0    0 -0.38166272893E+02  0.12098105797E+02 -0.42151618627E+02  0.58135939859E+02  0.00000000000E+00 0. -1.
</event>
<event>
 7    1  0.2690635E-009  0.1419896E+03  0.7561462E-02  0.1210677E+00
          2   -1    0    0  501    0  0.00000000000E+00  0.00000000000E+00  0.12075098165E+04  0.12075098165E+04  0.00000000000E+00 0. -1.
         -2   -1    0    0    0  501 -0.00000000000E+00 -0.00000000000E+00 -0.17105953328E+02  0.17105953328E+02  0.00000000000E+00 0.  1.
         25    2    1    2    0    0 -0.11056135727E+02  0.90956802940E+02  0.72139451643E+03  0.73787059044E+03  0.12509029445E+03 0.  0.
          5    1    3    3  502    0 -0.51857560779E+02 -0.34054152321E+01  0.24955185702E+03  0.25494000314E+03  0.41800000000E+01 0.  1.
         -5    1    3    3    0  502  0.40801425052E+02  0.94362218172E+02  0.47184265941E+03  0.48293058730E+03  0.41800000000E+01 0.  1.
        -11    1    1    2    0    0  0.47843417216E+02 -0.26386916648E+02  0.16621485525E+03  0.17496468228E+03  0.00000000000E+00 0.  1.
         11    1    1    2    0    0 -0.36787281489E+02 -0.64569886292E+02  0.30279449147E+03  0.31178049709E+03  0.00000000000E+00 0. -1.
</event>
<event>
 7    1  0.2690635E-009  0.2058801E+03  0.7561462E-02  0.1144871E+00
          2   -1    0    0  501    0  0.00000000000E+00  0.00000000000E+00  0.71936551247E+03  0.71936551247E+03  0.00000000000E+00 0.  1.
         -2   -1    0    0    0  501 -0.00000000000E+00 -0.00000000000E+00 -0.64181227547E+02  0.64181227547E+02  0.00000000000E+00 0. -1.
         25    2    1    2    0    0  0.87372715465E+02 -0.15588280021E+03  0.42534978014E+03  0.47802034368E+03  0.12509026622E+03 0.  0.
          5    1    3    3  502    0  0.35989755137E+02  0.14368242539E+02  0.97877445097E+02  0.10535262468E+03  0.41800000000E+01 0. -1.
         -5    1    3    3    0  502  0.51382960328E+02 -0.17025104275E+03  0.32747233504E+03  0.37266771900E+03  0.41800000000E+01 0. -1.
        -11    1    1    2    0    0  0.10496598785E+02  0.48435111643E+02  0.95599243480E+02  0.10768172538E+03  0.00000000000E+00 0.  1.
         11    1    1    2    0    0 -0.97869314250E+02  0.10744768856E+03  0.13423526131E+03  0.19784467096E+03  0.00000000000E+00 0. -1.
</event>
<event>
 7    1  0.2690635E-009  0.1488344E+03  0.7561462E-02  0.1201913E+00
         -1   -1    0    0    0  501 -0.00000000000E+00  0.00000000000E+00  0.76833690558E+02  0.76833690558E+02  0.00000000000E+00 0.  1.
          1   -1    0    0  501    0  0.00000000000E+00 -0.00000000000E+00 -0.43564247850E+03  0.43564247850E+03  0.00000000000E+00 0. -1.
         25    2    1    2    0    0 -0.10238004798E+03  0.68980410704E+02 -0.29987306748E+03  0.34757892281E+03  0.12508908705E+03 0.  0.
          5    1    3    3  502    0 -0.89652518445E+02  0.33112915890E+00 -0.23739226666E+03  0.25379173426E+03  0.41800000000E+01 0.  1.
         -5    1    3    3    0  502 -0.12727529534E+02  0.68649281545E+02 -0.62480800816E+02  0.93787188545E+02  0.41800000000E+01 0.  1.
        -11    1    1    2    0    0 -0.69712076554E+01 -0.13863803791E+02 -0.37493475977E+02  0.40577869986E+02  0.00000000000E+00 0. -1.
         11    1    1    2    0    0  0.10935125563E+03 -0.55116606913E+02 -0.21442244489E+02  0.12431937627E+03  0.00000000000E+00 0.  1.
</event>
<event>
 7    1  0.2690635E-009  0.2313442E+03  0.7561462E-02  0.1125697E+00
         -1   -1    0    0    0  501 -0.00000000000E+00  0.00000000000E+00  0.38038193540E+03  0.38038193540E+03  0.00000000000E+00 0.  1.
          1   -1    0    0  501    0  0.00000000000E+00 -0.00000000000E+00 -0.21816771278E+03  0.21816771278E+03  0.00000000000E+00 0. -1.
         25    2    1    2    0    0  0.52122264537E+02 -0.21594402387E+03  0.22840123626E+03  0.34229071636E+03  0.12508899984E+03 0.  0.
          5    1    3    3  502    0  0.50324871614E+02 -0.55543436364E+02  0.14057609582E+03  0.15936366318E+03  0.41800000000E+01 0. -1.
         -5    1    3    3    0  502  0.17973929225E+01 -0.16040058750E+03  0.87825140433E+02  0.18292705318E+03  0.41800000000E+01 0. -1.
        -11    1    1    2    0    0 -0.19038315839E+02  0.16698355939E+03 -0.71824278427E+00  0.16806689874E+03  0.00000000000E+00 0.  1.
         11    1    1    2    0    0 -0.33083948698E+02  0.48960464474E+02 -0.65468770853E+02  0.88192033087E+02  0.00000000000E+00 0. -1.
</event>
<event>
 7    1  0.2690635E-009  0.1889987E+03  0.7561462E-02  0.1159368E+00
          1   -1    0    0  501    0  0.00000000000E+00  0.00000000000E+00  0.62758285552E+02  0.62758285552E+02  0.00000000000E+00 0. -1.
         -1   -1    0    0    0  501 -0.00000000000E+00 -0.00000000000E+00 -0.67897064510E+03  0.67897064510E+03  0.00000000000E+00 0.  1.
         25    2    1    2    0    0 -0.49776651000E+02 -0.16685033857E+03 -0.35328780902E+03  0.41325122070E+03  0.12509014726E+03 0.  0.
          5    1    3    3  502    0  0.29536639670E+02 -0.21233347115E+02 -0.13024133083E+03  0.13529059379E+03  0.41800000000E+01 0. -1.
         -5    1    3    3    0  502 -0.79313290671E+02 -0.14561699145E+03 -0.22304647819E+03  0.27796062690E+03  0.41800000000E+01 0. -1.
        -11    1    1    2    0    0 -0.12842790506E+01  0.19950936667E+02  0.31959028618E+01  0.20246062375E+02  0.00000000000E+00 0. -1.
         11    1    1    2    0    0  0.51060930051E+02  0.14689940190E+03 -0.26612045339E+03  0.30823164758E+03  0.00000000000E+00 0.  1.
</event>
<event>
 7    1  0.2690635E-009  0.1116000E+03  0.7561462E-02  0.1257635E+00
          1   -1    0    0  501    0  0.00000000000E+00  0.00000000000E+00  0.88603783005E+03  0.88603783005E+03  0.00000000000E+00 0. -1.
         -1   -1    0    0    0  501 -0.00000000000E+00 -0.00000000000E+00 -0.43050814073E+02  0.43050814073E+02  0.00000000000E+00 0.  1.
         25    2    1    2    0    0  0.25055053721E+02 -0.56626762238E+02  0.79994431041E+03  0.81203004017E+03  0.12509012937E+03 0.  0.
          5    1    3    3  502    0 -0.46446115186E+02 -0.37564129278E+02  0.24775428477E+03  0.25488813909E+03  0.41800000000E+01 0. -1.
         -5    1    3    3    0  502  0.71501168907E+02 -0.19062632960E+02  0.55219002564E+03  0.55714190108E+03  0.41800000000E+01 0. -1.
        -11    1    1    2    0    0  0.14166254479E+02  0.46619174301E+02 -0.10593744593E+02  0.49862386656E+02  0.00000000000E+00 0.  1.
         11    1    1    2    0    0 -0.39221308200E+02  0.10007587936E+02  0.53636450163E+02  0.67196217299E+02  0.00000000000E+00 0. -1.
</event>
<event>
 7    1  0.2690635E-009  0.1166743E+03  0.7561462E-02  0.1248686E+00
         -2   -1    0    0    0  501 -0.00000000000E+00  0.00000000000E+00  0.18028206345E+02  0.18028206345E+02  0.00000000000E+00 0.  1.
          2   -1    0    0  501    0  0.00000000000E+00 -0.00000000000E+00 -0.10893832833E+04  0.10893832833E+04  0.00000000000E+00 0. -1.
         25    2    1    2    0    0  0.82190447009E+02 -0.26336582718E+02 -0.85840834544E+03  0.87175716653E+03  0.12508710845E+03 0.  0.
          5    1    3    3  502    0  0.69473964616E+01 -0.52248994437E+02 -0.15334718825E+03  0.16220683179E+03  0.41800000000E+01 0. -1.
         -5    1    3    3    0  502  0.75243050548E+02  0.25912411719E+02 -0.70506115720E+03  0.70955033474E+03  0.41800000000E+01 0. -1.
        -11    1    1    2    0    0 -0.41871192052E+02  0.40301388751E+02 -0.12897054913E+03  0.14145953910E+03  0.00000000000E+00 0.  1.
         11    1    1    2    0    0 -0.40319254958E+02 -0.13964806033E+02 -0.83976182339E+02  0.94194783975E+02  0.00000000000E+00 0. -1.
</event>
<event>
 7    1  0.2690635E-009  0.1075371E+03  0.7561462E-02  0.1265200E+00
         -1   -1    0    0    0  501 -0.00000000000E+00  0.00000000000E+00  0.16305297602E+03  0.16305297602E+03  0.00000000000E+00 0.  1.
          1   -1    0    0  501    0  0.00000000000E+00 -0.00000000000E+00 -0.17222444337E+03  0.17222444337E+03  0.00000000000E+00 0. -1.
         25    2    1    2    0    0  0.82705765218E+02  0.21448076236E+02 -0.99799808128E+02  0.18140812507E+03  0.12509453452E+03 0.  0.
          5    1    3    3  502    0  0.48266838724E+02 -0.13120430239E+02 -0.11872916174E+03  0.12890275272E+03  0.41800000000E+01 0. -1.
         -5    1    3    3    0  502  0.34438926494E+02  0.34568506474E+02  0.18929353615E+02  0.52505372355E+02  0.41800000000E+01 0. -1.
        -11    1    1    2    0    0 -0.20030762230E+02 -0.44759617623E+02  0.66829781872E+02  0.82890738628E+02  0.00000000000E+00 0.  1.
         11    1    1    2    0    0 -0.62675002987E+02  0.23311541387E+02  0.23798558906E+02  0.70978555686E+02  0.00000000000E+00 0. -1.
</event>
<event>
 7    1  0.2690635E-009  0.1014163E+03  0.7561462E-02  0.1277346E+00
          1   -1    0    0  501    0  0.00000000000E+00  0.00000000000E+00  0.77667725257E+02  0.77667725257E+02  0.00000000000E+00 0. -1.
         -1   -1    0    0    0  501 -0.00000000000E+00 -0.00000000000E+00 -0.35502263541E+03  0.35502263541E+03  0.00000000000E+00 0.  1.
         25    2    1    2    0    0 -0.59160620430E+02 -0.93454793100E+01 -0.42327165372E+01  0.13875418829E+03  0.12508993519E+03 0.  0.
          5    1    3    3  502    0 -0.64950663408E+02  0.16791871780E+02 -0.51224638764E+02  0.84510305002E+02  0.41800000000E+01 0.  1.
         -5    1    3    3    0  502  0.57900429776E+01 -0.26137351090E+02  0.46991922227E+02  0.54243883289E+02  0.41800000000E+01 0.  1.
        -11    1    1    2    0    0  0.49277501383E+01 -0.36912352027E+02 -0.10036331611E+03  0.10704951973E+03  0.00000000000E+00 0. -1.
         11    1    1    2    0    0  0.54232870292E+02  0.46257831337E+02 -0.17275887750E+03  0.18688665264E+03  0.00000000000E+00 0.  1.
</event>
<event>
 7    1  0.2690635E-009  0.7878446E+02  0.7561462E-02  0.1332537E+00
         -2   -1    0    0    0  501 -0.00000000000E+00  0.00000000000E+00  0.10535034215E+03  0.10535034215E+03  0.00000000000E+00 0.  1.
          2   -1    0    0  501    0  0.00000000000E+00 -0.00000000000E+00 -0.11584254204E+03  0.11584254204E+03  0.00000000000E+00 0. -1.
         25    2    1    2    0    0 -0.28827866068E+02  0.79551275870E+00 -0.10724515098E+02  0.12881740511E+03  0.12508888812E+03 0.  0.
          5    1    3    3  502    0  0.55152564741E+01  0.24454441419E+02  0.49383520051E+02  0.55539555380E+02  0.41800000000E+01 0.  1.
         -5    1    3    3    0  502 -0.34343122542E+02 -0.23658928661E+02 -0.60108035149E+02  0.73277849728E+02  0.41800000000E+01 0.  1.
        -11    1    1    2    0    0  0.59378889907E+02 -0.40547043384E+01 -0.92264569630E+01  0.60228072374E+02  0.00000000000E+00 0.  1.
         11    1    1    2    0    0 -0.30551023838E+02  0.32591915797E+01  0.94587721701E+01  0.32147406712E+02  0.00000000000E+00 0. -1.
</event>
<event>
 7    1  0.2690635E-009  0.9054488E+02  0.7561462E-02  0.1301538E+00
         -2   -1    0    0    0  501 -0.00000000000E+00  0.00000000000E+00  0.11871352665E+02  0.11871352665E+02  0.00000000000E+00 0.  1.
          2   -1    0    0  501    0  0.00000000000E+00 -0.00000000000E+00 -0.10298062682E+04  0.10298062682E+04  0.00000000000E+00 0. -1.
         25    2    1    2    0    0 -0.82608574069E+01 -0.88255526008E+01 -0.69179706746E+03  0.70311893313E+03  0.12508764705E+03 0.  0.
          5    1    3    3  502    0  0.32015522560E+02 -0.33735906007E+02 -0.57673123395E+03  0.57861860811E+03  0.41800000000E+01 0. -1.
         -5    1    3    3    0  502 -0.40276379967E+02  0.24910353407E+02 -0.11506583351E+03  0.12450032503E+03  0.41800000000E+01 0. -1.
        -11    1    1    2    0    0 -0.39064511993E+02  0.32630505470E+01 -0.99046177598E+02  0.10652149498E+03  0.00000000000E+00 0.  1.
         11    1    1    2    0    0  0.47325369400E+02  0.55625020538E+01 -0.22709167045E+03  0.23203719272E+03  0.00000000000E+00 0. -1.
</event>
<event>
 7    1  0.2690635E-009  0.1495633E+03  0.7561462E-02  0.1201011E+00
         -2   -1    0    0    0  501 -0.00000000000E+00  0.00000000000E+00  0.21761834096E+03  0.21761834096E+03  0.00000000000E+00 0.  1.
          2   -1    0    0  501    0  0.00000000000E+00 -0.00000000000E+00 -0.11213537887E+03  0.11213537887E+03  0.00000000000E+00 0. -1.
         25    2    1    2    0    0  0.10067639034E+03 -0.50644272940E+02  0.62674823891E+02  0.17965436884E+03  0.12508789206E+03 0.  0.
          5    1    3    3  502    0  0.17686844070E+02 -0.68828673265E+02 -0.44076816708E+01  0.71323984565E+02  0.41800000000E+01 0. -1.
         -5    1    3    3    0  502  0.82989546272E+02  0.18184400325E+02  0.67082505562E+02  0.10833038428E+03  0.41800000000E+01 0. -1.
        -11    1    1    2    0    0 -0.25259081979E+02 -0.25368897575E+02  0.32463977167E+01  0.35946366781E+02  0.00000000000E+00 0. -1.
         11    1    1    2    0    0 -0.75417308363E+02  0.76013170515E+02  0.39561740477E+02  0.11415298420E+03  0.00000000000E+00 0.  1.
</event>
<event>
 7    1  0.2690635E-009  0.8872867E+02  0.7561462E-02  0.1305960E+00
         -1   -1    0    0    0  501 -0.00000000000E+00  0.00000000000E+00  0.14409388243E+03  0.14409388243E+03  0.00000000000E+00 0.  1.
          1   -1    0    0  501    0  0.00000000000E+00 -0.00000000000E+00 -0.11252184881E+03  0.11252184881E+03  0.00000000000E+00 0. -1.
         25    2    1    2    0    0 -0.99590460065E+01 -0.63228883932E+02 -0.18898202774E+01  0.14051690360E+03  0.12507739371E+03 0.  0.
          5    1    3    3  502    0  0.98031435694E-01 -0.47096544751E+02 -0.61634599450E+02  0.77681338731E+02  0.41800000000E+01 0.  1.
         -5    1    3    3    0  502 -0.10057077442E+02 -0.16132339181E+02  0.59744779173E+02  0.62835564870E+02  0.41800000000E+01 0.  1.
        -11    1    1    2    0    0  0.45370666761E+02  0.94880316951E+01  0.88201828310E+01  0.47183850765E+02  0.00000000000E+00 0.  1.
         11    1    1    2    0    0 -0.35411620755E+02  0.53740852236E+02  0.24641671067E+02  0.68914976867E+02  0.00000000000E+00 0. -1.
</event>
<event>
 7    1  0.2690635E-009  0.2050796E+03  0.7561462E-02  0.1145523E+00
         -1   -1    0    0    0  501 -0.00000000000E+00  0.00000000000E+00  0.12987153766E+03  0.12987153766E+03  0.00000000000E+00 0.  1.
          1   -1    0    0  501    0  0.00000000000E+00 -0.00000000000E+00 -0.49691511026E+03  0.49691511026E+03  0.00000000000E+00 0. -1.
         25    2    1    2    0    0  0.13462305811E+03 -0.12828788119E+03 -0.22434826363E+02  0.22523727560E+03  0.12508941064E+03 0.  0.
          5    1    3    3  502    0  0.20420962224E+02 -0.10501070857E+03 -0.17726778576E+02  0.10851716772E+03  0.41800000000E+01 0. -1.
         -5    1    3    3    0  502  0.11420209589E+03 -0.23277172621E+02 -0.47080477873E+01  0.11672010788E+03  0.41800000000E+01 0. -1.
        -11    1    1    2    0    0 -0.11250936802E+03  0.11386188521E+03 -0.33851329987E+03  0.37445178726E+03  0.00000000000E+00 0. -1.
         11    1    1    2    0    0 -0.22113690093E+02  0.14425995980E+02 -0.60954463658E+01  0.27097585057E+02  0.00000000000E+00 0.  1.
</event>
<event>
 7    1  0.2690635E-009  0.1482978E+03  0.7561462E-02  0.1202580E+00
          1   -1    0    0  501    0  0.00000000000E+00  0.00000000000E+00  0.25288485749E+03  0.25288485749E+03  0.00000000000E+00 0. -1.
         -1   -1    0    0    0  501 -0.00000000000E+00 -0.00000000000E+00 -0.93853378199E+02  0.93853378199E+02  0.00000000000E+00 0.  1.
         25    2    1    2    0    0  0.54375402557E+02 -0.94428428598E+02  0.78482948247E+02  0.18352640065E+03  0.12509577946E+03 0.  0.
          5    1    3    3  502    0  0.13860943899E+02 -0.11006895975E+03  0.84455482925E+02  0.13949015256E+03  0.41800000000E+01 0.  1.
         -5    1    3    3    0  502  0.40514458658E+02  0.15640531147E+02 -0.59725346781E+01  0.44036248085E+02  0.41800000000E+01 0.  1.
        -11    1    1    2    0    0 -0.75445185809E+02  0.44100527869E+02  0.49951989430E+02  0.10065800449E+03  0.00000000000E+00 0.  1.
         11    1    1    2    0    0  0.21069783252E+02  0.50327900728E+02  0.30596541611E+02  0.62553830551E+02  0.00000000000E+00 0. -1.
</event>
<event>
 7    1  0.2690635E-009  0.7006600E+02  0.7561462E-02  0.1359869E+00
          2   -1    0    0  501    0  0.00000000000E+00  0.00000000000E+00  0.66793212597E+03  0.66793212597E+03  0.00000000000E+00 0. -1.
         -2   -1    0    0    0  501 -0.00000000000E+00 -0.00000000000E+00 -0.30568146365E+02  0.30568146365E+02  0.00000000000E+00 0.  1.
         25    2    1    2    0    0 -0.40298013055E+02  0.21167004552E+01  0.55605386768E+03  0.57137703622E+03  0.12508958183E+03 0.  0.
          5    1    3    3  502    0 -0.46424858152E+02  0.98553331990E+01  0.67035824052E+02  0.82241529370E+02  0.41800000000E+01 0.  1.
         -5    1    3    3    0  502  0.61268450971E+01 -0.77386327439E+01  0.48901804363E+03  0.48913550685E+03  0.41800000000E+01 0.  1.
        -11    1    1    2    0    0  0.39502092375E+02  0.30025379678E+02  0.80977046100E+02  0.94969577875E+02  0.00000000000E+00 0. -1.
         11    1    1    2    0    0  0.79592067997E+00 -0.32142080133E+02  0.33306582030E+00  0.32153658234E+02  0.00000000000E+00 0.  1.
</event>
<event>
 7    1  0.2690635E-009  0.7606032E+02  0.7561462E-02  0.1340619E+00
          2   -1    0    0  501    0  0.00000000000E+00  0.00000000000E+00  0.20590583771E+02  0.20590583771E+02  0.00000000000E+00 0. -1.
         -2   -1    0    0    0  501 -0.00000000000E+00 -0.00000000000E+00 -0.58648677662E+03  0.58648677662E+03  0.00000000000E+00 0.  1.
         25    2    1    2    0    0  0.86063903369E+01 -0.13223705404E+02 -0.34298312643E+03  0.36542245877E+03  0.12508881652E+03 0.  0.
          5    1    3    3  502    0  0.33038485217E+02 -0.32622766690E+02 -0.32665278718E+03  0.32996257695E+03  0.41800000000E+01 0.  1.
         -5    1    3    3    0  502 -0.24432094880E+02  0.19399061285E+02 -0.16330339249E+02  0.35459881824E+02  0.41800000000E+01 0.  1.
        -11    1    1    2    0    0 -0.28600332329E+02 -0.20245060183E+02 -0.18120961738E+03  0.18456642951E+03  0.00000000000E+00 0.  1.
         11    1    1    2    0    0  0.19993941992E+02  0.33468765587E+02 -0.41703449044E+02  0.57088472116E+02  0.00000000000E+00 0. -1.
</event>
<event>
 7    1  0.2690635E-009  0.1014705E+03  0.7561462E-02  0.1277234E+00
          2   -1    0    0  501    0  0.00000000000E+00  0.00000000000E+00  0.90904742458E+03  0.90904742458E+03  0.00000000000E+00 0. -1.
         -2   -1    0    0    0  501 -0.00000000000E+00 -0.00000000000E+00 -0.17373150911E+02  0.17373150911E+02  0.00000000000E+00 0.  1.
         25    2    1    2    0    0 -0.38930296181E+02  0.32404866400E+02  0.63798486255E+03  0.65210228487E+03  0.12508821594E+03 0.  0.
          5    1    3    3  502    0  0.29164123436E+02  0.28805098339E+02  0.80356702320E+02  0.90304771712E+02  0.41800000000E+01 0.  1.
         -5    1    3    3    0  502 -0.68094419616E+02  0.35997680609E+01  0.55762816023E+03  0.56179751316E+03  0.41800000000E+01 0.  1.
        -11    1    1    2    0    0 -0.16488437232E+02 -0.34204995669E+02  0.47545923168E+02  0.60847884935E+02  0.00000000000E+00 0.  1.
         11    1    1    2    0    0  0.55418733413E+02  0.18001292697E+01  0.20614348794E+03  0.21347040568E+03  0.00000000000E+00 0. -1.
</event>
<event>
 7    1  0.2690635E-009  0.9635152E+02  0.7561462E-02  0.1288161E+00
          1   -1    0    0  501    0  0.00000000000E+00  0.00000000000E+00  0.15131941448E+04  0.15131941448E+04  0.00000000000E+00 0. -1.
         -1   -1    0    0    0  501 -0.00000000000E+00 -0.00000000000E+00 -0.10540595185E+02  0.10540595185E+02  0.00000000000E+00 0.  1.
         25    2    1    2    0    0  0.32302895209E+01  0.37056493273E+02  0.11542554254E+04  0.11616084550E+04  0.12507996291E+03 0.  0.
          5    1    3    3  502    0 -0.44753558262E+02  0.15190678754E+02  0.92958522074E+03  0.93079524747E+03  0.41800000000E+01 0.  1.
         -5    1    3    3    0  502  0.47983847783E+02  0.21865814519E+02  0.22467020468E+03  0.23081320752E+03  0.41800000000E+01 0.  1.
        -11    1    1    2    0    0  0.11240151310E+01  0.27567388659E+02  0.53458439470E+02  0.60158366651E+02  0.00000000000E+00 0. -1.
         11    1    1    2    0    0 -0.43543046518E+01 -0.64623881932E+02  0.29493968474E+03  0.30196791836E+03  0.00000000000E+00 0.  1.
</event>
<event>
 7    1  0.2690635E-009  0.1186643E+03  0.7561462E-02  0.1245317E+00
         -2   -1    0    0    0  501 -0.00000000000E+00  0.00000000000E+00  0.33672154739E+02  0.33672154739E+02  0.00000000000E+00 0.  1.
          2   -1    0    0  501    0  0.00000000000E+00 -0.00000000000E+00 -0.42331366601E+03  0.42331366601E+03  0.00000000000E+00 0. -1.
         25    2    1    2    0    0 -0.29692863160E+02 -0.39306338534E+02 -0.20442856718E+03  0.24467614067E+03  0.12509484547E+03 0.  0.
          5    1    3    3  502    0 -0.48265045194E+02 -0.77503386205E+02 -0.13072610695E+03  0.15950886151E+03  0.41800000000E+01 0. -1.
         -5    1    3    3    0  502  0.18572182034E+02  0.38197047671E+02 -0.73702460230E+02  0.85167279164E+02  0.41800000000E+01 0. -1.
        -11    1    1    2    0    0 -0.25675250216E+02  0.40405024774E+02 -0.75211088416E+02  0.89154317458E+02  0.00000000000E+00 0. -1.
         11    1    1    2    0    0  0.55368113376E+02 -0.10986862398E+01 -0.11000185567E+03  0.12315536262E+03  0.00000000000E+00 0.  1.
</event>
<event>
 7    1  0.2690635E-009  0.9968332E+02  0.7561462E-02  0.1280963E+00
         -1   -1    0    0    0  501 -0.00000000000E+00  0.00000000000E+00  0.58927317498E+02  0.58927317498E+02  0.00000000000E+00 0.  1.
          1   -1    0    0  501    0  0.00000000000E+00 -0.00000000000E+00 -0.24160664760E+03  0.24160664760E+03  0.00000000000E+00 0. -1.
         25    2    1    2    0    0  0.33887057405E+02  0.33795872028E+02 -0.11535955885E+03  0.17677334544E+03  0.12510193529E+03 0.  0.
          5    1    3    3  502    0  0.67068946567E+02  0.39344211609E+01 -0.18143484835E+02  0.69716437843E+02  0.41800000000E+01 0.  1.
         -5    1    3    3    0  502 -0.33181889163E+02  0.29861450867E+02 -0.97216074019E+02  0.10705690760E+03  0.41800000000E+01 0.  1.
        -11    1    1    2    0    0 -0.11586135789E+02 -0.55142289727E+02 -0.80302814302E+01  0.56915692728E+02  0.00000000000E+00 0.  1.
         11    1    1    2    0    0 -0.22300921616E+02  0.21346417699E+02 -0.59289489819E+02  0.66844926932E+02  0.00000000000E+00 0. -1.
</event>
<event>
 7    1  0.2690635E-009  0.1022608E+03  0.7561462E-02  0.1275612E+00
         -1   -1    0    0    0  501 -0.00000000000E+00  0.00000000000E+00  0.14881801402E+02  0.14881801402E+02  0.00000000000E+00 0.  1.
          1   -1    0    0  501    0  0.00000000000E+00 -0.00000000000E+00 -0.84170952034E+03  0.84170952034E+03  0.00000000000E+00 0. -1.
         25    2    1    2    0    0  0.25234160089E+01 -0.26966598932E+02 -0.47938800364E+03  0.49617964900E+03  0.12509125054E+03 0.  0.
          5    1    3    3  502    0  0.51996364235E+02 -0.47739884884E+02 -0.21369697071E+03  0.22509239479E+03  0.41800000000E+01 0.  1.
         -5    1    3    3    0  502 -0.49472948227E+02  0.20773285952E+02 -0.26569103293E+03  0.27108725421E+03  0.41800000000E+01 0.  1.
        -11    1    1    2    0    0  0.10019789670E+02 -0.24788184405E+02 -0.38241819221E+02  0.46661408127E+02  0.00000000000E+00 0.  1.
         11    1    1    2    0    0 -0.12543205679E+02  0.51754783337E+02 -0.30919789608E+03  0.31375026462E+03  0.00000000000E+00 0. -1.
</event>
<event>
 7    1  0.2690635E-009  0.1424596E+03  0.7561462E-02  0.1210057E+00
          1   -1    0    0  501    0  0.00000000000E+00  0.00000000000E+00  0.17637233510E+03  0.17637233510E+03  0.00000000000E+00 0. -1.
         -1   -1    0    0    0  501 -0.00000000000E+00 -0.00000000000E+00 -0.14409489795E+03  0.14409489795E+03  0.00000000000E+00 0.  1.
         25    2    1    2    0    0  0.57722469232E+02 -0.76651760714E+02  0.83101319339E+02  0.17821726084E+03  0.12509271326E+03 0.  0.
          5    1    3    3  502    0 -0.25575454527E+02  0.17850038807E+02  0.19726013095E+02  0.37139140436E+02  0.41800000000E+01 0.  1.
         -5    1    3    3    0  502  0.83297923759E+02 -0.94501799521E+02  0.63375306244E+02  0.14107812040E+03  0.41800000000E+01 0.  1.
        -11    1    1    2    0    0 -0.61663956021E+01  0.75591655939E+02 -0.10039975370E+02  0.76504405022E+02  0.00000000000E+00 0. -1.
         11    1    1    2    0    0 -0.51556073630E+02  0.10601047743E+01 -0.40783906817E+02  0.65745567193E+02  0.00000000000E+00 0.  1.
</event>
<event>
 7    1  0.2690635E-009  0.1075079E+03  0.7561462E-02  0.1265256E+00
         -3   -1    0    0    0  501 -0.00000000000E+00  0.00000000000E+00  0.13550492359E+03  0.13550492359E+03  0.00000000000E+00 0.  1.
          3   -1    0    0  501    0  0.00000000000E+00 -0.00000000000E+00 -0.11559337559E+03  0.11559337559E+03  0.00000000000E+00 0. -1.
         25    2    1    2    0    0 -0.81922808636E+00 -0.37233491940E+02 -0.39898924447E+02  0.13647415477E+03  0.12508503784E+03 0.  0.
          5    1    3    3  502    0  0.26571095384E+02 -0.70924634205E+02 -0.51072156543E+02  0.91444870938E+02  0.41800000000E+01 0. -1.
         -5    1    3    3    0  502 -0.27390323470E+02  0.33691142264E+02  0.11173232096E+02  0.45029283831E+02  0.41800000000E+01 0. -1.
        -11    1    1    2    0    0  0.38400174567E+02  0.42854472299E+02  0.47699907549E+02  0.74741958651E+02  0.00000000000E+00 0. -1.
         11    1    1    2    0    0 -0.37580946480E+02 -0.56209803584E+01  0.12110564898E+02  0.39882185756E+02  0.00000000000E+00 0.  1.
</event>
<event>
 7    1  0.2690635E-009  0.1526105E+03  0.7561462E-02  0.1197301E+00
          2   -1    0    0  501    0  0.00000000000E+00  0.00000000000E+00  0.56517962786E+03  0.56517962786E+03  0.00000000000E+00 0. -1.
         -2   -1    0    0    0  501 -0.00000000000E+00 -0.00000000000E+00 -0.61140849832E+02  0.61140849832E+02  0.00000000000E+00 0.  1.
         25    2    1    2    0    0  0.41790877045E+02 -0.12156707986E+03  0.13700283603E+03  0.22570556183E+03  0.12509273060E+03 0.  0.
          5    1    3    3  502    0  0.38699796038E+02 -0.14279220556E+03  0.88342036574E+02  0.17236320955E+03  0.41800000000E+01 0. -1.
         -5    1    3    3    0  502  0.30910810074E+01  0.21225125696E+02  0.48660799456E+02  0.53342352275E+02  0.41800000000E+01 0. -1.
        -11    1    1    2    0    0 -0.36092069401E+02  0.41102235415E+02  0.26478259711E+03  0.27037354709E+03  0.00000000000E+00 0. -1.
         11    1    1    2    0    0 -0.56988076445E+01  0.80464844447E+02  0.10225334488E+03  0.13024136878E+03  0.00000000000E+00 0.  1.
</event>
<event>
 7    1  0.2690635E-009  0.1306059E+03  0.7561462E-02  0.1226559E+00
          1   -1    0    0  501    0  0.00000000000E+00  0.00000000000E+00  0.10831058028E+03  0.10831058028E+03  0.00000000000E+00 0. -1.
         -1   -1    0    0    0  501 -0.00000000000E+00 -0.00000000000E+00 -0.16537787974E+03  0.16537787974E+03  0.00000000000E+00 0.  1.
         25    2    1    2    0    0 -0.30770887852E+02 -0.72907203590E+02 -0.29857631827E+02  0.15098763655E+03  0.12507389951E+03 0.  0.
          5    1    3    3  502    0 -0.27942484457E+02 -0.10673154311E+03 -0.86483655199E+01  0.11074597671E+03  0.41800000000E+01 0.  1.
         -5    1    3    3    0  502 -0.28284033948E+01  0.33824339518E+02 -0.21209266307E+02  0.40241659842E+02  0.41800000000E+01 0.  1.
        -11    1    1    2    0    0  0.46532258719E+02  0.84889492010E+02 -0.11620685157E+02  0.97501370651E+02  0.00000000000E+00 0.  1.
         11    1    1    2    0    0 -0.15761370867E+02 -0.11982288420E+02 -0.15588982474E+02  0.25199452811E+02  0.00000000000E+00 0. -1.
</event>
<event>
 7    1  0.2690635E-009  0.3594172E+03  0.7561462E-02  0.1058815E+00
         -1   -1    0    0    0  501 -0.00000000000E+00  0.00000000000E+00  0.14938986517E+03  0.14938986517E+03  0.00000000000E+00 0.  1.
          1   -1    0    0  501    0  0.00000000000E+00 -0.00000000000E+00 -0.95438680403E+03  0.95438680403E+03  0.00000000000E+00 0. -1.
         25    2    1    2    0    0  0.30711704064E+03 -0.15442968851E+03 -0.57140384727E+03  0.67846753371E+03  0.12508569977E+03 0.  0.
          5    1    3    3  502    0 -0.62676348235E+01 -0.25841628634E+02 -0.37587445290E+02  0.46231606723E+02  0.41800000000E+01 0.  1.
         -5    1    3    3    0  502  0.31338467546E+03 -0.12858805988E+03 -0.53381640198E+03  0.63223592699E+03  0.41800000000E+01 0.  1.
        -11    1    1    2    0    0 -0.15293831063E+03  0.31939817606E+02 -0.79692312846E+02  0.17538855018E+03  0.00000000000E+00 0.  1.
         11    1    1    2    0    0 -0.15417873001E+03  0.12248987090E+03 -0.15390077875E+03  0.24992058531E+03  0.00000000000E+00 0. -1.
</event>
<event>
 7    1  0.2690635E-009  0.6255117E+02  0.7561462E-02  0.1387427E+00
         -1   -1    0    0    0  501 -0.00000000000E+00  0.00000000000E+00  0.18708150943E+02  0.18708150943E+02  0.00000000000E+00 0.  1.
          1   -1    0    0  501    0  0.00000000000E+00 -0.00000000000E+00 -0.72233374328E+03  0.72233374328E+03  0.00000000000E+00 0. -1.
         25    2    1    2    0    0 -0.31158015856E+02  0.30763473750E+01 -0.31514652194E+03  0.34051263691E+03  0.12510491493E+03 0.  0.
          5    1    3    3  502    0 -0.18925561211E+02  0.44794725767E+01 -0.32410985451E+03  0.32471974491E+03  0.41800000000E+01 0. -1.
         -5    1    3    3    0  502 -0.12232454645E+02 -0.14031252017E+01  0.89633325735E+01  0.15792892002E+02  0.41800000000E+01 0. -1.
        -11    1    1    2    0    0  0.27600292542E+02 -0.43559630203E+02 -0.15010698955E+03  0.15871775529E+03  0.00000000000E+00 0.  1.
         11    1    1    2    0    0  0.35577233140E+01  0.40483282828E+02 -0.23837208085E+03  0.24181150203E+03  0.00000000000E+00 0. -1.
</event>
<event>
 7    1  0.2690635E-009  0.1054959E+03  0.7561462E-02  0.1269146E+00
         -2   -1    0    0    0  501 -0.00000000000E+00  0.00000000000E+00  0.91698288618E+02  0.91698288618E+02  0.00000000000E+00 0.  1.
          2   -1    0    0  501    0  0.00000000000E+00 -0.00000000000E+00 -0.15429194034E+03  0.15429194034E+03  0.00000000000E+00 0. -1.
         25    2    1    2    0    0  0.27370159143E+02  0.17384829394E+02 -0.70923509794E+02  0.14740651157E+03  0.12508867857E+03 0.  0.
          5    1    3    3  502    0  0.38518705108E+01  0.66700420523E+02 -0.13992146472E+02  0.68388855578E+02  0.41800000000E+01 0.  1.
         -5    1    3    3    0  502  0.23518288632E+02 -0.49315591129E+02 -0.56931363322E+02  0.79017655990E+02  0.41800000000E+01 0.  1.
        -11    1    1    2    0    0 -0.57090062698E+02 -0.16865572325E+02 -0.14303135267E+02  0.61223381703E+02  0.00000000000E+00 0.  1.
         11    1    1    2    0    0  0.29719903555E+02 -0.51925706870E+00  0.22632993339E+02  0.37360335688E+02  0.00000000000E+00 0. -1.
</event>
<event>
 7    1  0.2690635E-009  0.2013652E+03  0.7561462E-02  0.1148592E+00
          1   -1    0    0  501    0  0.00000000000E+00  0.00000000000E+00  0.91826418269E+02  0.91826418269E+02  0.00000000000E+00 0. -1.
         -1   -1    0    0    0  501 -0.00000000000E+00 -0.00000000000E+00 -0.93924887813E+03  0.93924887813E+03  0.00000000000E+00 0.  1.
         25    2    1    2    0    0 -0.17547868860E+03  0.39544413339E+02 -0.79215533588E+03  0.82189584640E+03  0.12508467283E+03 0.  0.
          5    1    3    3  502    0 -0.10534645327E+03 -0.25275187726E+02 -0.56727191412E+03  0.57753926903E+03  0.41800000000E+01 0. -1.
         -5    1    3    3    0  502 -0.70132235332E+02  0.64819601066E+02 -0.22488342176E+03  0.24435657736E+03  0.41800000000E+01 0. -1.
        -11    1    1    2    0    0 -0.76914302822E+00  0.14387584910E+02  0.50167162672E+01  0.15256527215E+02  0.00000000000E+00 0. -1.
         11    1    1    2    0    0  0.17624783163E+03 -0.53931998250E+02 -0.60283840246E+02  0.19392292279E+03  0.00000000000E+00 0.  1.
</event>
<event>
 7    1  0.2690635E-009  0.2015589E+03  0.7561462E-02  0.1148430E+00
         -4   -1    0    0    0  501 -0.00000000000E+00  0.00000000000E+00  0.43247448779E+03  0.43247448779E+03  0.00000000000E+00 0.  1.
          4   -1    0    0  501    0  0.00000000000E+00 -0.00000000000E+00 -0.11695193328E+03  0.11695193328E+03  0.00000000000E+00 0. -1.
         25    2    1    2    0    0  0.10579438935E+03 -0.14541075664E+03  0.66030568665E+02  0.22877965719E+03  0.12507339676E+03 0.  0.
          5    1    3    3  502    0  0.61416175230E+02 -0.11418515845E+02 -0.17117900211E+02  0.64906270819E+02  0.41800000000E+01 0.  1.
         -5    1    3    3    0  502  0.44378214120E+02 -0.13399224080E+03  0.83148468876E+02  0.16387338637E+03  0.41800000000E+01 0.  1.
        -11    1    1    2    0    0 -0.55832383061E+02  0.12372109949E+02  0.51676064689E+02  0.77076194539E+02  0.00000000000E+00 0.  1.
         11    1    1    2    0    0 -0.49962006289E+02  0.13303864669E+03  0.19781592116E+03  0.24357056935E+03  0.00000000000E+00 0. -1.
</event>
<event>
 7    1  0.2690635E-009  0.9855732E+02  0.7561462E-02  0.1283359E+00
         -2   -1    0    0    0  501 -0.00000000000E+00  0.00000000000E+00  0.38808552463E+02  0.38808552463E+02  0.00000000000E+00 0.  1.
          2   -1    0    0  501    0  0.00000000000E+00 -0.00000000000E+00 -0.34907864163E+03  0.34907864163E+03  0.00000000000E+00 0. -1.
         25    2    1    2    0    0 -0.27202314585E+02 -0.32418061980E+02 -0.18304908876E+03  0.22571129254E+03  0.12509085506E+03 0.  0.
          5    1    3    3  502    0 -0.28750113159E+02  0.45510193017E+02 -0.73708262694E+02  0.91368085591E+02  0.41800000000E+01 0.  1.
         -5    1    3    3    0  502  0.15477985737E+01 -0.77928254998E+02 -0.10934082607E+03  0.13434320694E+03  0.41800000000E+01 0.  1.
        -11    1    1    2    0    0  0.23508827434E+02  0.45639615314E+02 -0.13634670511E+03  0.14569167254E+03  0.00000000000E+00 0. -1.
         11    1    1    2    0    0  0.36934871510E+01 -0.13221553334E+02  0.91257047040E+01  0.16484229016E+02  0.00000000000E+00 0.  1.
</event>
<event>
 7    1  0.2690635E-009  0.1151246E+03  0.7561462E-02  0.1251364E+00
         -2   -1    0    0    0  501 -0.00000000000E+00  0.00000000000E+00  0.23669858249E+03  0.23669858249E+03  0.00000000000E+00 0.  1.
          2   -1    0    0  501    0  0.00000000000E+00 -0.00000000000E+00 -0.93024180093E+02  0.93024180093E+02  0.00000000000E+00 0. -1.
         25    2    1    2    0    0 -0.15883368515E+02 -0.98086254965E+02  0.85286945059E+02  0.18109400217E+03  0.12509188549E+03 0.  0.
          5    1    3    3  502    0 -0.27030371761E+02 -0.47157289864E+02 -0.24284677322E+02  0.59679719650E+02  0.41800000000E+01 0. -1.
         -5    1    3    3    0  502  0.11147003246E+02 -0.50928965101E+02  0.10957162238E+03  0.12141428252E+03  0.41800000000E+01 0. -1.
        -11    1    1    2    0    0 -0.29049503981E+02  0.48342088318E+02  0.58962761309E+02  0.81593127196E+02  0.00000000000E+00 0.  1.
         11    1    1    2    0    0  0.44932872497E+02  0.49744166647E+02 -0.57530397394E+00  0.67035633218E+02  0.00000000000E+00 0. -1.
</event>
<event>
 7    1  0.2690635E-009  0.1052556E+03  0.7561462E-02  0.1269617E+00
          1   -1    0    0  501    0  0.00000000000E+00  0.00000000000E+00  0.49330383793E+03  0.49330383793E+03  0.00000000000E+00 0. -1.
         -1   -1    0    0    0  501 -0.00000000000E+00 -0.00000000000E+00 -0.26567690006E+02  0.26567690006E+02  0.00000000000E+00 0.  1.
         25    2    1    2    0    0 -0.27424218611E+02  0.19043657250E+02  0.23541065769E+03  0.26867225755E+03  0.12510737619E+03 0.  0.
          5    1    3    3  502    0  0.45947093458E+02 -0.13287408683E+02  0.71066661196E+02  0.85764989129E+02  0.41800000000E+01 0.  1.
         -5    1    3    3    0  502 -0.73371312069E+02  0.32331065933E+02  0.16434399649E+03  0.18290726842E+03  0.41800000000E+01 0.  1.
        -11    1    1    2    0    0 -0.25645938786E+02 -0.13132977956E+02  0.15734070874E+03  0.15995714399E+03  0.00000000000E+00 0. -1.
         11    1    1    2    0    0  0.53070157397E+02 -0.59106792938E+01  0.73984781493E+02  0.91242126392E+02  0.00000000000E+00 0.  1.
</event>
<event>
 7    1  0.2690635E-009  0.6387338E+02  0.7561462E-02  0.1382260E+00
          2   -1    0    0  501    0  0.00000000000E+00  0.00000000000E+00  0.31043508654E+03  0.31043508654E+03  0.00000000000E+00 0. -1.
         -2   -1    0    0    0  501 -0.00000000000E+00 -0.00000000000E+00 -0.42614942834E+02  0.42614942834E+02  0.00000000000E+00 0.  1.
         25    2    1    2    0    0 -0.15055284007E+02 -0.17535647308E+02  0.10557215505E+03  0.16530816563E+03  0.12508856543E+03 0.  0.
          5    1    3    3  502    0 -0.28552528004E+02 -0.13183502590E+02 -0.20889326693E+02  0.37985365150E+02  0.41800000000E+01 0. -1.
         -5    1    3    3    0  502  0.13497243996E+02 -0.43521447184E+01  0.12646148174E+03  0.12732280048E+03  0.41800000000E+01 0. -1.
        -11    1    1    2    0    0  0.20867973808E+01 -0.30963206014E+02  0.20062290759E+02  0.36953624457E+02  0.00000000000E+00 0.  1.
         11    1    1    2    0    0  0.12968486626E+02  0.48498853323E+02  0.14218569789E+03  0.15078823928E+03  0.00000000000E+00 0. -1.
</event>
<event>
 7    1  0.2690635E-009  0.1381720E+03  0.7561462E-02  0.1215810E+00
          2   -1    0    0  501    0  0.00000000000E+00  0.00000000000E+00  0.19711297929E+03  0.19711297929E+03  0.00000000000E+00 0. -1.
         -2   -1    0    0    0  501 -0.00000000000E+00 -0.00000000000E+00 -0.10873897633E+03  0.10873897633E+03  0.00000000000E+00 0.  1.
         25    2    1    2    0    0  0.52575416607E+01  0.97096067050E+02  0.46306925537E+02  0.16506713057E+03  0.12509012056E+03 0.  0.
          5    1    3    3  502    0  0.46872151731E+02  0.95760704548E+02  0.58444469322E+01  0.10685850974E+03  0.41800000000E+01 0. -1.
         -5    1    3    3    0  502 -0.41614610070E+02  0.13353625026E+01  0.40462478605E+02  0.58208620832E+02  0.41800000000E+01 0. -1.
        -11    1    1    2    0    0  0.29323009767E+02 -0.86950821670E+02  0.49091561877E+02  0.10406856268E+03  0.00000000000E+00 0. -1.
         11    1    1    2    0    0 -0.34580551428E+02 -0.10145245380E+02 -0.70244844576E+01  0.36716262375E+02  0.00000000000E+00 0.  1.
</event>
<event>
 7    1  0.2690635E-009  0.8545588E+02  0.7561462E-02  0.1314245E+00
          2   -1    0    0  501    0  0.00000000000E+00  0.00000000000E+00  0.85979757196E+03  0.85979757196E+03  0.00000000000E+00 0. -1.
         -2   -1    0    0    0  501 -0.00000000000E+00 -0.00000000000E+00 -0.17655959118E+02  0.17655959118E+02  0.00000000000E+00 0.  1.
         25    2    1    2    0    0  0.27225175001E+02 -0.26429597316E+02  0.63665149428E+03  0.64993452181E+03  0.12510005479E+03 0.  0.
          5    1    3    3  502    0 -0.40700694797E+02 -0.14920614132E+02  0.42697178992E+03  0.42918708400E+03  0.41800000000E+01 0.  1.
         -5    1    3    3    0  502  0.67925869798E+02 -0.11508983184E+02  0.20967970436E+03  0.22074743782E+03  0.41800000000E+01 0.  1.
        -11    1    1    2    0    0  0.40933215191E+01 -0.96988854222E+01 -0.50088227079E+01  0.11658128684E+02  0.00000000000E+00 0.  1.
         11    1    1    2    0    0 -0.31318496520E+02  0.36128482738E+02  0.21049894128E+03  0.21586088059E+03  0.00000000000E+00 0. -1.
</event>
<event>
 7    1  0.2690635E-009  0.1815242E+03  0.7561462E-02  0.1166336E+00
         -1   -1    0    0    0  501 -0.00000000000E+00  0.00000000000E+00  0.13024744249E+03  0.13024744249E+03  0.00000000000E+00 0.  1.
          1   -1    0    0  501    0  0.00000000000E+00 -0.00000000000E+00 -0.35708614491E+03  0.35708614491E+03  0.00000000000E+00 0. -1.
         25    2    1    2    0    0  0.87373871377E+02 -0.13401922913E+03 -0.22410946930E+03  0.30244061002E+03  0.12509964500E+03 0.  0.
          5    1    3    3  502    0  0.83278505888E+02 -0.25122648364E+02 -0.13933982930E+03  0.16431529884E+03  0.41800000000E+01 0. -1.
         -5    1    3    3    0  502  0.40953654891E+01 -0.10889658076E+03 -0.84769640004E+02  0.13812531117E+03  0.41800000000E+01 0. -1.
        -11    1    1    2    0    0 -0.88209348030E+02  0.10188726395E+03 -0.35113165425E+02  0.13926535111E+03  0.00000000000E+00 0. -1.
         11    1    1    2    0    0  0.83547665304E+00  0.32131965180E+02  0.32383932309E+02  0.45627626273E+02  0.00000000000E+00 0.  1.
</event>
<event>
 7    1  0.2690635E-009  0.9597367E+02  0.7561462E-02  0.1288998E+00
          2   -1    0    0  501    0  0.00000000000E+00  0.00000000000E+00  0.36598711738E+03  0.36598711738E+03  0.00000000000E+00 0. -1.
         -2   -1    0    0    0  501 -0.00000000000E+00 -0.00000000000E+00 -0.34866994725E+02  0.34866994725E+02  0.00000000000E+00 0.  1.
         25    2    1    2    0    0 -0.15510542160E+02 -0.26326421045E+02  0.20871830701E+03  0.24524183320E+03  0.12508624109E+03 0.  0.
          5    1    3    3  502    0 -0.51703373709E+02  0.89166555055E+01  0.32455556138E+02  0.61835112376E+02  0.41800000000E+01 0. -1.
         -5    1    3    3    0  502  0.36192831549E+02 -0.35243076550E+02  0.17626275087E+03  0.18340672083E+03  0.41800000000E+01 0. -1.
        -11    1    1    2    0    0  0.53022923013E+01  0.56511679546E+02  0.10486469680E+03  0.11924046655E+03  0.00000000000E+00 0. -1.
         11    1    1    2    0    0  0.10208249859E+02 -0.30185258501E+02  0.17537118842E+02  0.36371812345E+02  0.00000000000E+00 0.  1.
</event>
<event>
 7    1  0.2690635E-009  0.1050895E+03  0.7561462E-02  0.1269943E+00
         -1   -1    0    0    0  501 -0.00000000000E+00  0.00000000000E+00  0.64851999039E+02  0.64851999039E+02  0.00000000000E+00 0.  1.
          1   -1    0    0  501    0  0.00000000000E+00 -0.00000000000E+00 -0.22613065399E+03  0.22613065399E+03  0.00000000000E+00 0. -1.
         25    2    1    2    0    0  0.73564076652E+01  0.19579771962E+02 -0.15422022994E+03  0.19967035440E+03  0.12508751697E+03 0.  0.
          5    1    3    3  502    0 -0.50078039124E+02  0.40856555989E+02 -0.89377431368E+02  0.11037602008E+03  0.41800000000E+01 0.  1.
         -5    1    3    3    0  502  0.57434446789E+02 -0.21276784027E+02 -0.64842798570E+02  0.89294334327E+02  0.41800000000E+01 0.  1.
        -11    1    1    2    0    0 -0.41842268277E+02  0.43197619856E+01 -0.21109379930E+02  0.47064229295E+02  0.00000000000E+00 0. -1.
         11    1    1    2    0    0  0.34485860612E+02 -0.23899533947E+02  0.14050954921E+02  0.44248069328E+02  0.00000000000E+00 0.  1.
</event>
<event>
 7    1  0.2690635E-009  0.7026406E+02  0.7561462E-02  0.1359197E+00
         -2   -1    0    0    0  501 -0.00000000000E+00  0.00000000000E+00  0.63008068841E+02  0.63008068841E+02  0.00000000000E+00 0.  1.
          2   -1    0    0  501    0  0.00000000000E+00 -0.00000000000E+00 -0.21562875334E+03  0.21562875334E+03  0.00000000000E+00 0. -1.
         25    2    1    2    0    0  0.12378392361E+02 -0.32273160418E+02 -0.56290874427E+02  0.14146064122E+03  0.12509064310E+03 0.  0.
          5    1    3    3  502    0 -0.46743324122E+01  0.12114788196E+01  0.38699201039E+02  0.39222667241E+02  0.41800000000E+01 0. -1.
         -5    1    3    3    0  502  0.17052724773E+02 -0.33484639237E+02 -0.94990075466E+02  0.10223797398E+03  0.41800000000E+01 0. -1.
        -11    1    1    2    0    0  0.11869846636E+02 -0.28515009802E+02 -0.41900669985E+02  0.52054444463E+02  0.00000000000E+00 0.  1.
         11    1    1    2    0    0 -0.24248238996E+02  0.60788170220E+02 -0.54429140084E+02  0.85121736492E+02  0.00000000000E+00 0. -1.
</event>
<event>
 7    1  0.2690635E-009  0.2053911E+03  0.7561462E-02  0.1145269E+00
         -2   -1    0    0    0  501 -0.00000000000E+00  0.00000000000E+00  0.47505765821E+02  0.47505765821E+02  0.00000000000E+00 0.  1.
          2   -1    0    0  501    0  0.00000000000E+00 -0.00000000000E+00 -0.99690565245E+03  0.99690565245E+03  0.00000000000E+00 0. -1.
         25    2    1    2    0    0  0.13334818788E+03  0.12620514503E+03 -0.59465232872E+03  0.63479574844E+03  0.12507906437E+03 0.  0.
          5    1    3    3  502    0  0.13485990625E+03  0.63510114144E+02 -0.31996861888E+03  0.35301291532E+03  0.41800000000E+01 0. -1.
         -5    1    3    3    0  502 -0.15117183791E+01  0.62695030889E+02 -0.27468370984E+03  0.28178283312E+03  0.41800000000E+01 0. -1.
        -11    1    1    2    0    0 -0.48457801176E+02 -0.98044218165E+02 -0.24304883153E+03  0.26652122189E+03  0.00000000000E+00 0. -1.
         11    1    1    2    0    0 -0.84890386700E+02 -0.28160926868E+02 -0.11169872638E+03  0.14309444794E+03  0.00000000000E+00 0.  1.
</event>
<event>
 7    1  0.2690635E-009  0.1027195E+03  0.7561462E-02  0.1274679E+00
          2   -1    0    0  501    0  0.00000000000E+00  0.00000000000E+00  0.20415356341E+03  0.20415356341E+03  0.00000000000E+00 0. -1.
         -2   -1    0    0    0  501 -0.00000000000E+00 -0.00000000000E+00 -0.90987598420E+02  0.90987598420E+02  0.00000000000E+00 0.  1.
         25    2    1    2    0    0  0.12093443743E+02 -0.49446015207E+02 -0.67599646553E+01  0.13521816569E+03  0.12508835041E+03 0.  0.
          5    1    3    3  502    0  0.60443230582E+02 -0.50922238597E+02 -0.25534400282E+02  0.83162109790E+02  0.41800000000E+01 0.  1.
         -5    1    3    3    0  502 -0.48349786839E+02  0.14762233902E+01  0.18774435627E+02  0.52056055901E+02  0.41800000000E+01 0.  1.
        -11    1    1    2    0    0 -0.26766679727E+02  0.63672707683E+00  0.10268582243E+03  0.10611898366E+03  0.00000000000E+00 0. -1.
         11    1    1    2    0    0  0.14673235984E+02  0.48809288130E+02  0.17240107216E+02  0.53804012479E+02  0.00000000000E+00 0.  1.
</event>
<event>
 7    1  0.2690635E-009  0.2617878E+03  0.7561462E-02  0.1106074E+00
         -2   -1    0    0    0  501 -0.00000000000E+00  0.00000000000E+00  0.14318446720E+03  0.14318446720E+03  0.00000000000E+00 0.  1.
          2   -1    0    0  501    0  0.00000000000E+00 -0.00000000000E+00 -0.51349943036E+03  0.51349943036E+03  0.00000000000E+00 0. -1.
         25    2    1    2    0    0 -0.24673498503E+03  0.39616771914E+01 -0.21901240721E+03  0.35285709808E+03  0.12509136433E+03 0.  0.
          5    1    3    3  502    0 -0.12110534826E+03 -0.56147514887E+02 -0.78205887256E+02  0.15476654033E+03  0.41800000000E+01 0. -1.
         -5    1    3    3    0  502 -0.12562963676E+03  0.60109192078E+02 -0.14080651995E+03  0.19809055774E+03  0.41800000000E+01 0. -1.
        -11    1    1    2    0    0  0.17301669226E+03  0.17531200802E+02 -0.58729796073E+02  0.18355192113E+03  0.00000000000E+00 0.  1.
         11    1    1    2    0    0  0.73718292762E+02 -0.21492877993E+02 -0.92572759874E+02  0.12027487835E+03  0.00000000000E+00 0. -1.
</event>
<event>
 7    1  0.2690635E-009  0.1094659E+03  0.7561462E-02  0.1261562E+00
          1   -1    0    0  501    0  0.00000000000E+00  0.00000000000E+00  0.17488100729E+02  0.17488100729E+02  0.00000000000E+00 0. -1.
         -1   -1    0    0    0  501 -0.00000000000E+00 -0.00000000000E+00 -0.11218037203E+04  0.11218037203E+04  0.00000000000E+00 0.  1.
         25    2    1    2    0    0  0.26721816837E+02 -0.23860872703E+02 -0.94543589637E+03  0.95434893596E+03  0.12509780448E+03 0.  0.
          5    1    3    3  502    0  0.23657762126E+02  0.48176302620E+02 -0.29080011638E+03  0.29574114683E+03  0.41800000000E+01 0. -1.
         -5    1    3    3    0  502  0.30640547107E+01 -0.72037175322E+02 -0.65463577999E+03  0.65860778913E+03  0.41800000000E+01 0. -1.
        -11    1    1    2    0    0 -0.50505397937E+02 -0.10009337884E+02 -0.69966665394E+02  0.86869536271E+02  0.00000000000E+00 0. -1.
         11    1    1    2    0    0  0.23783581100E+02  0.33870210587E+02 -0.88913057799E+02  0.98073348787E+02  0.00000000000E+00 0.  1.
</event>
<event>
 7    1  0.2690635E-009  0.1412446E+03  0.7561462E-02  0.1211664E+00
         -1   -1    0    0    0  501 -0.00000000000E+00  0.00000000000E+00  0.34032738460E+03  0.34032738460E+03  0.00000000000E+00 0.  1.
          1   -1    0    0  501    0  0.00000000000E+00 -0.00000000000E+00 -0.92888302041E+02  0.92888302041E+02  0.00000000000E+00 0. -1.
         25    2    1    2    0    0  0.13123408733E+03 -0.62940030642E+01  0.69936616642E+02  0.19442415921E+03  0.12509046001E+03 0.  0.
          5    1    3    3  502    0  0.60178185054E+02  0.19413200169E+02 -0.29141619312E+02  0.69749499449E+02  0.41800000000E+01 0.  1.
         -5    1    3    3    0  502  0.71055902271E+02 -0.25707203234E+02  0.99078235954E+02  0.12467465976E+03  0.41800000000E+01 0.  1.
        -11    1    1    2    0    0 -0.10659988792E+03 -0.18834707710E+02  0.78491434381E+02  0.13371307935E+03  0.00000000000E+00 0. -1.
         11    1    1    2    0    0 -0.24634199405E+02  0.25128710774E+02  0.99011031541E+02  0.10507844809E+03  0.00000000000E+00 0.  1.
</event>
<event>
 7    1  0.2690635E-009  0.1428614E+03  0.7561462E-02  0.1209530E+00
         -2   -1    0    0    0  501 -0.00000000000E+00  0.00000000000E+00  0.17709040804E+02  0.17709040804E+02  0.00000000000E+00 0.  1.
          2   -1    0    0  501    0  0.00000000000E+00 -0.00000000000E+00 -0.14186880458E+04  0.14186880458E+04  0.00000000000E+00 0. -1.
         25    2    1    2    0    0 -0.34126461309E+02  0.10396642759E+03 -0.92807218918E+03  0.94283523429E+03  0.12508659911E+03 0.  0.
          5    1    3    3  502    0  0.36471859135E+02  0.38239523463E+02 -0.55304047967E+03  0.55557510943E+03  0.41800000000E+01 0. -1.
         -5    1    3    3    0  502 -0.70598320444E+02  0.65726904127E+02 -0.37503170951E+03  0.38726012487E+03  0.41800000000E+01 0. -1.
        -11    1    1    2    0    0  0.60859797514E+02 -0.66577554673E+02 -0.24526591786E+03  0.26132710576E+03  0.00000000000E+00 0.  1.
         11    1    1    2    0    0 -0.26733336204E+02 -0.37388872917E+02 -0.22764089800E+03  0.23223474659E+03  0.00000000000E+00 0. -1.
</event>
<event>
 7    1  0.2690635E-009  0.9955680E+02  0.7561462E-02  0.1281231E+00
          2   -1    0    0  501    0  0.00000000000E+00  0.00000000000E+00  0.15207428523E+03  0.15207428523E+03  0.00000000000E+00 0. -1.
         -2   -1    0    0    0  501 -0.00000000000E+00 -0.00000000000E+00 -0.91534014419E+02  0.91534014419E+02  0.00000000000E+00 0.  1.
         25    2    1    2    0    0  0.33821844778E+02 -0.93456366390E+01  0.20069645631E+02  0.13145942819E+03  0.12509009743E+03 0.  0.
          5    1    3    3  502    0  0.48032584808E+01 -0.52862277677E+02 -0.28122777907E+02  0.60215070625E+02  0.41800000000E+01 0.  1.
         -5    1    3    3    0  502  0.29018586297E+02  0.43516641038E+02  0.48192423538E+02  0.71244357561E+02  0.41800000000E+01 0.  1.
        -11    1    1    2    0    0 -0.49839721876E+02 -0.24809473391E+02  0.48201506391E+02  0.73640295118E+02  0.00000000000E+00 0. -1.
         11    1    1    2    0    0  0.16017877098E+02  0.34155110030E+02 -0.77308812115E+01  0.38508576346E+02  0.00000000000E+00 0.  1.
</event>
<event>
 7    1  0.2690635E-009  0.1248649E+03  0.7561462E-02  0.1235280E+00
          2   -1    0    0  501    0  0.00000000000E+00  0.00000000000E+00  0.13056076293E+04  0.13056076293E+04  0.00000000000E+00 0. -1.
         -2   -1    0    0    0  501 -0.00000000000E+00 -0.00000000000E+00 -0.19587944639E+02  0.19587944639E+02  0.00000000000E+00 0.  1.
         25    2    1    2    0    0 -0.83682514478E+02 -0.69951979900E+02  0.85706386627E+03  0.87298361465E+03  0.12508348359E+03 0.  0.
          5    1    3    3  502    0 -0.76785583183E+02 -0.56323269141E+02  0.85052666535E+03  0.85585128223E+03  0.41800000000E+01 0.  1.
         -5    1    3    3    0  502 -0.68969312949E+01 -0.13628710760E+02  0.65372009201E+01  0.17132332420E+02  0.41800000000E+01 0.  1.
        -11    1    1    2    0    0  0.64645283708E+02 -0.14666611170E+01  0.25766658565E+03  0.26565623117E+03  0.00000000000E+00 0.  1.
         11    1    1    2    0    0  0.19037230770E+02  0.71418641017E+02  0.17128923280E+03  0.18655572817E+03  0.00000000000E+00 0. -1.
</event>
<event>
 7    1  0.2690635E-009  0.1242029E+03  0.7561462E-02  0.1236320E+00
         -2   -1    0    0    0  501 -0.00000000000E+00  0.00000000000E+00  0.32714152850E+02  0.32714152850E+02  0.00000000000E+00 0.  1.
          2   -1    0    0  501    0  0.00000000000E+00 -0.00000000000E+00 -0.53508454530E+03  0.53508454530E+03  0.00000000000E+00 0. -1.
         25    2    1    2    0    0  0.70069327295E+02  0.27139459719E+02 -0.29903148420E+03  0.33273613702E+03  0.12508895809E+03 0.  0.
          5    1    3    3  502    0 -0.38116620222E+01 -0.41390426279E+02 -0.58221997083E+02  0.71658701490E+02  0.41800000000E+01 0. -1.
         -5    1    3    3    0  502  0.73880989317E+02  0.68529885998E+02 -0.24080948711E+03  0.26107743553E+03  0.41800000000E+01 0. -1.
        -11    1    1    2    0    0  0.10458981593E+02 -0.22850798832E+02 -0.12889523744E+02  0.28243390830E+02  0.00000000000E+00 0.  1.
         11    1    1    2    0    0 -0.80528308888E+02 -0.42886608870E+01 -0.19044938451E+03  0.20681917030E+03  0.00000000000E+00 0. -1.
</event>
<event>
 7    1  0.2690635E-009  0.7902611E+02  0.7561462E-02  0.1331838E+00
         -2   -1    0    0    0  501 -0.00000000000E+00  0.00000000000E+00  0.95598990272E+02  0.95598990272E+02  0.00000000000E+00 0.  1.
          2   -1    0    0  501    0  0.00000000000E+00 -0.00000000000E+00 -0.15690434126E+03  0.15690434126E+03  0.00000000000E+00 0. -1.
         25    2    1    2    0    0 -0.30060635299E-01 -0.99369042156E+01  0.23675574620E+02  0.12770991587E+03  0.12510214550E+03 0.  0.
          5    1    3    3  502    0 -0.38319085541E+02  0.34286916875E+02 -0.19218082249E+02  0.55052266718E+02  0.41800000000E+01 0.  1.
         -5    1    3    3    0  502  0.38289024906E+02 -0.44223821090E+02  0.42893656869E+02  0.72657649148E+02  0.41800000000E+01 0.  1.
        -11    1    1    2    0    0 -0.67031667471E+01  0.27868833106E+02  0.80807905114E+01  0.29780924741E+02  0.00000000000E+00 0.  1.
         11    1    1    2    0    0  0.67332273824E+01 -0.17931928891E+02 -0.93061716122E+02  0.95012490928E+02  0.00000000000E+00 0. -1.
</event>
<event>
 7    1  0.2690635E-009  0.2311319E+03  0.7561462E-02  0.1125846E+00
         -2   -1    0    0    0  501 -0.00000000000E+00  0.00000000000E+00  0.21616423159E+03  0.21616423159E+03  0.00000000000E+00 0.  1.
          2   -1    0    0  501    0  0.00000000000E+00 -0.00000000000E+00 -0.28021789934E+03  0.28021789934E+03  0.00000000000E+00 0. -1.
         25    2    1    2    0    0  0.21332275242E+03  0.45514400115E+02  0.19500440362E+01  0.25145400832E+03  0.12508860184E+03 0.  0.
          5    1    3    3  502    0  0.63014939313E+02 -0.19748511469E+02  0.47348993836E+02  0.81365139336E+02  0.41800000000E+01 0.  1.
         -5    1    3    3    0  502  0.15030781311E+03  0.65262911584E+02 -0.45398949800E+02  0.17008886898E+03  0.41800000000E+01 0.  1.
        -11    1    1    2    0    0 -0.19098291993E+03 -0.11303002270E+02 -0.70342784132E+02  0.20383900717E+03  0.00000000000E+00 0.  1.
         11    1    1    2    0    0 -0.22339832489E+02 -0.34211397845E+02  0.43390723468E+01  0.41089115432E+02  0.00000000000E+00 0. -1.
</event>
<event>
 7    1  0.2690635E-009  0.1016493E+03  0.7561462E-02  0.1276865E+00
         -2   -1    0    0    0  501 -0.00000000000E+00  0.00000000000E+00  0.80522003467E+01  0.80522003467E+01  0.00000000000E+00 0. -1.
          2   -1    0    0  501    0  0.00000000000E+00 -0.00000000000E+00 -0.15228666292E+04  0.15228666292E+04  0.00000000000E+00 0.  1.
         25    2    1    2    0    0 -0.72827368661E+01  0.16957256455E+01 -0.10104986949E+04  0.10182394275E+04  0.12509198883E+03 0.  0.
          5    1    3    3  502    0  0.78864712812E+01  0.54935457210E+02 -0.27078876879E+03  0.27644914648E+03  0.41800000000E+01 0. -1.
         -5    1    3    3    0  502 -0.15169208147E+02 -0.53239731564E+02 -0.73970992608E+03  0.74179028103E+03  0.41800000000E+01 0. -1.
        -11    1    1    2    0    0  0.49251867951E+02  0.54535611242E+01 -0.25929753025E+03  0.26398995629E+03  0.00000000000E+00 0. -1.
         11    1    1    2    0    0 -0.41969131085E+02 -0.71492867697E+01 -0.24501820375E+03  0.24868944577E+03  0.00000000000E+00 0.  1.
</event>
<event>
 7    1  0.2690635E-009  0.1169467E+03  0.7561462E-02  0.1248221E+00
         -1   -1    0    0    0  501 -0.00000000000E+00  0.00000000000E+00  0.38260171330E+03  0.38260171330E+03  0.00000000000E+00 0.  1.
          1   -1    0    0  501    0  0.00000000000E+00 -0.00000000000E+00 -0.42080041694E+02  0.42080041694E+02  0.00000000000E+00 0. -1.
         25    2    1    2    0    0  0.42167096575E+02 -0.49516776836E+02  0.20744574916E+03  0.25082228539E+03  0.12509238500E+03 0.  0.
          5    1    3    3  502    0  0.44850205610E+02  0.31024524496E+02  0.50960237950E+02  0.74756138981E+02  0.41800000000E+01 0.  1.
         -5    1    3    3    0  502 -0.26831090349E+01 -0.80541301332E+02  0.15648551121E+03  0.17606614641E+03  0.41800000000E+01 0.  1.
        -11    1    1    2    0    0 -0.49118178017E+02  0.62636300853E+00  0.10762367572E+03  0.11830402917E+03  0.00000000000E+00 0. -1.
         11    1    1    2    0    0  0.69510814413E+01  0.48890413828E+02  0.25452246720E+02  0.55555440423E+02  0.00000000000E+00 0.  1.
</event>
<event>
 7    1  0.2690635E-009  0.1290892E+03  0.7561462E-02  0.1228813E+00
         -2   -1    0    0    0  501 -0.00000000000E+00  0.00000000000E+00  0.63888648975E+02  0.63888648975E+02  0.00000000000E+00 0.  1.
          2   -1    0    0  501    0  0.00000000000E+00 -0.00000000000E+00 -0.33713700265E+03  0.33713700265E+03  0.00000000000E+00 0. -1.
         25    2    1    2    0    0  0.79717926085E+02  0.30116250331E+01 -0.22538623133E+03  0.26983426141E+03  0.12509019839E+03 0.  0.
          5    1    3    3  502    0  0.10726878175E+03  0.84317034065E+01 -0.12248109867E+03  0.16308518354E+03  0.41800000000E+01 0. -1.
         -5    1    3    3    0  502 -0.27550855663E+02 -0.54200783734E+01 -0.10290513267E+03  0.10674907787E+03  0.41800000000E+01 0. -1.
        -11    1    1    2    0    0 -0.96073991661E+02 -0.20422657816E+02 -0.37160001065E+02  0.10501505847E+03  0.00000000000E+00 0.  1.
         11    1    1    2    0    0  0.16356065576E+02  0.17411032783E+02 -0.10702121275E+02  0.26176331742E+02  0.00000000000E+00 0. -1.
</event>
<event>
 7    1  0.2690635E-009  0.9865928E+02  0.7561462E-02  0.1283141E+00
          1   -1    0    0  501    0  0.00000000000E+00  0.00000000000E+00  0.19027101476E+03  0.19027101476E+03  0.00000000000E+00 0. -1.
         -1   -1    0    0    0  501 -0.00000000000E+00 -0.00000000000E+00 -0.78674978564E+02  0.78674978564E+02  0.00000000000E+00 0.  1.
         25    2    1    2    0    0 -0.57456881461E+02  0.74611638107E+01  0.67762714420E+02  0.15360641115E+03  0.12508469886E+03 0.  0.
          5    1    3    3  502    0 -0.33498172703E+02  0.66178931646E+02  0.35868473955E+02  0.82497262937E+02  0.41800000000E+01 0.  1.
         -5    1    3    3    0  502 -0.23958708758E+02 -0.58717767836E+02  0.31894240466E+02  0.71109148215E+02  0.41800000000E+01 0.  1.
        -11    1    1    2    0    0  0.28353539299E+02  0.30751075981E+01  0.69503893541E+02  0.75127695925E+02  0.00000000000E+00 0. -1.
         11    1    1    2    0    0  0.29103342162E+02 -0.10536271409E+02 -0.25670571770E+02  0.40211886243E+02  0.00000000000E+00 0.  1.
</event>
<event>
 7    1  0.2690635E-009  0.1167205E+03  0.7561462E-02  0.1248607E+00
         -1   -1    0    0    0  501 -0.00000000000E+00  0.00000000000E+00  0.10585220659E+03  0.10585220659E+03  0.00000000000E+00 0.  1.
          1   -1    0    0  501    0  0.00000000000E+00 -0.00000000000E+00 -0.20461595553E+03  0.20461595553E+03  0.00000000000E+00 0. -1.
         25    2    1    2    0    0 -0.94030181456E+02  0.29493632833E+02 -0.42961670044E+02  0.16495144279E+03  0.12510685027E+03 0.  0.
          5    1    3    3  502    0 -0.28833876475E+02  0.17226641310E+02 -0.81406568891E+02  0.88162642099E+02  0.41800000000E+01 0.  1.
         -5    1    3    3    0  502 -0.65196304981E+02  0.12266991523E+02  0.38444898847E+02  0.76788800691E+02  0.41800000000E+01 0.  1.
        -11    1    1    2    0    0  0.10515537499E+03 -0.39143612163E+01 -0.51965960582E+02  0.11736028362E+03  0.00000000000E+00 0.  1.
         11    1    1    2    0    0 -0.11125193534E+02 -0.25579271617E+02 -0.38361183139E+01  0.28156435700E+02  0.00000000000E+00 0. -1.
</event>
<event>
 7    1  0.2690635E-009  0.2160998E+03  0.7561462E-02  0.1136825E+00
          1   -1    0    0  501    0  0.00000000000E+00  0.00000000000E+00  0.83893979720E+03  0.83893979720E+03  0.00000000000E+00 0. -1.
         -1   -1    0    0    0  501 -0.00000000000E+00 -0.00000000000E+00 -0.79199853991E+02  0.79199853991E+02  0.00000000000E+00 0.  1.
         25    2    1    2    0    0 -0.74920345154E+02 -0.19987556956E+03  0.22359265975E+03  0.33346883073E+03  0.12507790431E+03 0.  0.
          5    1    3    3  502    0 -0.35855843400E+02 -0.15133856649E+03  0.75885227175E+02  0.17310414009E+03  0.41800000000E+01 0. -1.
         -5    1    3    3    0  502 -0.39064501754E+02 -0.48537003072E+02  0.14770743258E+03  0.16036469064E+03  0.41800000000E+01 0. -1.
        -11    1    1    2    0    0  0.50243242193E+02  0.10932575572E+03  0.18107407138E+03  0.21740359605E+03  0.00000000000E+00 0.  1.
         11    1    1    2    0    0  0.24677102962E+02  0.90549813842E+02  0.35507321207E+03  0.36726722441E+03  0.00000000000E+00 0. -1.
</event>
<event>
 7    1  0.2690635E-009  0.1164879E+03  0.7561462E-02  0.1249006E+00
          1   -1    0    0  501    0  0.00000000000E+00  0.00000000000E+00  0.77635191117E+03  0.77635191117E+03  0.00000000000E+00 0. -1.
         -1   -1    0    0    0  501 -0.00000000000E+00 -0.00000000000E+00 -0.19850428297E+02  0.19850428297E+02  0.00000000000E+00 0.  1.
         25    2    1    2    0    0  0.51246396939E+01 -0.46233381817E+02  0.29670874041E+03  0.32534214651E+03  0.12509055974E+03 0.  0.
          5    1    3    3  502    0 -0.35352106792E+02  0.29108798936E+02  0.13064280769E+03  0.13849949181E+03  0.41800000000E+01 0. -1.
         -5    1    3    3    0  502  0.40476746486E+02 -0.75342180753E+02  0.16606593272E+03  0.18684265471E+03  0.41800000000E+01 0. -1.
        -11    1    1    2    0    0 -0.41823038286E+02 -0.64520072278E+00  0.20138600546E+03  0.20568399552E+03  0.00000000000E+00 0. -1.
         11    1    1    2    0    0  0.36698398593E+02  0.46878582539E+02  0.25840673700E+03  0.26517619744E+03  0.00000000000E+00 0.  1.
</event>
<event>
 7    1  0.2690635E-009  0.9669306E+02  0.7561462E-02  0.1287408E+00
         -1   -1    0    0    0  501 -0.00000000000E+00  0.00000000000E+00  0.61228510227E+03  0.61228510227E+03  0.00000000000E+00 0.  1.
          1   -1    0    0  501    0  0.00000000000E+00 -0.00000000000E+00 -0.19776166122E+02  0.19776166122E+02  0.00000000000E+00 0. -1.
         25    2    1    2    0    0  0.20527966900E+01 -0.75641988323E+01  0.30380318543E+03  0.32864152679E+03  0.12508975408E+03 0.  0.
          5    1    3    3  502    0 -0.48609461191E+02 -0.69055190483E+00  0.50596885251E+02  0.70291349228E+02  0.41800000000E+01 0.  1.
         -5    1    3    3    0  502  0.50662257881E+02 -0.68736469275E+01  0.25320630018E+03  0.25835017757E+03  0.41800000000E+01 0.  1.
        -11    1    1    2    0    0 -0.45302486402E+02  0.18094090788E+02  0.15568675672E+03  0.16315047537E+03  0.00000000000E+00 0.  1.
         11    1    1    2    0    0  0.43249689712E+02 -0.10529891956E+02  0.13301899399E+03  0.14026926623E+03  0.00000000000E+00 0. -1.
</event>
<event>
 7    1  0.2690635E-009  0.9612869E+02  0.7561462E-02  0.1288654E+00
          3   -1    0    0  501    0  0.00000000000E+00  0.00000000000E+00  0.85602203946E+02  0.85602203946E+02  0.00000000000E+00 0. -1.
         -3   -1    0    0    0  501 -0.00000000000E+00 -0.00000000000E+00 -0.16761696710E+03  0.16761696710E+03  0.00000000000E+00 0.  1.
         25    2    1    2    0    0  0.32743765659E+02  0.31431702489E+02 -0.24350207937E+02  0.13527801851E+03  0.12508838298E+03 0.  0.
          5    1    3    3  502    0  0.78398886471E+02  0.36870324604E+02 -0.12684454930E+02  0.87659420675E+02  0.41800000000E+01 0. -1.
         -5    1    3    3    0  502 -0.45655120812E+02 -0.54386221149E+01 -0.11665753007E+02  0.47618597838E+02  0.41800000000E+01 0. -1.
        -11    1    1    2    0    0 -0.15479029589E+02 -0.37882182142E+02 -0.79471576530E+02  0.89388990133E+02  0.00000000000E+00 0.  1.
         11    1    1    2    0    0 -0.17264736070E+02  0.64504796527E+01  0.21807021312E+02  0.28552162401E+02  0.00000000000E+00 0. -1.
</event>
<event>
 7    1  0.2750534E-009  0.9795978E+02  0.7561462E-02  0.1284646E+00
         -2   -1    0    0    0  501 -0.00000000000E+00  0.00000000000E+00  0.17552198874E+03  0.17552198874E+03  0.00000000000E+00 0. -1.
          2   -1    0    0  501    0  0.00000000000E+00 -0.00000000000E+00 -0.90486359209E+02  0.90486359209E+02  0.00000000000E+00 0.  1.
         25    2    1    2    0    0  0.52623712341E+02  0.27185561711E+02  0.21082855776E+02  0.14000612009E+03  0.12509563137E+03 0.  0.
          5    1    3    3  502    0 -0.24041321752E+02 -0.27487223146E+02  0.26935651819E+02  0.45569006209E+02  0.41800000000E+01 0. -1.
         -5    1    3    3    0  502  0.76665034094E+02  0.54672784858E+02 -0.58527960437E+01  0.94437113881E+02  0.41800000000E+01 0. -1.
        -11    1    1    2    0    0 -0.14726823831E+02 -0.22262478573E+02 -0.20268871034E+02  0.33516032363E+02  0.00000000000E+00 0.  1.
         11    1    1    2    0    0 -0.37896888511E+02 -0.49230831389E+01  0.84221644790E+02  0.92486195497E+02  0.00000000000E+00 0. -1.
</event>
<event>
 7    1  0.2690635E-009  0.8553876E+02  0.7561462E-02  0.1314030E+00
          2   -1    0    0  501    0  0.00000000000E+00  0.00000000000E+00  0.15526592728E+03  0.15526592728E+03  0.00000000000E+00 0. -1.
         -2   -1    0    0    0  501 -0.00000000000E+00 -0.00000000000E+00 -0.99145335808E+02  0.99145335808E+02  0.00000000000E+00 0.  1.
         25    2    1    2    0    0  0.59533096525E+01 -0.75266625850E+01 -0.16223518060E+02  0.12650477020E+03  0.12509261289E+03 0.  0.
          5    1    3    3  502    0 -0.18642994866E+02 -0.27610587088E+02  0.45747234324E+02  0.56746697042E+02  0.41800000000E+01 0. -1.
         -5    1    3    3    0  502  0.24596304519E+02  0.20083924503E+02 -0.61970752384E+02  0.69758073156E+02  0.41800000000E+01 0. -1.
        -11    1    1    2    0    0  0.31865211744E+02  0.43067877181E+02  0.35909824678E+02  0.64496118276E+02  0.00000000000E+00 0. -1.
         11    1    1    2    0    0 -0.37818521397E+02 -0.35541214596E+02  0.36434284853E+02  0.63410374611E+02  0.00000000000E+00 0.  1.
</event>
<event>
 7    1  0.2690635E-009  0.8865333E+02  0.7561462E-02  0.1306146E+00
         -1   -1    0    0    0  501 -0.00000000000E+00  0.00000000000E+00  0.67666411812E+02  0.67666411812E+02  0.00000000000E+00 0. -1.
          1   -1    0    0  501    0  0.00000000000E+00 -0.00000000000E+00 -0.22355199410E+03  0.22355199410E+03  0.00000000000E+00 0.  1.
         25    2    1    2    0    0  0.99865481969E+01  0.56356954700E+02 -0.75842562370E+02  0.15708451965E+03  0.12509042553E+03 0.  0.
          5    1    3    3  502    0 -0.24443350992E+02  0.17948241830E+02 -0.96593852245E+02  0.10132848308E+03  0.41800000000E+01 0. -1.
         -5    1    3    3    0  502  0.34429899189E+02  0.38408712870E+02  0.20751289875E+02  0.55756036569E+02  0.41800000000E+01 0. -1.
        -11    1    1    2    0    0 -0.45010857030E+01  0.18929953102E+02  0.53298822071E+01  0.20174502256E+02  0.00000000000E+00 0. -1.
         11    1    1    2    0    0 -0.54854624940E+01 -0.75286907801E+02 -0.85372902129E+02  0.11395938401E+03  0.00000000000E+00 0.  1.
</event>
<event>
 7    1  0.2690635E-009  0.1378039E+03  0.7561462E-02  0.1216315E+00
          2   -1    0    0  501    0  0.00000000000E+00  0.00000000000E+00  0.21910147214E+04  0.21910147214E+04  0.00000000000E+00 0. -1.
         -2   -1    0    0    0  501 -0.00000000000E+00 -0.00000000000E+00 -0.17762255907E+02  0.17762255907E+02  0.00000000000E+00 0.  1.
         25    2    1    2    0    0 -0.34893016065E+02 -0.11336358909E+03  0.17892802354E+04  0.17975650940E+04  0.12509068973E+03 0.  0.
          5    1    3    3  502    0 -0.63547256944E+02 -0.92176182665E+02  0.16478518875E+04  0.16516561440E+04  0.41800000000E+01 0. -1.
         -5    1    3    3    0  502  0.28654240879E+02 -0.21187406427E+02  0.14142834786E+03  0.14590895000E+03  0.41800000000E+01 0. -1.
        -11    1    1    2    0    0  0.26700519208E+02  0.18522607767E+02  0.28530362131E+02  0.43243338074E+02  0.00000000000E+00 0.  1.
         11    1    1    2    0    0  0.81924968565E+01  0.94840981325E+02  0.35544186800E+03  0.36796854522E+03  0.00000000000E+00 0. -1.
</event>
<event>
 7    1  0.2690635E-009  0.1047413E+03  0.7561462E-02  0.1270630E+00
          1   -1    0    0  501    0  0.00000000000E+00  0.00000000000E+00  0.43293795492E+02  0.43293795492E+02  0.00000000000E+00 0. -1.
         -1   -1    0    0    0  501 -0.00000000000E+00 -0.00000000000E+00 -0.56342206740E+03  0.56342206740E+03  0.00000000000E+00 0.  1.
         25    2    1    2    0    0 -0.13737770788E+02  0.61112387292E+02 -0.46623316815E+03  0.48676896312E+03  0.12508879303E+03 0.  0.
          5    1    3    3  502    0 -0.48925743817E+02 -0.12526656912E+02 -0.26080377001E+03  0.26568162223E+03  0.41800000000E+01 0.  1.
         -5    1    3    3    0  502  0.35187973029E+02  0.73639044204E+02 -0.20542939814E+03  0.22108734088E+03  0.41800000000E+01 0.  1.
        -11    1    1    2    0    0  0.20938626144E+02 -0.63919662324E+01 -0.60520495809E+02  0.64358478152E+02  0.00000000000E+00 0.  1.
         11    1    1    2    0    0 -0.72008553557E+01 -0.54720421059E+02  0.66253920535E+01  0.55588421624E+02  0.00000000000E+00 0. -1.
</event>
<event>
 7    1  0.2690635E-009  0.1425937E+03  0.7561462E-02  0.1209881E+00
         -2   -1    0    0    0  501 -0.00000000000E+00  0.00000000000E+00  0.52247936338E+02  0.52247936338E+02  0.00000000000E+00 0.  1.
          2   -1    0    0  501    0  0.00000000000E+00 -0.00000000000E+00 -0.53722773055E+03  0.53722773055E+03  0.00000000000E+00 0. -1.
         25    2    1    2    0    0 -0.10806627911E+03 -0.33409920690E+02 -0.15639462283E+03  0.23000229936E+03  0.12508891308E+03 0.  0.
          5    1    3    3  502    0 -0.85844408530E+02  0.18387358289E+02 -0.14901659316E+03  0.17300512957E+03  0.41800000000E+01 0. -1.
         -5    1    3    3    0  502 -0.22221870582E+02 -0.51797278979E+02 -0.73780296742E+01  0.56997169787E+02  0.41800000000E+01 0. -1.
        -11    1    1    2    0    0  0.20347593407E+02 -0.27337780200E+02 -0.44775740170E+02  0.56269402800E+02  0.00000000000E+00 0.  1.
         11    1    1    2    0    0  0.87718685705E+02  0.60747700890E+02 -0.28380943121E+03  0.30320396473E+03  0.00000000000E+00 0. -1.
</event>
<event>
 7    1  0.2690635E-009  0.1089037E+03  0.7561462E-02  0.1262614E+00
          2   -1    0    0  501    0  0.00000000000E+00  0.00000000000E+00  0.12136041671E+04  0.12136041671E+04  0.00000000000E+00 0. -1.
         -2   -1    0    0    0  501 -0.00000000000E+00 -0.00000000000E+00 -0.18555549039E+02  0.18555549039E+02  0.00000000000E+00 0.  1.
         25    2    1    2    0    0  0.74899468431E+02  0.83904787181E+01  0.92965421726E+03  0.94105517445E+03  0.12509015619E+03 0.  0.
          5    1    3    3  502    0 -0.30193930804E+02 -0.77195193605E+01  0.37298574532E+03  0.37430883378E+03  0.41800000000E+01 0. -1.
         -5    1    3    3    0  502  0.10509339923E+03  0.16109998079E+02  0.55666847194E+03  0.56674634067E+03  0.41800000000E+01 0. -1.
        -11    1    1    2    0    0 -0.55280811113E+02 -0.17969118122E+02  0.26276150140E+03  0.26911422092E+03  0.00000000000E+00 0. -1.
         11    1    1    2    0    0 -0.19618657318E+02  0.95786394040E+01  0.26328993828E+01  0.21990320756E+02  0.00000000000E+00 0.  1.
</event>
<event>
 7    1  0.2690635E-009  0.1183183E+03  0.7561462E-02  0.1245897E+00
         -1   -1    0    0    0  501 -0.00000000000E+00  0.00000000000E+00  0.43477490505E+02  0.43477490505E+02  0.00000000000E+00 0.  1.
          1   -1    0    0  501    0  0.00000000000E+00 -0.00000000000E+00 -0.55507972306E+03  0.55507972306E+03  0.00000000000E+00 0. -1.
         25    2    1    2    0    0  0.40052546809E-01 -0.93018849665E+02 -0.16067278293E+03  0.22386634051E+03  0.12509151548E+03 0.  0.
          5    1    3    3  502    0 -0.20908272124E+02 -0.73476590636E+02 -0.18415515969E+02  0.78692876698E+02  0.41800000000E+01 0. -1.
         -5    1    3    3    0  502  0.20948324671E+02 -0.19542259029E+02 -0.14225726696E+03  0.14517346382E+03  0.41800000000E+01 0. -1.
        -11    1    1    2    0    0  0.35421749441E+02  0.43597448798E+01 -0.10307829636E+03  0.10908181741E+03  0.00000000000E+00 0.  1.
         11    1    1    2    0    0 -0.35461801988E+02  0.88659104785E+02 -0.24785115326E+03  0.26560905564E+03  0.00000000000E+00 0. -1.
</event>
<event>
 7    1  0.2690635E-009  0.2321087E+03  0.7561462E-02  0.1125164E+00
         -2   -1    0    0    0  501 -0.00000000000E+00  0.00000000000E+00  0.10269121677E+03  0.10269121677E+03  0.00000000000E+00 0.  1.
          2   -1    0    0  501    0  0.00000000000E+00 -0.00000000000E+00 -0.64139530304E+03  0.64139530304E+03  0.00000000000E+00 0. -1.
         25    2    1    2    0    0  0.58786015194E+02 -0.21806905604E+03 -0.19913474728E+03  0.32605746337E+03  0.12509561567E+03 0.  0.
          5    1    3    3  502    0  0.27517671948E+02 -0.18096153379E+03 -0.84785869535E+02  0.20176822112E+03  0.41800000000E+01 0. -1.
         -5    1    3    3    0  502  0.31268343246E+02 -0.37107522249E+02 -0.11434887775E+03  0.12428924225E+03  0.41800000000E+01 0. -1.
        -11    1    1    2    0    0 -0.12872594568E+02  0.14857557226E+03 -0.27426804069E+03  0.31219122747E+03  0.00000000000E+00 0.  1.
         11    1    1    2    0    0 -0.45913420626E+02  0.69493483781E+02 -0.65301298297E+02  0.10583782897E+03  0.00000000000E+00 0. -1.
</event>
<event>
 7    1  0.3103854E-009  0.1556029E+03  0.7561462E-02  0.1193752E+00
          1   -1    0    0  501    0  0.00000000000E+00  0.00000000000E+00  0.66566992167E+03  0.66566992167E+03  0.00000000000E+00 0. -1.
         -1   -1    0    0    0  501 -0.00000000000E+00 -0.00000000000E+00 -0.50107310207E+02  0.50107310207E+02  0.00000000000E+00 0.  1.
         25    2    1    2    0    0 -0.85854732374E+02 -0.11776754406E+03  0.29312031547E+03  0.35043881834E+03  0.12509043350E+03 0.  0.
          5    1    3    3  502    0 -0.96120957472E+02 -0.12027763436E+03  0.29994631125E+03  0.33718127146E+03  0.41800000000E+01 0. -1.
         -5    1    3    3    0  502  0.10266225098E+02  0.25100902983E+01 -0.68259957744E+01  0.13257546884E+02  0.41800000000E+01 0. -1.
        -11    1    1    2    0    0  0.56381166096E+02  0.81080301226E+02  0.11034924589E+03  0.14808716084E+03  0.00000000000E+00 0.  1.
         11    1    1    2    0    0  0.29473566278E+02  0.36687242834E+02  0.21209305010E+03  0.21725125270E+03  0.00000000000E+00 0. -1.
</event>
<event>
 7    1  0.2690635E-009  0.1237520E+03  0.7561462E-02  0.1237033E+00
          1   -1    0    0  501    0  0.00000000000E+00  0.00000000000E+00  0.22289672708E+02  0.22289672708E+02  0.00000000000E+00 0. -1.
         -1   -1    0    0    0  501 -0.00000000000E+00 -0.00000000000E+00 -0.91810493763E+03  0.91810493763E+03  0.00000000000E+00 0.  1.
         25    2    1    2    0    0 -0.72413541475E+02 -0.50087009477E+02 -0.58851495003E+03  0.60807125334E+03  0.12509345792E+03 0.  0.
          5    1    3    3  502    0  0.29298487010E+02  0.10863740007E+02 -0.17730373674E+03  0.18008472909E+03  0.41800000000E+01 0. -1.
         -5    1    3    3    0  502 -0.10171202848E+03 -0.60950749484E+02 -0.41121121329E+03  0.42798652425E+03  0.41800000000E+01 0. -1.
        -11    1    1    2    0    0  0.24586261306E+02  0.42221324225E+02 -0.26016784809E+03  0.26471576010E+03  0.00000000000E+00 0.  1.
         11    1    1    2    0    0  0.47827280169E+02  0.78656852518E+01 -0.47132466800E+02  0.67607596907E+02  0.00000000000E+00 0. -1.
</event>
<event>
 7    1  0.2690635E-009  0.1406358E+03  0.7561462E-02  0.1212476E+00
         -2   -1    0    0    0  501 -0.00000000000E+00  0.00000000000E+00  0.39199431268E+02  0.39199431268E+02  0.00000000000E+00 0.  1.
          2   -1    0    0  501    0  0.00000000000E+00 -0.00000000000E+00 -0.60391315596E+03  0.60391315596E+03  0.00000000000E+00 0. -1.
         25    2    1    2    0    0 -0.41197748635E+02 -0.87927476334E+02 -0.19625996838E+03  0.25217584662E+03  0.12508471866E+03 0.  0.
          5    1    3    3  502    0 -0.63422651033E+02 -0.10970064465E+03 -0.16189012205E+03  0.20562720666E+03  0.41800000000E+01 0.  1.
         -5    1    3    3    0  502  0.22224902398E+02  0.21773168316E+02 -0.34369846326E+02  0.46548639955E+02  0.41800000000E+01 0.  1.
        -11    1    1    2    0    0 -0.21728808817E+02  0.33316365285E+02 -0.64573688961E+02  0.75841167148E+02  0.00000000000E+00 0.  1.
         11    1    1    2    0    0  0.62926557452E+02  0.54611111049E+02 -0.30388006735E+03  0.31509557346E+03  0.00000000000E+00 0. -1.
</event>
<event>
 7    1  0.2690635E-009  0.1117959E+03  0.7561462E-02  0.1257280E+00
          2   -1    0    0  501    0  0.00000000000E+00  0.00000000000E+00  0.86773144312E+02  0.86773144312E+02  0.00000000000E+00 0. -1.
         -2   -1    0    0    0  501 -0.00000000000E+00 -0.00000000000E+00 -0.26827361367E+03  0.26827361367E+03  0.00000000000E+00 0.  1.
         25    2    1    2    0    0  0.24963972388E+02 -0.67967700405E+02 -0.60724089869E+01  0.14466189797E+03  0.12508949740E+03 0.  0.
          5    1    3    3  502    0 -0.31526339934E+02 -0.30274796558E+02 -0.47752371011E+02  0.64870908376E+02  0.41800000000E+01 0.  1.
         -5    1    3    3    0  502  0.56490312322E+02 -0.37692903847E+02  0.41679962024E+02  0.79790989598E+02  0.41800000000E+01 0.  1.
        -11    1    1    2    0    0 -0.57549685207E+01  0.85466080139E+02 -0.15589124597E+03  0.17787538078E+03  0.00000000000E+00 0.  1.
         11    1    1    2    0    0 -0.19209003868E+02 -0.17498379734E+02 -0.19536814401E+02  0.32509479230E+02  0.00000000000E+00 0. -1.
</event>
<event>
 7    1  0.2690635E-009  0.7205481E+02  0.7561462E-02  0.1353242E+00
         -2   -1    0    0    0  501 -0.00000000000E+00  0.00000000000E+00  0.35369912369E+03  0.35369912369E+03  0.00000000000E+00 0.  1.
          2   -1    0    0  501    0  0.00000000000E+00 -0.00000000000E+00 -0.39430167131E+02  0.39430167131E+02  0.00000000000E+00 0. -1.
         25    2    1    2    0    0  0.72870001264E+01 -0.38647107595E+02  0.22384337425E+03  0.25942783484E+03  0.12510094323E+03 0.  0.
          5    1    3    3  502    0  0.46777433247E+01  0.74811039772E+01  0.21109056881E+03  0.21131622948E+03  0.41800000000E+01 0. -1.
         -5    1    3    3    0  502  0.26092568018E+01 -0.46128211572E+02  0.12752805437E+02  0.48111605361E+02  0.41800000000E+01 0. -1.
        -11    1    1    2    0    0  0.35833292078E+02  0.15884851426E+02  0.11359084563E+02  0.40809093694E+02  0.00000000000E+00 0. -1.
         11    1    1    2    0    0 -0.43120292205E+02  0.22762256168E+02  0.79066497748E+02  0.92892362290E+02  0.00000000000E+00 0.  1.
</event>
<event>
 7    1  0.2690635E-009  0.1218575E+03  0.7561462E-02  0.1240064E+00
         -1   -1    0    0    0  501 -0.00000000000E+00  0.00000000000E+00  0.23835701002E+03  0.23835701002E+03  0.00000000000E+00 0.  1.
          1   -1    0    0  501    0  0.00000000000E+00 -0.00000000000E+00 -0.94554818889E+02  0.94554818889E+02  0.00000000000E+00 0. -1.
         25    2    1    2    0    0  0.15496881455E+02 -0.80134442171E+02  0.11528784517E+03  0.18868494523E+03  0.12509611967E+03 0.  0.
          5    1    3    3  502    0 -0.48161009007E+02 -0.39567261807E+02  0.88811787993E+02  0.10858202928E+03  0.41800000000E+01 0.  1.
         -5    1    3    3    0  502  0.63657890463E+02 -0.40567180364E+02  0.26476057175E+02  0.80102915955E+02  0.41800000000E+01 0.  1.
        -11    1    1    2    0    0  0.23664580709E+02  0.10796206619E+02  0.54559710931E+02  0.60442803661E+02  0.00000000000E+00 0.  1.
         11    1    1    2    0    0 -0.39161462165E+02  0.69338235552E+02 -0.26045364965E+02  0.83784080018E+02  0.00000000000E+00 0. -1.
</event>
<event>
 7    1  0.2690635E-009  0.1287974E+03  0.7561462E-02  0.1229251E+00
         -2   -1    0    0    0  501 -0.00000000000E+00  0.00000000000E+00  0.39414111458E+03  0.39414111458E+03  0.00000000000E+00 0.  1.
          2   -1    0    0  501    0  0.00000000000E+00 -0.00000000000E+00 -0.48443147624E+02  0.48443147624E+02  0.00000000000E+00 0. -1.
         25    2    1    2    0    0 -0.68376561831E+02 -0.22231680736E+02  0.11610422325E+03  0.18519506923E+03  0.12508965255E+03 0.  0.
          5    1    3    3  502    0 -0.22920253365E+02  0.50553577782E+02  0.63547631679E+02  0.84479442072E+02  0.41800000000E+01 0. -1.
         -5    1    3    3    0  502 -0.45456308466E+02 -0.72785258518E+02  0.52556591569E+02  0.10071562716E+03  0.41800000000E+01 0. -1.
        -11    1    1    2    0    0 -0.65192789255E+01 -0.26084847624E+02  0.61719525198E+02  0.67321765157E+02  0.00000000000E+00 0. -1.
         11    1    1    2    0    0  0.74895840756E+02  0.48316528360E+02  0.16787421851E+03  0.19006742782E+03  0.00000000000E+00 0.  1.
</event>
<event>
 7    1  0.2690635E-009  0.1184507E+03  0.7561462E-02  0.1245675E+00
         -1   -1    0    0    0  501 -0.00000000000E+00  0.00000000000E+00  0.32596374039E+02  0.32596374039E+02  0.00000000000E+00 0.  1.
          1   -1    0    0  501    0  0.00000000000E+00 -0.00000000000E+00 -0.50636901759E+03  0.50636901759E+03  0.00000000000E+00 0. -1.
         25    2    1    2    0    0 -0.52469442960E+02 -0.24272129283E+02 -0.19534540542E+03  0.23905945919E+03  0.12508964347E+03 0.  0.
          5    1    3    3  502    0 -0.87124901808E+02 -0.10170861329E+02 -0.84002201233E+02  0.12152381309E+03  0.41800000000E+01 0.  1.
         -5    1    3    3    0  502  0.34655458848E+02 -0.14101267954E+02 -0.11134320419E+03  0.11753564611E+03  0.41800000000E+01 0.  1.
        -11    1    1    2    0    0  0.37378131025E+02 -0.34434969025E+02 -0.12946464000E+03  0.13908265449E+03  0.00000000000E+00 0.  1.
         11    1    1    2    0    0  0.15091311935E+02  0.58707098307E+02 -0.14896259812E+03  0.16082327794E+03  0.00000000000E+00 0. -1.
</event>
<event>
 7    1  0.2690635E-009  0.1783138E+03  0.7561462E-02  0.1169445E+00
          2   -1    0    0  501    0  0.00000000000E+00  0.00000000000E+00  0.36382627267E+03  0.36382627267E+03  0.00000000000E+00 0. -1.
         -2   -1    0    0    0  501 -0.00000000000E+00 -0.00000000000E+00 -0.13284964511E+03  0.13284964511E+03  0.00000000000E+00 0.  1.
         25    2    1    2    0    0 -0.14888207209E+03  0.32915666120E+02  0.25065470365E+03  0.31893869946E+03  0.12507917925E+03 0.  0.
          5    1    3    3  502    0  0.22106158652E+02  0.45223917907E+00  0.37383645397E+02  0.43633658038E+02  0.41800000000E+01 0. -1.
         -5    1    3    3    0  502 -0.17098823075E+03  0.32463426941E+02  0.21327105825E+03  0.27530504142E+03  0.41800000000E+01 0. -1.
        -11    1    1    2    0    0  0.48428847429E+02 -0.34676616977E+02  0.28826812955E+02  0.66172548488E+02  0.00000000000E+00 0. -1.
         11    1    1    2    0    0  0.10045322467E+03  0.17609508565E+01 -0.48504889051E+02  0.11156466984E+03  0.00000000000E+00 0.  1.
</event>
<event>
 7    1  0.2690635E-009  0.1225403E+03  0.7561462E-02  0.1238964E+00
          2   -1    0    0  501    0  0.00000000000E+00  0.00000000000E+00  0.22082341683E+03  0.22082341683E+03  0.00000000000E+00 0. -1.
         -2   -1    0    0    0  501 -0.00000000000E+00 -0.00000000000E+00 -0.97059337029E+02  0.97059337029E+02  0.00000000000E+00 0.  1.
         25    2    1    2    0    0 -0.96504132038E+02  0.36030391961E+02  0.64818548885E+02  0.17452794074E+03  0.12508925283E+03 0.  0.
          5    1    3    3  502    0 -0.97217669687E+02 -0.38091862334E+01  0.85366183767E+02  0.12950151710E+03  0.41800000000E+01 0.  1.
         -5    1    3    3    0  502  0.71353764910E+00  0.39839578195E+02 -0.20547634882E+02  0.45026423642E+02  0.41800000000E+01 0.  1.
        -11    1    1    2    0    0  0.52564399571E+02 -0.29744774237E+01  0.69677732078E+02  0.87331838214E+02  0.00000000000E+00 0. -1.
         11    1    1    2    0    0  0.43939732467E+02 -0.33055914538E+02 -0.10732201167E+02  0.56022974904E+02  0.00000000000E+00 0.  1.
</event>
<event>
 7    1  0.2690635E-009  0.1420901E+03  0.7561462E-02  0.1210544E+00
         -1   -1    0    0    0  501 -0.00000000000E+00  0.00000000000E+00  0.62875088810E+02  0.62875088810E+02  0.00000000000E+00 0.  1.
          1   -1    0    0  501    0  0.00000000000E+00 -0.00000000000E+00 -0.32642554382E+03  0.32642554382E+03  0.00000000000E+00 0. -1.
         25    2    1    2    0    0 -0.87745941603E+02  0.26080186260E+02 -0.13241067220E+03  0.20385880196E+03  0.12508516554E+03 0.  0.
          5    1    3    3  502    0  0.26058263845E+02  0.31018421008E+02 -0.29496757917E+02  0.50286247464E+02  0.41800000000E+01 0.  1.
         -5    1    3    3    0  502 -0.11380420545E+03 -0.49382347482E+01 -0.10291391428E+03  0.15357255449E+03  0.41800000000E+01 0.  1.
        -11    1    1    2    0    0  0.40909376824E+02  0.34064830886E+02 -0.39783413228E+02  0.66458331182E+02  0.00000000000E+00 0.  1.
         11    1    1    2    0    0  0.46836564779E+02 -0.60145017146E+02 -0.91356369584E+02  0.11898349949E+03  0.00000000000E+00 0. -1.
</event>
<event>
 7    1  0.2690635E-009  0.1038476E+03  0.7561462E-02  0.1272407E+00
          1   -1    0    0  501    0  0.00000000000E+00  0.00000000000E+00  0.15878802729E+04  0.15878802729E+04  0.00000000000E+00 0. -1.
         -1   -1    0    0    0  501 -0.00000000000E+00 -0.00000000000E+00 -0.13196528525E+02  0.13196528525E+02  0.00000000000E+00 0.  1.
         25    2    1    2    0    0  0.43397818431E+02  0.52118887393E+02  0.12272097379E+04  0.12354329499E+04  0.12510429198E+03 0.  0.
          5    1    3    3  502    0 -0.21366465727E+02  0.15935761756E+02  0.87758537075E+03  0.87800001692E+03  0.41800000000E+01 0.  1.
         -5    1    3    3    0  502  0.64764284158E+02  0.36183125637E+02  0.34962436715E+03  0.35743293299E+03  0.41800000000E+01 0.  1.
        -11    1    1    2    0    0 -0.67996519701E+02 -0.35316603923E+02  0.29973098964E+03  0.30936944799E+03  0.00000000000E+00 0. -1.
         11    1    1    2    0    0  0.24598701269E+02 -0.16802283470E+02  0.47743016833E+02  0.56274403509E+02  0.00000000000E+00 0.  1.
</event>
<event>
 7    1  0.2690635E-009  0.1309464E+03  0.7561462E-02  0.1226058E+00
         -1   -1    0    0    0  501 -0.00000000000E+00  0.00000000000E+00  0.23302520905E+03  0.23302520905E+03  0.00000000000E+00 0.  1.
          1   -1    0    0  501    0  0.00000000000E+00 -0.00000000000E+00 -0.83065780060E+02  0.83065780060E+02  0.00000000000E+00 0. -1.
         25    2    1    2    0    0 -0.18894580270E+02 -0.77318805625E+02  0.45067901578E+02  0.15496232442E+03  0.12508798252E+03 0.  0.
          5    1    3    3  502    0 -0.73057625070E+01  0.32214465208E+02 -0.54051632899E+01  0.33731796937E+02  0.41800000000E+01 0.  1.
         -5    1    3    3    0  502 -0.11588817763E+02 -0.10953327083E+03  0.50473064867E+02  0.12123052748E+03  0.41800000000E+01 0.  1.
        -11    1    1    2    0    0 -0.34686158724E+02  0.20573907035E+02  0.56087678793E+02  0.69081422757E+02  0.00000000000E+00 0. -1.
         11    1    1    2    0    0  0.53580738994E+02  0.56744898590E+02  0.48803848615E+02  0.92047241929E+02  0.00000000000E+00 0.  1.
</event>
<event>
 7    1  0.2690635E-009  0.8445653E+02  0.7561462E-02  0.1316860E+00
         -2   -1    0    0    0  501 -0.00000000000E+00  0.00000000000E+00  0.62352892065E+02  0.62352892065E+02  0.00000000000E+00 0.  1.
          2   -1    0    0  501    0  0.00000000000E+00 -0.00000000000E+00 -0.25565405927E+03  0.25565405927E+03  0.00000000000E+00 0. -1.
         25    2    1    2    0    0  0.27383950682E+02  0.61214342623E+02 -0.12184282746E+03  0.18705520003E+03  0.12508755637E+03 0.  0.
          5    1    3    3  502    0  0.36583251585E+02  0.16863527852E+02 -0.13398761730E+03  0.13997452217E+03  0.41800000000E+01 0. -1.
         -5    1    3    3    0  502 -0.91993009025E+01  0.44350814771E+02  0.12144789840E+02  0.47080677865E+02  0.41800000000E+01 0. -1.
        -11    1    1    2    0    0 -0.12914507565E+02  0.59514607506E+01 -0.59545601276E+02  0.61219956076E+02  0.00000000000E+00 0. -1.
         11    1    1    2    0    0 -0.14469443117E+02 -0.67165803374E+02 -0.11912738472E+02  0.69731795222E+02  0.00000000000E+00 0.  1.
</event>
<event>
 7    1  0.2690635E-009  0.7455976E+02  0.7561462E-02  0.1345240E+00
          2   -1    0    0  501    0  0.00000000000E+00  0.00000000000E+00  0.47578892582E+03  0.47578892582E+03  0.00000000000E+00 0. -1.
         -2   -1    0    0    0  501 -0.00000000000E+00 -0.00000000000E+00 -0.27616557067E+02  0.27616557067E+02  0.00000000000E+00 0.  1.
         25    2    1    2    0    0 -0.39219862935E+02 -0.10089282567E+02  0.25585928390E+03  0.28766497995E+03  0.12508867360E+03 0.  0.
          5    1    3    3  502    0 -0.15163017988E+02 -0.23304069216E+02  0.25827073709E+03  0.25979654115E+03  0.41800000000E+01 0.  1.
         -5    1    3    3    0  502 -0.24056844947E+02  0.13214786649E+02 -0.24114531867E+01  0.27868438806E+02  0.41800000000E+01 0.  1.
        -11    1    1    2    0    0 -0.24947946510E+02 -0.86290001345E+01  0.28668377669E+02  0.38970957860E+02  0.00000000000E+00 0.  1.
         11    1    1    2    0    0  0.64167809444E+02  0.18718282701E+02  0.16364470718E+03  0.17676954507E+03  0.00000000000E+00 0. -1.
</event>
<event>
 7    1  0.2690635E-009  0.9240557E+02  0.7561462E-02  0.1297129E+00
         -1   -1    0    0    0  501 -0.00000000000E+00  0.00000000000E+00  0.67566607744E+02  0.67566607744E+02  0.00000000000E+00 0.  1.
          1   -1    0    0  501    0  0.00000000000E+00 -0.00000000000E+00 -0.23812745506E+03  0.23812745506E+03  0.00000000000E+00 0. -1.
         25    2    1    2    0    0 -0.22961934466E+02 -0.59361105075E+02 -0.78227111829E+02  0.16068296530E+03  0.12509413688E+03 0.  0.
          5    1    3    3  502    0  0.34535815232E+02 -0.44973648010E+02  0.64674884142E+01  0.57224578246E+02  0.41800000000E+01 0. -1.
         -5    1    3    3    0  502 -0.57497749698E+02 -0.14387457065E+02 -0.84694600243E+02  0.10345838705E+03  0.41800000000E+01 0. -1.
        -11    1    1    2    0    0  0.26183137754E+02  0.33715064147E+02 -0.10706431969E+03  0.11526070798E+03  0.00000000000E+00 0. -1.
         11    1    1    2    0    0 -0.32212032886E+01  0.25646040928E+02  0.14730584204E+02  0.29750389525E+02  0.00000000000E+00 0.  1.
</event>
<event>
 7    1  0.2690635E-009  0.1501822E+03  0.7561462E-02  0.1200249E+00
         -2   -1    0    0    0  501 -0.00000000000E+00  0.00000000000E+00  0.57921388311E+02  0.57921388311E+02  0.00000000000E+00 0.  1.
          2   -1    0    0  501    0  0.00000000000E+00 -0.00000000000E+00 -0.51633898767E+03  0.51633898767E+03  0.00000000000E+00 0. -1.
         25    2    1    2    0    0 -0.13104235425E+03 -0.20288428845E+02 -0.20458014275E+03  0.27401517566E+03  0.12509021836E+03 0.  0.
          5    1    3    3  502    0 -0.99798413766E+02  0.60739909856E+01 -0.45889941454E+02  0.11009076203E+03  0.41800000000E+01 0. -1.
         -5    1    3    3    0  502 -0.31243940484E+02 -0.26362419831E+02 -0.15869020130E+03  0.16392441363E+03  0.41800000000E+01 0. -1.
        -11    1    1    2    0    0  0.10849329656E+03 -0.22530149617E+02 -0.15940379642E+03  0.19413390573E+03  0.00000000000E+00 0.  1.
         11    1    1    2    0    0  0.22549057689E+02  0.42818578462E+02 -0.94433660182E+02  0.10611129459E+03  0.00000000000E+00 0. -1.
</event>
<event>
 7    1  0.2690635E-009  0.5421027E+02  0.7561462E-02  0.1423871E+00
         -2   -1    0    0    0  501 -0.00000000000E+00  0.00000000000E+00  0.55029602368E+02  0.55029602368E+02  0.00000000000E+00 0.  1.
          2   -1    0    0  501    0  0.00000000000E+00 -0.00000000000E+00 -0.97937961286E+03  0.97937961286E+03  0.00000000000E+00 0. -1.
         25    2    1    2    0    0  0.41505461197E+01 -0.34441552684E+02 -0.92884497693E+03  0.93787209172E+03  0.12509045404E+03 0.  0.
          5    1    3    3  502    0  0.15920257828E+02 -0.19082461250E+02 -0.31643199612E+02  0.40451939612E+02  0.41800000000E+01 0. -1.
         -5    1    3    3    0  502 -0.11769711708E+02 -0.15359091435E+02 -0.89720177731E+03  0.89742015211E+03  0.41800000000E+01 0. -1.
        -11    1    1    2    0    0 -0.18542157610E+01  0.48823857609E+02 -0.31209605050E+02  0.57976259239E+02  0.00000000000E+00 0. -1.
         11    1    1    2    0    0 -0.22963303587E+01 -0.14382304925E+02  0.35704571483E+02  0.38560864265E+02  0.00000000000E+00 0.  1.
</event>
<event>
 7    1  0.2690635E-009  0.8870858E+02  0.7561462E-02  0.1306010E+00
         -1   -1    0    0    0  501 -0.00000000000E+00  0.00000000000E+00  0.58454943421E+02  0.58454943421E+02  0.00000000000E+00 0.  1.
          1   -1    0    0  501    0  0.00000000000E+00 -0.00000000000E+00 -0.25492412203E+03  0.25492412203E+03  0.00000000000E+00 0. -1.
         25    2    1    2    0    0  0.54266012755E+02  0.13643452397E+02 -0.10797923167E+03  0.17446450261E+03  0.12508958496E+03 0.  0.
          5    1    3    3  502    0  0.23481089951E+01  0.17911218601E+02  0.25264592656E+02  0.31338433427E+02  0.41800000000E+01 0. -1.
         -5    1    3    3    0  502  0.51917903760E+02 -0.42677662043E+01 -0.13324382432E+03  0.14312606918E+03  0.41800000000E+01 0. -1.
        -11    1    1    2    0    0 -0.79720164609E+02 -0.55847075404E+01 -0.71766718000E+02  0.10741022026E+03  0.00000000000E+00 0.  1.
         11    1    1    2    0    0  0.25454151854E+02 -0.80587448562E+01 -0.16723228939E+02  0.31504342580E+02  0.00000000000E+00 0. -1.
</event>
<event>
 7    1  0.2690635E-009  0.1550468E+03  0.7561462E-02  0.1194405E+00
          2   -1    0    0  501    0  0.00000000000E+00  0.00000000000E+00  0.12482561108E+04  0.12482561108E+04  0.00000000000E+00 0. -1.
         -2   -1    0    0    0  501 -0.00000000000E+00 -0.00000000000E+00 -0.19750668458E+02  0.19750668458E+02  0.00000000000E+00 0.  1.
         25    2    1    2    0    0 -0.35443106543E+02  0.10630786247E+03  0.70809647029E+03  0.72773725555E+03  0.12507328432E+03 0.  0.
          5    1    3    3  502    0 -0.80269934406E+02  0.85484107146E+02  0.53209512262E+03  0.54487933238E+03  0.41800000000E+01 0.  1.
         -5    1    3    3    0  502  0.44826827863E+02  0.20823755319E+02  0.17600134768E+03  0.18285792317E+03  0.41800000000E+01 0.  1.
        -11    1    1    2    0    0  0.69930135231E+01  0.16061757288E+02  0.98766380953E+02  0.10030792736E+03  0.00000000000E+00 0. -1.
         11    1    1    2    0    0  0.28450093020E+02 -0.12236961975E+03  0.42164259107E+03  0.43996159632E+03  0.00000000000E+00 0.  1.
</event>
<event>
 7    1  0.2690635E-009  0.1701314E+03  0.7561462E-02  0.1177711E+00
         -2   -1    0    0    0  501 -0.00000000000E+00  0.00000000000E+00  0.22391611150E+02  0.22391611150E+02  0.00000000000E+00 0. -1.
          2   -1    0    0  501    0  0.00000000000E+00 -0.00000000000E+00 -0.20347328276E+04  0.20347328276E+04  0.00000000000E+00 0.  1.
         25    2    1    2    0    0 -0.12423711080E+03  0.74317062214E+02 -0.15352772419E+04  0.15471536601E+04  0.12510137090E+03 0.  0.
          5    1    3    3  502    0 -0.10594270871E+03 -0.69078640319E+01 -0.75593176527E+03  0.76336222219E+03  0.41800000000E+01 0.  1.
         -5    1    3    3    0  502 -0.18294402088E+02  0.81224926246E+02 -0.77934547660E+03  0.78379143788E+03  0.41800000000E+01 0.  1.
        -11    1    1    2    0    0  0.12160826325E+03 -0.59105099290E+02 -0.47562024292E+03  0.49446597246E+03  0.00000000000E+00 0.  1.
         11    1    1    2    0    0  0.26288475475E+01 -0.15211962924E+02 -0.14437316824E+01  0.15504806242E+02  0.00000000000E+00 0. -1.
</event>
<event>
 7    1  0.2690635E-009  0.2855206E+03  0.7561462E-02  0.1092711E+00
         -1   -1    0    0    0  501 -0.00000000000E+00  0.00000000000E+00  0.88215913440E+02  0.88215913440E+02  0.00000000000E+00 0.  1.
          1   -1    0    0  501    0  0.00000000000E+00 -0.00000000000E+00 -0.10049734808E+04  0.10049734808E+04  0.00000000000E+00 0. -1.
         25    2    1    2    0    0 -0.24251488133E+03 -0.12695121437E+03 -0.39226004040E+03  0.49441479046E+03  0.12509183520E+03 0.  0.
          5    1    3    3  502    0 -0.19600829711E+03 -0.43170297322E+02 -0.22445181824E+03  0.30112957048E+03  0.41800000000E+01 0. -1.
         -5    1    3    3    0  502 -0.46506584217E+02 -0.83780917051E+02 -0.16780822216E+03  0.19328521998E+03  0.41800000000E+01 0. -1.
        -11    1    1    2    0    0  0.12272325153E+03  0.74831346369E+02 -0.18006841304E+03  0.23040260467E+03  0.00000000000E+00 0.  1.
         11    1    1    2    0    0  0.11979162980E+03  0.52119868004E+02 -0.34442911388E+03  0.36837199907E+03  0.00000000000E+00 0. -1.
</event>
<event>
 7    1  0.2690635E-009  0.9122744E+02  0.7561462E-02  0.1299906E+00
         -2   -1    0    0    0  501 -0.00000000000E+00  0.00000000000E+00  0.59468068752E+02  0.59468068752E+02  0.00000000000E+00 0.  1.
          2   -1    0    0  501    0  0.00000000000E+00 -0.00000000000E+00 -0.32857877807E+03  0.32857877807E+03  0.00000000000E+00 0. -1.
         25    2    1    2    0    0 -0.58528744891E+02 -0.53116201782E+02 -0.20814227259E+03  0.25537714815E+03  0.12508931724E+03 0.  0.
          5    1    3    3  502    0 -0.72401965702E+02 -0.44493627127E+02 -0.21925408481E+03  0.23518408449E+03  0.41800000000E+01 0. -1.
         -5    1    3    3    0  502  0.13873220812E+02 -0.86225746552E+01  0.11111812214E+02  0.20193063662E+02  0.41800000000E+01 0. -1.
        -11    1    1    2    0    0  0.38232115591E+02  0.24432881197E+02  0.15958878450E+02  0.48097257173E+02  0.00000000000E+00 0.  1.
         11    1    1    2    0    0  0.20296629299E+02  0.28683320585E+02 -0.76927315173E+02  0.84572441495E+02  0.00000000000E+00 0. -1.
</event>
<event>
 7    1  0.2690635E-009  0.8839231E+02  0.7561462E-02  0.1306792E+00
          2   -1    0    0  501    0  0.00000000000E+00  0.00000000000E+00  0.99681252305E+03  0.99681252305E+03  0.00000000000E+00 0. -1.
         -2   -1    0    0    0  501 -0.00000000000E+00 -0.00000000000E+00 -0.12639866242E+02  0.12639866242E+02  0.00000000000E+00 0.  1.
         25    2    1    2    0    0  0.18229227992E+02  0.55201090147E+01  0.71160197427E+03  0.72276413180E+03  0.12509134292E+03 0.  0.
          5    1    3    3  502    0 -0.39293413913E+02  0.26320355747E+02  0.13891384372E+03  0.14680348048E+03  0.41800000000E+01 0. -1.
         -5    1    3    3    0  502  0.57522641906E+02 -0.20800246733E+02  0.57268813055E+03  0.57596065132E+03  0.41800000000E+01 0. -1.
        -11    1    1    2    0    0 -0.24477535287E+02 -0.32282755468E+02  0.24286002550E+03  0.24621599871E+03  0.00000000000E+00 0. -1.
         11    1    1    2    0    0  0.62483072949E+01  0.26762646454E+02  0.29710657030E+02  0.40472258776E+02  0.00000000000E+00 0.  1.
</event>
<event>
 7    1  0.2690635E-009  0.3422877E+03  0.7561462E-02  0.1065826E+00
          2   -1    0    0  501    0  0.00000000000E+00  0.00000000000E+00  0.14085277133E+03  0.14085277133E+03  0.00000000000E+00 0. -1.
         -2   -1    0    0    0  501 -0.00000000000E+00 -0.00000000000E+00 -0.10775540587E+04  0.10775540587E+04  0.00000000000E+00 0.  1.
         25    2    1    2    0    0  0.64528301112E+02  0.33217835609E+03 -0.22502420743E+03  0.42519387746E+03  0.12509027778E+03 0.  0.
          5    1    3    3  502    0 -0.14063975509E+02  0.96082637012E+02 -0.12629253366E+02  0.98013463273E+02  0.41800000000E+01 0.  1.
         -5    1    3    3    0  502  0.78592276621E+02  0.23609571908E+03 -0.21239495407E+03  0.32718041418E+03  0.41800000000E+01 0.  1.
        -11    1    1    2    0    0 -0.47589964169E+02 -0.22254636525E+03 -0.56650931009E+03  0.61051166066E+03  0.00000000000E+00 0.  1.
         11    1    1    2    0    0 -0.16938336943E+02 -0.10963199084E+03 -0.14516776988E+03  0.18270129197E+03  0.00000000000E+00 0. -1.
</event>
<event>
 7    1  0.2690635E-009  0.7796937E+02  0.7561462E-02  0.1334915E+00
          1   -1    0    0  501    0  0.00000000000E+00  0.00000000000E+00  0.37034153096E+03  0.37034153096E+03  0.00000000000E+00 0. -1.
         -1   -1    0    0    0  501 -0.00000000000E+00 -0.00000000000E+00 -0.34848064992E+02  0.34848064992E+02  0.00000000000E+00 0.  1.
         25    2    1    2    0    0 -0.23931718827E+02 -0.82515795378E+01  0.23468406932E+03  0.26714266154E+03  0.12509106081E+03 0.  0.
          5    1    3    3  502    0 -0.35133367109E+02  0.30655614943E+02  0.21830462244E+03  0.22326777822E+03  0.41800000000E+01 0. -1.
         -5    1    3    3    0  502  0.11201648283E+02 -0.38907194481E+02  0.16379446878E+02  0.43874883324E+02  0.41800000000E+01 0. -1.
        -11    1    1    2    0    0  0.25167713297E+02  0.34189611709E+02  0.10024797698E+02  0.43621553277E+02  0.00000000000E+00 0.  1.
         11    1    1    2    0    0 -0.12359944700E+01 -0.25938032171E+02  0.90784598955E+02  0.94425381136E+02  0.00000000000E+00 0. -1.
</event>
<event>
 7    1  0.2690635E-009  0.1073126E+03  0.7561462E-02  0.1265629E+00
          2   -1    0    0  501    0  0.00000000000E+00  0.00000000000E+00  0.43349400756E+03  0.43349400756E+03  0.00000000000E+00 0. -1.
         -2   -1    0    0    0  501 -0.00000000000E+00 -0.00000000000E+00 -0.38199801374E+02  0.38199801374E+02  0.00000000000E+00 0.  1.
         25    2    1    2    0    0 -0.32375382426E+02  0.43780067314E+02  0.31203274421E+03  0.34055391058E+03  0.12509065862E+03 0.  0.
          5    1    3    3  502    0  0.34583467684E+02 -0.12741135730E+02  0.39210862802E+02  0.53975151120E+02  0.41800000000E+01 0.  1.
         -5    1    3    3    0  502 -0.66958850110E+02  0.56521203044E+02  0.27282188141E+03  0.28657875946E+03  0.41800000000E+01 0.  1.
        -11    1    1    2    0    0  0.63750039620E+01  0.19968524580E+02  0.50938600703E+02  0.55082880199E+02  0.00000000000E+00 0. -1.
         11    1    1    2    0    0  0.26000378464E+02 -0.63748591894E+02  0.32322861272E+02  0.76057018148E+02  0.00000000000E+00 0.  1.
</event>
<event>
 7    1  0.2690635E-009  0.3585591E+03  0.7561462E-02  0.1059156E+00
          1   -1    0    0  501    0  0.00000000000E+00  0.00000000000E+00  0.26423118512E+03  0.26423118512E+03  0.00000000000E+00 0. -1.
         -1   -1    0    0    0  501 -0.00000000000E+00 -0.00000000000E+00 -0.56239779020E+03  0.56239779020E+03  0.00000000000E+00 0.  1.
         25    2    1    2    0    0 -0.35015104124E+03 -0.68212427689E+02 -0.53176546860E+02  0.38175243596E+03  0.12509392571E+03 0.  0.
          5    1    3    3  502    0 -0.54250981610E+02 -0.29102803439E+02 -0.55864867582E+02  0.83237599698E+02  0.41800000000E+01 0. -1.
         -5    1    3    3    0  502 -0.29590005963E+03 -0.39109624250E+02  0.26883207214E+01  0.29851483626E+03  0.41800000000E+01 0. -1.
        -11    1    1    2    0    0  0.15876598347E+03  0.36620216589E+02 -0.17384995934E+03  0.23826767748E+03  0.00000000000E+00 0.  1.
         11    1    1    2    0    0  0.19138505777E+03  0.31592211099E+02 -0.71140098885E+02  0.20660886188E+03  0.00000000000E+00 0. -1.
</event>
<event>
 7    1  0.2690635E-009  0.1087457E+03  0.7561462E-02  0.1262910E+00
         -1   -1    0    0    0  501 -0.00000000000E+00  0.00000000000E+00  0.36455812777E+02  0.36455812777E+02  0.00000000000E+00 0.  1.
          1   -1    0    0  501    0  0.00000000000E+00 -0.00000000000E+00 -0.65551905285E+03  0.65551905285E+03  0.00000000000E+00 0. -1.
         25    2    1    2    0    0  0.87722516408E+02  0.11418083028E+02 -0.47561254719E+03  0.49967983437E+03  0.12508808629E+03 0.  0.
          5    1    3    3  502    0  0.69698287357E+02  0.21103913329E+02 -0.10153746512E+03  0.12502222059E+03  0.41800000000E+01 0. -1.
         -5    1    3    3    0  502  0.18024229052E+02 -0.96858303009E+01 -0.37407508206E+03  0.37465761378E+03  0.41800000000E+01 0. -1.
        -11    1    1    2    0    0 -0.10092540232E+03  0.68117740249E+01 -0.94551998859E+02  0.13846449938E+03  0.00000000000E+00 0.  1.
         11    1    1    2    0    0  0.13202885916E+02 -0.18229857053E+02 -0.48898694023E+02  0.53830531874E+02  0.00000000000E+00 0. -1.
</event>
<event>
 7    1  0.2690635E-009  0.1440949E+03  0.7561462E-02  0.1207923E+00
          2   -1    0    0  501    0  0.00000000000E+00  0.00000000000E+00  0.17447156826E+04  0.17447156826E+04  0.00000000000E+00 0. -1.
         -2   -1    0    0    0  501 -0.00000000000E+00 -0.00000000000E+00 -0.19720478723E+02  0.19720478723E+02  0.00000000000E+00 0.  1.
         25    2    1    2    0    0  0.92630668211E+02  0.34958940137E+02  0.14468366817E+04  0.14556048747E+04  0.12508636887E+03 0.  0.
          5    1    3    3  502    0  0.50679798692E+02  0.81388775658E+02  0.94657604503E+03  0.95142853448E+03  0.41800000000E+01 0. -1.
         -5    1    3    3    0  502  0.41950869519E+02 -0.46429835521E+02  0.50026063664E+03  0.50417634024E+03  0.41800000000E+01 0. -1.
        -11    1    1    2    0    0 -0.94511006504E+02 -0.13889318163E-01  0.23482966334E+03  0.25313494687E+03  0.00000000000E+00 0.  1.
         11    1    1    2    0    0  0.18803382930E+01 -0.34945050819E+02  0.43328858845E+02  0.55696339715E+02  0.00000000000E+00 0. -1.
</event>
<event>
 7    1  0.2690635E-009  0.1487685E+03  0.7561462E-02  0.1201995E+00
         -1   -1    0    0    0  501 -0.00000000000E+00  0.00000000000E+00  0.93086045486E+03  0.93086045486E+03  0.00000000000E+00 0.  1.
          1   -1    0    0  501    0  0.00000000000E+00 -0.00000000000E+00 -0.31389468070E+02  0.31389468070E+02  0.00000000000E+00 0. -1.
         25    2    1    2    0    0 -0.11112354766E+03  0.61284721458E+02  0.58631512927E+03  0.61279450312E+03  0.12508961712E+03 0.  0.
          5    1    3    3  502    0  0.21772168541E+02 -0.37738326299E+01  0.32386544118E+02  0.39428793737E+02  0.41800000000E+01 0. -1.
         -5    1    3    3    0  502 -0.13289571620E+03  0.65058554088E+02  0.55392858515E+03  0.57336570938E+03  0.41800000000E+01 0. -1.
        -11    1    1    2    0    0  0.37976685773E+02 -0.23968005137E+02  0.22313091520E+03  0.22760513889E+03  0.00000000000E+00 0.  1.
         11    1    1    2    0    0  0.73146861885E+02 -0.37316716322E+02  0.90024942321E+02  0.12185028092E+03  0.00000000000E+00 0. -1.
</event>
<event>
 7    1  0.2690635E-009  0.6024093E+02  0.7561462E-02  0.1396823E+00
          3   -1    0    0  501    0  0.00000000000E+00  0.00000000000E+00  0.37884059268E+03  0.37884059268E+03  0.00000000000E+00 0. -1.
         -3   -1    0    0    0  501 -0.00000000000E+00 -0.00000000000E+00 -0.29941611058E+02  0.29941611058E+02  0.00000000000E+00 0.  1.
         25    2    1    2    0    0  0.91353479092E+01 -0.19268594704E+02  0.24712828029E+03  0.27780363877E+03  0.12509093280E+03 0.  0.
          5    1    3    3  502    0 -0.14165086000E+02 -0.17228020811E+02  0.25243926646E+03  0.25345711671E+03  0.41800000000E+01 0. -1.
         -5    1    3    3    0  502  0.23300433909E+02 -0.20405738932E+01 -0.53109861631E+01  0.24346522055E+02  0.41800000000E+01 0. -1.
        -11    1    1    2    0    0 -0.33597898191E+02 -0.10777850242E+02  0.20160051623E+02  0.40637525762E+02  0.00000000000E+00 0.  1.
         11    1    1    2    0    0  0.24462550281E+02  0.30046444945E+02  0.81610649707E+02  0.90341039211E+02  0.00000000000E+00 0. -1.
</event>
<event>
 7    1  0.2690635E-009  0.9827354E+02  0.7561462E-02  0.1283969E+00
          3   -1    0    0  501    0  0.00000000000E+00  0.00000000000E+00  0.81898405067E+02  0.81898405067E+02  0.00000000000E+00 0. -1.
         -3   -1    0    0    0  501 -0.00000000000E+00 -0.00000000000E+00 -0.24844178449E+03  0.24844178449E+03  0.00000000000E+00 0.  1.
         25    2    1    2    0    0 -0.54045782001E+02  0.59188622392E+02 -0.41310511083E+02  0.15420030301E+03  0.12508771143E+03 0.  0.
          5    1    3    3  502    0  0.61842352993E+01  0.44986069917E+02 -0.71824414605E+02  0.85077671490E+02  0.41800000000E+01 0.  1.
         -5    1    3    3    0  502 -0.60230017300E+02  0.14202552475E+02  0.30513903522E+02  0.69122631525E+02  0.41800000000E+01 0.  1.
        -11    1    1    2    0    0 -0.18310690091E+01 -0.21376294418E+02 -0.10283738917E+03  0.10505154633E+03  0.00000000000E+00 0.  1.
         11    1    1    2    0    0  0.55876851010E+02 -0.37812327974E+02 -0.22395479169E+02  0.71088340203E+02  0.00000000000E+00 0. -1.
</event>
<event>
 7    1  0.2690635E-009  0.1338906E+03  0.7561462E-02  0.1221794E+00
         -2   -1    0    0    0  501 -0.00000000000E+00  0.00000000000E+00  0.56755367992E+02  0.56755367992E+02  0.00000000000E+00 0.  1.
          2   -1    0    0  501    0  0.00000000000E+00 -0.00000000000E+00 -0.37338728011E+03  0.37338728011E+03  0.00000000000E+00 0. -1.
         25    2    1    2    0    0 -0.52835645570E+02  0.79796691281E+02 -0.17442166912E+03  0.23500425497E+03  0.12507982976E+03 0.  0.
          5    1    3    3  502    0 -0.36554456429E+02  0.10662601335E+03 -0.88298418686E+02  0.14324600571E+03  0.41800000000E+01 0. -1.
         -5    1    3    3    0  502 -0.16281189140E+02 -0.26829322072E+02 -0.86123250434E+02  0.91758249264E+02  0.41800000000E+01 0. -1.
        -11    1    1    2    0    0  0.48631094081E+02 -0.55350132643E+01 -0.21739890118E+02  0.53555975444E+02  0.00000000000E+00 0. -1.
         11    1    1    2    0    0  0.42045514883E+01 -0.74261678017E+02 -0.12047035288E+03  0.14158241769E+03  0.00000000000E+00 0.  1.
</event>
<event>
 7    1  0.2690635E-009  0.4104533E+03  0.7561462E-02  0.1040219E+00
          2   -1    0    0  501    0  0.00000000000E+00  0.00000000000E+00  0.90726769395E+03  0.90726769395E+03  0.00000000000E+00 0. -1.
         -2   -1    0    0    0  501 -0.00000000000E+00 -0.00000000000E+00 -0.19082126667E+03  0.19082126667E+03  0.00000000000E+00 0.  1.
         25    2    1    2    0    0  0.34746967626E+03  0.19152348789E+03  0.44132284243E+03  0.60648931680E+03  0.12508804025E+03 0.  0.
          5    1    3    3  502    0  0.31888895378E+03  0.12714872726E+03  0.34150887886E+03  0.48425484038E+03  0.41800000000E+01 0.  1.
         -5    1    3    3    0  502  0.28580722473E+02  0.64374760630E+02  0.99813963564E+02  0.12223447642E+03  0.41800000000E+01 0.  1.
        -11    1    1    2    0    0 -0.15242938844E+03 -0.33667225971E+02  0.11593933127E+03  0.19444826844E+03  0.00000000000E+00 0.  1.
         11    1    1    2    0    0 -0.19504028782E+03 -0.15785626192E+03  0.15918425359E+03  0.29715137538E+03  0.00000000000E+00 0. -1.
</event>
<event>
 7    1  0.2690635E-009  0.9487009E+02  0.7561462E-02  0.1291469E+00
         -2   -1    0    0    0  501 -0.00000000000E+00  0.00000000000E+00  0.10378581078E+03  0.10378581078E+03  0.00000000000E+00 0. -1.
          2   -1    0    0  501    0  0.00000000000E+00 -0.00000000000E+00 -0.13580042288E+03  0.13580042288E+03  0.00000000000E+00 0.  1.
         25    2    1    2    0    0 -0.74741307909E+01 -0.43414249208E+02 -0.38607725477E+02  0.13811375599E+03  0.12507675028E+03 0.  0.
          5    1    3    3  502    0  0.23123426952E+02 -0.51483026911E+02 -0.72226107630E+02  0.91756623506E+02  0.41800000000E+01 0. -1.
         -5    1    3    3    0  502 -0.30597557743E+02  0.80687777025E+01  0.33618382152E+02  0.46357132482E+02  0.41800000000E+01 0. -1.
        -11    1    1    2    0    0 -0.20623037441E+02 -0.21928158787E+02  0.30608698011E+01  0.30257606399E+02  0.00000000000E+00 0. -1.
         11    1    1    2    0    0  0.28097168232E+02  0.65342407995E+02  0.35322435716E+01  0.71214871269E+02  0.00000000000E+00 0.  1.
</event>
<event>
 7    1  0.2690635E-009  0.1206611E+03  0.7561462E-02  0.1242010E+00
          1   -1    0    0  501    0  0.00000000000E+00  0.00000000000E+00  0.78999704092E+03  0.78999704092E+03  0.00000000000E+00 0. -1.
         -1   -1    0    0    0  501 -0.00000000000E+00 -0.00000000000E+00 -0.28069705086E+02  0.28069705086E+02  0.00000000000E+00 0.  1.
         25    2    1    2    0    0  0.46789372490E+02  0.40024913998E+02  0.64128548691E+03  0.65626659227E+03  0.12509006873E+03 0.  0.
          5    1    3    3  502    0 -0.68369878424E+01  0.74671952820E+02  0.32330849117E+03  0.33191640183E+03  0.41800000000E+01 0.  1.
         -5    1    3    3    0  502  0.53626360333E+02 -0.34647038822E+02  0.31797699573E+03  0.32435019044E+03  0.41800000000E+01 0.  1.
        -11    1    1    2    0    0 -0.63548020888E+02 -0.54058056591E+01  0.98719264384E+02  0.11752900431E+03  0.00000000000E+00 0. -1.
         11    1    1    2    0    0  0.16758648397E+02 -0.34619108339E+02  0.21922584541E+02  0.44271149423E+02  0.00000000000E+00 0.  1.
</event>
<event>
 7    1  0.2695511E-009  0.1641586E+03  0.7561462E-02  0.1184080E+00
         -1   -1    0    0    0  501 -0.00000000000E+00  0.00000000000E+00  0.75240486216E+02  0.75240486216E+02  0.00000000000E+00 0.  1.
          1   -1    0    0  501    0  0.00000000000E+00 -0.00000000000E+00 -0.57252987072E+03  0.57252987072E+03  0.00000000000E+00 0. -1.
         25    2    1    2    0    0 -0.12644602404E+03 -0.79229732826E+01 -0.67062380087E+02  0.19025244662E+03  0.12508900880E+03 0.  0.
          5    1    3    3  502    0 -0.19043849547E+01 -0.46882773512E+02 -0.23288394302E+02  0.52549432379E+02  0.41800000000E+01 0. -1.
         -5    1    3    3    0  502 -0.12454163909E+03  0.38959800229E+02 -0.43773985785E+02  0.13770301424E+03  0.41800000000E+01 0. -1.
        -11    1    1    2    0    0  0.85232413067E+02  0.43961472161E+02 -0.21468409526E+03  0.23513067862E+03  0.00000000000E+00 0.  1.
         11    1    1    2    0    0  0.41213610976E+02 -0.36038498879E+02 -0.21554290916E+03  0.22238723169E+03  0.00000000000E+00 0. -1.
</event>
<event>
 7    1  0.2690635E-009  0.4465231E+02  0.7561462E-02  0.1476524E+00
         -3   -1    0    0    0  501 -0.00000000000E+00  0.00000000000E+00  0.11628492484E+03  0.11628492484E+03  0.00000000000E+00 0.  1.
          3   -1    0    0  501    0  0.00000000000E+00 -0.00000000000E+00 -0.10344108655E+03  0.10344108655E+03  0.00000000000E+00 0. -1.
         25    2    1    2    0    0  0.15834586303E+02  0.33794593497E+01 -0.16229233837E+00  0.12612078790E+03  0.12507706398E+03 0.  0.
          5    1    3    3  502    0 -0.52640623151E+01  0.20548076543E+02 -0.58092918718E+02  0.61985428989E+02  0.41800000000E+01 0.  1.
         -5    1    3    3    0  502  0.21098648618E+02 -0.17168617194E+02  0.57930626380E+02  0.64135358911E+02  0.41800000000E+01 0.  1.
        -11    1    1    2    0    0  0.24971430775E+01 -0.17090743525E+02  0.48435809561E+02  0.51423310722E+02  0.00000000000E+00 0.  1.
         11    1    1    2    0    0 -0.18331729380E+02  0.13711284175E+02 -0.35429678936E+02  0.42181912775E+02  0.00000000000E+00 0. -1.
</event>
<event>
 7    1  0.2690635E-009  0.9561226E+02  0.7561462E-02  0.1289803E+00
          1   -1    0    0  501    0  0.00000000000E+00  0.00000000000E+00  0.24481025538E+03  0.24481025538E+03  0.00000000000E+00 0. -1.
         -1   -1    0    0    0  501 -0.00000000000E+00 -0.00000000000E+00 -0.74422547568E+02  0.74422547568E+02  0.00000000000E+00 0.  1.
         25    2    1    2    0    0 -0.52855106963E+02  0.58892142822E+02  0.94296769511E+02  0.17550543542E+03  0.12509328640E+03 0.  0.
          5    1    3    3  502    0  0.26278722041E+00  0.46381208298E+02 -0.18516993334E+02  0.50116234719E+02  0.41800000000E+01 0.  1.
         -5    1    3    3    0  502 -0.53117894183E+02  0.12510934524E+02  0.11281376284E+03  0.12538920070E+03  0.41800000000E+01 0.  1.
        -11    1    1    2    0    0  0.55011427993E+02 -0.33435096167E+02  0.97172598330E+00  0.64382506296E+02  0.00000000000E+00 0.  1.
         11    1    1    2    0    0 -0.21563210300E+01 -0.25457046655E+02  0.75119212315E+02  0.79344861230E+02  0.00000000000E+00 0. -1.
</event>
<event>
 7    1  0.2690635E-009  0.1259318E+03  0.7561462E-02  0.1233620E+00
         -2   -1    0    0    0  501 -0.00000000000E+00  0.00000000000E+00  0.85438401897E+02  0.85438401897E+02  0.00000000000E+00 0.  1.
          2   -1    0    0  501    0  0.00000000000E+00 -0.00000000000E+00 -0.28094254194E+03  0.28094254194E+03  0.00000000000E+00 0. -1.
         25    2    1    2    0    0 -0.10312500587E+03 -0.33227676848E+02 -0.12234343707E+03  0.20580207184E+03  0.12509089030E+03 0.  0.
          5    1    3    3  502    0 -0.55742694931E+02 -0.12475483065E+02  0.14810421517E+02  0.59158318953E+02  0.41800000000E+01 0. -1.
         -5    1    3    3    0  502 -0.47382310942E+02 -0.20752193784E+02 -0.13715385858E+03  0.14664375289E+03  0.41800000000E+01 0. -1.
        -11    1    1    2    0    0  0.11241740511E+03  0.45083528506E+01 -0.61500865011E+02  0.12821994624E+03  0.00000000000E+00 0.  1.
         11    1    1    2    0    0 -0.92923992368E+01  0.28719323998E+02 -0.11659837964E+02  0.32358925752E+02  0.00000000000E+00 0. -1.
</event>
<event>
 7    1  0.2690635E-009  0.1035587E+03  0.7561462E-02  0.1272986E+00
         -2   -1    0    0    0  501 -0.00000000000E+00  0.00000000000E+00  0.25239906884E+03  0.25239906884E+03  0.00000000000E+00 0.  1.
          2   -1    0    0  501    0  0.00000000000E+00 -0.00000000000E+00 -0.88175432223E+02  0.88175432223E+02  0.00000000000E+00 0. -1.
         25    2    1    2    0    0  0.49603569390E+02 -0.69359058056E+02  0.28283758644E+02  0.15400731206E+03  0.12508832133E+03 0.  0.
          5    1    3    3  502    0 -0.84253943104E+01 -0.46986120849E+00 -0.39877343232E+02  0.40974174086E+02  0.41800000000E+01 0.  1.
         -5    1    3    3    0  502  0.58028963700E+02 -0.68889196848E+02  0.68161101875E+02  0.11303313797E+03  0.41800000000E+01 0.  1.
        -11    1    1    2    0    0 -0.40752162811E+02  0.82308865770E+02  0.61597821140E+02  0.11058833450E+03  0.00000000000E+00 0. -1.
         11    1    1    2    0    0 -0.88514065787E+01 -0.12949807713E+02  0.74342056830E+02  0.75978854506E+02  0.00000000000E+00 0.  1.
</event>
<event>
 7    1  0.2690635E-009  0.9766354E+02  0.7561462E-02  0.1285287E+00
          1   -1    0    0  501    0  0.00000000000E+00  0.00000000000E+00  0.16562659193E+03  0.16562659193E+03  0.00000000000E+00 0. -1.
         -1   -1    0    0    0  501 -0.00000000000E+00 -0.00000000000E+00 -0.72651966666E+02  0.72651966666E+02  0.00000000000E+00 0.  1.
         25    2    1    2    0    0  0.29144897550E+02  0.18660775020E+02  0.80729296476E+02  0.15284393190E+03  0.12508556524E+03 0.  0.
          5    1    3    3  502    0 -0.28431246261E+02  0.52664651313E+02  0.22490782847E+02  0.64071904724E+02  0.41800000000E+01 0. -1.
         -5    1    3    3    0  502  0.57576143812E+02 -0.34003876293E+02  0.58238513629E+02  0.88772027176E+02  0.41800000000E+01 0. -1.
        -11    1    1    2    0    0 -0.28464395912E+02 -0.38834411504E+02 -0.15982466940E+02  0.50732362462E+02  0.00000000000E+00 0.  1.
         11    1    1    2    0    0 -0.68050163824E+00  0.20173636484E+02  0.28227795731E+02  0.34702264239E+02  0.00000000000E+00 0. -1.
</event>
<event>
 7    1  0.2690635E-009  0.2525757E+03  0.7561462E-02  0.1111688E+00
         -2   -1    0    0    0  501 -0.00000000000E+00  0.00000000000E+00  0.99196601295E+02  0.99196601295E+02  0.00000000000E+00 0.  1.
          2   -1    0    0  501    0  0.00000000000E+00 -0.00000000000E+00 -0.72456796455E+03  0.72456796455E+03  0.00000000000E+00 0. -1.
         25    2    1    2    0    0 -0.54202995780E+02  0.23108359845E+03 -0.41238953914E+03  0.49198588091E+03  0.12508949118E+03 0.  0.
          5    1    3    3  502    0  0.57564979807E+01  0.15451457650E+03 -0.16514973307E+03  0.22627372440E+03  0.41800000000E+01 0. -1.
         -5    1    3    3    0  502 -0.59959493761E+02  0.76569021941E+02 -0.24723980607E+03  0.26571215651E+03  0.41800000000E+01 0. -1.
        -11    1    1    2    0    0  0.77888689416E+02 -0.15538114975E+03 -0.13052786591E+03  0.21736483941E+03  0.00000000000E+00 0.  1.
         11    1    1    2    0    0 -0.23685693636E+02 -0.75702448699E+02 -0.82453958213E+02  0.11441384552E+03  0.00000000000E+00 0. -1.
</event>
<event>
 7    1  0.2690635E-009  0.7945222E+02  0.7561462E-02  0.1330613E+00
         -2   -1    0    0    0  501 -0.00000000000E+00  0.00000000000E+00  0.77016887548E+03  0.77016887548E+03  0.00000000000E+00 0.  1.
          2   -1    0    0  501    0  0.00000000000E+00 -0.00000000000E+00 -0.16476588789E+02  0.16476588789E+02  0.00000000000E+00 0. -1.
         25    2    1    2    0    0  0.27341274353E+02 -0.75085037057E+01  0.46789706687E+03  0.48515880374E+03  0.12508987468E+03 0.  0.
          5    1    3    3  502    0  0.44231382150E+02 -0.13180515812E+01  0.46420147253E+03  0.46632459931E+03  0.41800000000E+01 0. -1.
         -5    1    3    3    0  502 -0.16890107798E+02 -0.61904521245E+01  0.36955943477E+01  0.18834204430E+02  0.41800000000E+01 0. -1.
        -11    1    1    2    0    0 -0.48088108251E+02  0.36476479546E+02  0.17782223431E+03  0.18778643915E+03  0.00000000000E+00 0.  1.
         11    1    1    2    0    0  0.20746833898E+02 -0.28967975840E+02  0.10797298551E+03  0.11370022138E+03  0.00000000000E+00 0. -1.
</event>
<event>
 7    1  0.2690635E-009  0.1121114E+03  0.7561462E-02  0.1256709E+00
         -1   -1    0    0    0  501 -0.00000000000E+00  0.00000000000E+00  0.11217670033E+03  0.11217670033E+03  0.00000000000E+00 0.  1.
          1   -1    0    0  501    0  0.00000000000E+00 -0.00000000000E+00 -0.22725612497E+03  0.22725612497E+03  0.00000000000E+00 0. -1.
         25    2    1    2    0    0 -0.95335959256E+02 -0.28877806842E+02 -0.12242702407E+03  0.20138807961E+03  0.12508361017E+03 0.  0.
          5    1    3    3  502    0 -0.10754669543E+03 -0.29181188975E+02 -0.40794930842E+02  0.11874145135E+03  0.41800000000E+01 0.  1.
         -5    1    3    3    0  502  0.12210736171E+02  0.30338213243E+00 -0.81632093224E+02  0.82646628260E+02  0.41800000000E+01 0.  1.
        -11    1    1    2    0    0  0.84102342602E+02  0.27485109176E+02  0.44618277527E+02  0.99093016642E+02  0.00000000000E+00 0.  1.
         11    1    1    2    0    0  0.11233616654E+02  0.13926976660E+01 -0.37270678096E+02  0.38951729046E+02  0.00000000000E+00 0. -1.
</event>
<event>
 7    1  0.2690635E-009  0.1229847E+03  0.7561462E-02  0.1238253E+00
          1   -1    0    0  501    0  0.00000000000E+00  0.00000000000E+00  0.76991028108E+03  0.76991028108E+03  0.00000000000E+00 0. -1.
         -1   -1    0    0    0  501 -0.00000000000E+00 -0.00000000000E+00 -0.39838322633E+02  0.39838322633E+02  0.00000000000E+00 0.  1.
         25    2    1    2    0    0 -0.61110954619E+02  0.36662540293E+02  0.11619086248E+03  0.18500512299E+03  0.12509151998E+03 0.  0.
          5    1    3    3  502    0 -0.21429444092E+02  0.73280864855E+02  0.10468888503E+03  0.12964004503E+03  0.41800000000E+01 0. -1.
         -5    1    3    3    0  502 -0.39681510527E+02 -0.36618324562E+02  0.11501977457E+02  0.55365077954E+02  0.41800000000E+01 0. -1.
        -11    1    1    2    0    0  0.62982119133E+02 -0.62918613386E+02  0.49962150000E+03  0.50749102701E+03  0.00000000000E+00 0. -1.
         11    1    1    2    0    0 -0.18711645140E+01  0.26256073093E+02  0.11425959597E+03  0.11725245371E+03  0.00000000000E+00 0.  1.
</event>
<event>
 7    1  0.2690635E-009  0.1857253E+03  0.7561462E-02  0.1162374E+00
          1   -1    0    0  501    0  0.00000000000E+00  0.00000000000E+00  0.89906705717E+02  0.89906705717E+02  0.00000000000E+00 0. -1.
         -1   -1    0    0    0  501 -0.00000000000E+00 -0.00000000000E+00 -0.42990205765E+03  0.42990205765E+03  0.00000000000E+00 0.  1.
         25    2    1    2    0    0  0.16162456583E+03 -0.12951009368E+02 -0.20938036655E+03  0.29287886402E+03  0.12509061582E+03 0.  0.
          5    1    3    3  502    0  0.10442454303E+03  0.52239524263E+02 -0.10480332386E+03  0.15695433150E+03  0.41800000000E+01 0. -1.
         -5    1    3    3    0  502  0.57200022798E+02 -0.65190533631E+02 -0.10457704269E+03  0.13592453252E+03  0.41800000000E+01 0. -1.
        -11    1    1    2    0    0 -0.68648193806E+02  0.26973949214E+02 -0.10704061778E+03  0.12999177783E+03  0.00000000000E+00 0.  1.
         11    1    1    2    0    0 -0.92976372025E+02 -0.14022939847E+02 -0.23574367608E+02  0.96938121526E+02  0.00000000000E+00 0. -1.
</event>
<event>
 7    1  0.2690635E-009  0.8655725E+02  0.7561462E-02  0.1311410E+00
         -2   -1    0    0    0  501 -0.00000000000E+00  0.00000000000E+00  0.29388452470E+02  0.29388452470E+02  0.00000000000E+00 0.  1.
          2   -1    0    0  501    0  0.00000000000E+00 -0.00000000000E+00 -0.49833679915E+03  0.49833679915E+03  0.00000000000E+00 0. -1.
         25    2    1    2    0    0  0.24895313079E+01  0.33314060758E+02 -0.36458180383E+03  0.38688701520E+03  0.12508255848E+03 0.  0.
          5    1    3    3  502    0 -0.29803597215E+02  0.35255304430E+02 -0.34650712864E+03  0.34959384076E+03  0.41800000000E+01 0. -1.
         -5    1    3    3    0  502  0.32293128523E+02 -0.19412436720E+01 -0.18074675189E+02  0.37293174442E+02  0.41800000000E+01 0. -1.
        -11    1    1    2    0    0 -0.40549263052E+02 -0.38273068433E+02 -0.68300607134E+02  0.88170536100E+02  0.00000000000E+00 0.  1.
         11    1    1    2    0    0  0.38059731744E+02  0.49590076747E+01 -0.36065935710E+02  0.52667700312E+02  0.00000000000E+00 0. -1.
</event>
<event>
 7    1  0.2690635E-009  0.1801194E+03  0.7561462E-02  0.1167688E+00
          4   -1    0    0  501    0  0.00000000000E+00  0.00000000000E+00  0.60895597274E+02  0.60895597274E+02  0.00000000000E+00 0. -1.
         -4   -1    0    0    0  501 -0.00000000000E+00 -0.00000000000E+00 -0.67031136830E+03  0.67031136830E+03  0.00000000000E+00 0.  1.
         25    2    1    2    0    0  0.74362241084E+02  0.15147549024E+03 -0.27883352165E+03  0.34910117982E+03  0.12509569902E+03 0.  0.
          5    1    3    3  502    0  0.24318916839E+02  0.13555702808E+03 -0.12333675236E+03  0.18492307715E+03  0.41800000000E+01 0.  1.
         -5    1    3    3    0  502  0.50043324245E+02  0.15918462161E+02 -0.15549676928E+03  0.16417810267E+03  0.41800000000E+01 0.  1.
        -11    1    1    2    0    0 -0.37726923385E+02 -0.56112720212E+02 -0.22604238084E+03  0.23593879726E+03  0.00000000000E+00 0.  1.
         11    1    1    2    0    0 -0.36635317699E+02 -0.95362770030E+02 -0.10453986854E+03  0.14616698849E+03  0.00000000000E+00 0. -1.
</event>
<event>
 7    1  0.2690635E-009  0.9264984E+02  0.7561462E-02  0.1296559E+00
         -2   -1    0    0    0  501 -0.00000000000E+00  0.00000000000E+00  0.21681074155E+03  0.21681074155E+03  0.00000000000E+00 0.  1.
          2   -1    0    0  501    0  0.00000000000E+00 -0.00000000000E+00 -0.86489189746E+02  0.86489189746E+02  0.00000000000E+00 0. -1.
         25    2    1    2    0    0  0.47348252142E+02 -0.11837081911E+02  0.15378615890E+03  0.20415549772E+03  0.12508921252E+03 0.  0.
          5    1    3    3  502    0  0.38323445637E+02 -0.48144867665E+02  0.19490964256E+02  0.64683729450E+02  0.41800000000E+01 0. -1.
         -5    1    3    3    0  502  0.90248065054E+01  0.36307785754E+02  0.13429519464E+03  0.13947176827E+03  0.41800000000E+01 0. -1.
        -11    1    1    2    0    0 -0.69222173403E+01  0.37473515969E+02  0.11568631824E+02  0.39824800492E+02  0.00000000000E+00 0.  1.
         11    1    1    2    0    0 -0.40426034802E+02 -0.25636434058E+02 -0.35033238917E+02  0.59319633090E+02  0.00000000000E+00 0. -1.
</event>
<event>
 7    1  0.2690635E-009  0.1805353E+03  0.7561462E-02  0.1167286E+00
          1   -1    0    0  501    0  0.00000000000E+00  0.00000000000E+00  0.33305925612E+03  0.33305925612E+03  0.00000000000E+00 0. -1.
         -1   -1    0    0    0  501 -0.00000000000E+00 -0.00000000000E+00 -0.17191078796E+03  0.17191078796E+03  0.00000000000E+00 0.  1.
         25    2    1    2    0    0  0.15051231040E+03 -0.15435870506E+02  0.24226718722E+03  0.31182157512E+03  0.12508830091E+03 0.  0.
          5    1    3    3  502    0  0.62202115926E+02  0.53225388704E+02  0.12689755749E+03  0.15107120085E+03  0.41800000000E+01 0. -1.
         -5    1    3    3    0  502  0.88310194477E+02 -0.68661259210E+02  0.11536962973E+03  0.16075037427E+03  0.41800000000E+01 0. -1.
        -11    1    1    2    0    0 -0.14996077482E+03  0.29708163173E+02 -0.88939537948E+02  0.17686449716E+03  0.00000000000E+00 0.  1.
         11    1    1    2    0    0 -0.55153558391E+00 -0.14272292667E+02  0.78208188873E+01  0.16283971799E+02  0.00000000000E+00 0. -1.
</event>
<event>
 7    1  0.2690635E-009  0.3272339E+03  0.7561462E-02  0.1072367E+00
         -2   -1    0    0    0  501 -0.00000000000E+00  0.00000000000E+00  0.13707171869E+03  0.13707171869E+03  0.00000000000E+00 0.  1.
          2   -1    0    0  501    0  0.00000000000E+00 -0.00000000000E+00 -0.14400711751E+04  0.14400711751E+04  0.00000000000E+00 0. -1.
         25    2    1    2    0    0 -0.29301509067E+03  0.11707788344E+03 -0.13730779359E+03  0.36615019583E+03  0.12508981401E+03 0.  0.
          5    1    3    3  502    0 -0.17752889564E+03  0.11664254251E+03 -0.13269738422E+03  0.25049562809E+03  0.41800000000E+01 0. -1.
         -5    1    3    3    0  502 -0.11548619503E+03  0.43534093730E+00 -0.46104093688E+01  0.11565456774E+03  0.41800000000E+01 0. -1.
        -11    1    1    2    0    0  0.14102638697E+03 -0.10130280412E+03 -0.68074572434E+03  0.70254212767E+03  0.00000000000E+00 0.  1.
         11    1    1    2    0    0  0.15198870371E+03 -0.15775079320E+02 -0.48494593851E+03  0.50845057032E+03  0.00000000000E+00 0. -1.
</event>
<event>
 7    1  0.2690635E-009  0.1179338E+03  0.7561462E-02  0.1246545E+00
         -2   -1    0    0    0  501 -0.00000000000E+00  0.00000000000E+00  0.98896682719E+02  0.98896682719E+02  0.00000000000E+00 0.  1.
          2   -1    0    0  501    0  0.00000000000E+00 -0.00000000000E+00 -0.19785839237E+03  0.19785839237E+03  0.00000000000E+00 0. -1.
         25    2    1    2    0    0  0.28335425336E+02  0.60924507475E+02  0.62265789627E+01  0.14212436973E+03  0.12508346911E+03 0.  0.
          5    1    3    3  502    0 -0.16752764962E+02  0.77103982837E+02  0.34638302507E+02  0.86272612709E+02  0.41800000000E+01 0.  1.
         -5    1    3    3    0  502  0.45088190298E+02 -0.16179475362E+02 -0.28411723544E+02  0.55851757019E+02  0.41800000000E+01 0.  1.
        -11    1    1    2    0    0 -0.42819148278E+02  0.32859210802E+01 -0.63695823460E+02  0.76820795770E+02  0.00000000000E+00 0. -1.
         11    1    1    2    0    0  0.14483722942E+02 -0.64210428555E+02 -0.41492465150E+02  0.77809909585E+02  0.00000000000E+00 0.  1.
</event>
<event>
 7    1  0.2690635E-009  0.1377835E+03  0.7561462E-02  0.1216343E+00
         -2   -1    0    0    0  501 -0.00000000000E+00  0.00000000000E+00  0.25843299042E+02  0.25843299042E+02  0.00000000000E+00 0.  1.
          2   -1    0    0  501    0  0.00000000000E+00 -0.00000000000E+00 -0.10144393745E+04  0.10144393745E+04  0.00000000000E+00 0. -1.
         25    2    1    2    0    0 -0.97235699306E+02 -0.68301304717E+02 -0.61165059872E+03  0.63551851538E+03  0.12508988382E+03 0.  0.
          5    1    3    3  502    0 -0.80815378706E+02 -0.26941605424E+02 -0.56311701988E+03  0.56953948592E+03  0.41800000000E+01 0. -1.
         -5    1    3    3    0  502 -0.16420320599E+02 -0.41359699293E+02 -0.48533578836E+02  0.65979029463E+02  0.41800000000E+01 0. -1.
        -11    1    1    2    0    0  0.18046282340E+02  0.63756126252E+02 -0.13986696042E+03  0.15476846759E+03  0.00000000000E+00 0.  1.
         11    1    1    2    0    0  0.79189416966E+02  0.45451784655E+01 -0.23707851628E+03  0.24999569054E+03  0.00000000000E+00 0. -1.
</event>
<event>
 7    1  0.2690635E-009  0.1058974E+03  0.7561462E-02  0.1268362E+00
          1   -1    0    0  501    0  0.00000000000E+00  0.00000000000E+00  0.19850555240E+03  0.19850555240E+03  0.00000000000E+00 0. -1.
         -1   -1    0    0    0  501 -0.00000000000E+00 -0.00000000000E+00 -0.10400595988E+03  0.10400595988E+03  0.00000000000E+00 0.  1.
         25    2    1    2    0    0  0.10873865786E+02 -0.93273208384E+02  0.40255205269E+02  0.16151027210E+03  0.12508778551E+03 0.  0.
          5    1    3    3  502    0 -0.71635167811E+01 -0.30036176620E+02 -0.44394166736E+02  0.54238384183E+02  0.41800000000E+01 0. -1.
         -5    1    3    3    0  502  0.18037382567E+02 -0.63237031764E+02  0.84649372005E+02  0.10727188792E+03  0.41800000000E+01 0. -1.
        -11    1    1    2    0    0 -0.37847140580E+02  0.67767537344E+02  0.29409410607E+01  0.77675570819E+02  0.00000000000E+00 0.  1.
         11    1    1    2    0    0  0.26973274794E+02  0.25505671040E+02  0.51303446198E+02  0.63325669362E+02  0.00000000000E+00 0. -1.
</event>
<event>
 7    1  0.2690635E-009  0.9113583E+02  0.7561462E-02  0.1300124E+00
         -3   -1    0    0    0  501 -0.00000000000E+00  0.00000000000E+00  0.22821860758E+03  0.22821860758E+03  0.00000000000E+00 0.  1.
          3   -1    0    0  501    0  0.00000000000E+00 -0.00000000000E+00 -0.88041083672E+02  0.88041083672E+02  0.00000000000E+00 0. -1.
         25    2    1    2    0    0 -0.57266484339E+02 -0.50560944114E+02  0.13097418592E+03  0.19656503170E+03  0.12509082705E+03 0.  0.
          5    1    3    3  502    0 -0.48027795992E+02 -0.27578751817E+02 -0.73086320610E+01  0.56019150674E+02  0.41800000000E+01 0.  1.
         -5    1    3    3    0  502 -0.92386883475E+01 -0.22982192297E+02  0.13828281798E+03  0.14054588103E+03  0.41800000000E+01 0.  1.
        -11    1    1    2    0    0  0.10013837882E+02  0.53345121286E+02 -0.26504021444E+02  0.60402334945E+02  0.00000000000E+00 0. -1.
         11    1    1    2    0    0  0.47252646457E+02 -0.27841771721E+01  0.35707359437E+02  0.59292324611E+02  0.00000000000E+00 0.  1.
</event>
<event>
 7    1  0.2690635E-009  0.1593709E+03  0.7561462E-02  0.1189409E+00
         -1   -1    0    0    0  501 -0.00000000000E+00  0.00000000000E+00  0.11063932315E+03  0.11063932315E+03  0.00000000000E+00 0. -1.
          1   -1    0    0  501    0  0.00000000000E+00 -0.00000000000E+00 -0.27262488800E+03  0.27262488800E+03  0.00000000000E+00 0.  1.
         25    2    1    2    0    0 -0.34534667710E+02  0.12564047281E+03 -0.47543087983E+02  0.18677631145E+03  0.12508746389E+03 0.  0.
          5    1    3    3  502    0 -0.75087252446E+02  0.11474890387E+03 -0.26934392231E+02  0.13981537936E+03  0.41800000000E+01 0.  1.
         -5    1    3    3    0  502  0.40552584736E+02  0.10891568937E+02 -0.20608695752E+02  0.46960932096E+02  0.41800000000E+01 0.  1.
        -11    1    1    2    0    0 -0.12861133430E+02 -0.27961689314E+02 -0.74837978958E+02  0.80919638636E+02  0.00000000000E+00 0.  1.
         11    1    1    2    0    0  0.47395801140E+02 -0.97678783497E+02 -0.39604497908E+02  0.11556826107E+03  0.00000000000E+00 0. -1.
</event>
<event>
 7    1  0.2690635E-009  0.1628772E+03  0.7561462E-02  0.1185486E+00
          1   -1    0    0  501    0  0.00000000000E+00  0.00000000000E+00  0.99986729816E+03  0.99986729816E+03  0.00000000000E+00 0. -1.
         -1   -1    0    0    0  501 -0.00000000000E+00 -0.00000000000E+00 -0.35489539521E+02  0.35489539521E+02  0.00000000000E+00 0.  1.
         25    2    1    2    0    0  0.13448998326E+03 -0.60709408187E+02  0.38742401321E+03  0.43303485011E+03  0.12509447451E+03 0.  0.
          5    1    3    3  502    0  0.64083470007E+02  0.18151964798E+02  0.62924358806E+02  0.91723128410E+02  0.41800000000E+01 0.  1.
         -5    1    3    3    0  502  0.70406513249E+02 -0.78861372985E+02  0.32449965441E+03  0.34131172170E+03  0.41800000000E+01 0.  1.
        -11    1    1    2    0    0 -0.53426354732E+02  0.46686826820E+02  0.41119016074E+03  0.41726656165E+03  0.00000000000E+00 0. -1.
         11    1    1    2    0    0 -0.81063628524E+02  0.14022581367E+02  0.16576358469E+03  0.18505542593E+03  0.00000000000E+00 0.  1.
</event>
<event>
 7    1  0.2690635E-009  0.1255787E+03  0.7561462E-02  0.1234168E+00
         -2   -1    0    0    0  501 -0.00000000000E+00  0.00000000000E+00  0.61677937979E+02  0.61677937979E+02  0.00000000000E+00 0.  1.
          2   -1    0    0  501    0  0.00000000000E+00 -0.00000000000E+00 -0.36265443086E+03  0.36265443086E+03  0.00000000000E+00 0. -1.
         25    2    1    2    0    0 -0.74040640122E+01 -0.99357769567E+02 -0.14022650078E+03  0.21269312020E+03  0.12509238715E+03 0.  0.
          5    1    3    3  502    0  0.30301709480E+02  0.96285111217E+01 -0.13074444293E+01  0.32094916027E+02  0.41800000000E+01 0.  1.
         -5    1    3    3    0  502 -0.37705773492E+02 -0.10898628069E+03 -0.13891905635E+03  0.18059820418E+03  0.41800000000E+01 0.  1.
        -11    1    1    2    0    0  0.18238512644E+02  0.71735201993E+02 -0.16577189929E+03  0.18154587614E+03  0.00000000000E+00 0. -1.
         11    1    1    2    0    0 -0.10834448632E+02  0.27622567573E+02  0.50219071925E+01  0.30093372499E+02  0.00000000000E+00 0.  1.
</event>
<event>
 7    1  0.2690635E-009  0.9561736E+02  0.7561462E-02  0.1289792E+00
         -1   -1    0    0    0  501 -0.00000000000E+00  0.00000000000E+00  0.14060815645E+03  0.14060815645E+03  0.00000000000E+00 0.  1.
          1   -1    0    0  501    0  0.00000000000E+00 -0.00000000000E+00 -0.11890144235E+03  0.11890144235E+03  0.00000000000E+00 0. -1.
         25    2    1    2    0    0 -0.37478152154E+02 -0.51686907605E+02  0.38513037894E+02  0.14562748966E+03  0.12509181967E+03 0.  0.
          5    1    3    3  502    0 -0.25730433102E+02  0.31254347613E+02  0.46001335170E+02  0.61420555759E+02  0.41800000000E+01 0.  1.
         -5    1    3    3    0  502 -0.11747719052E+02 -0.82941255218E+02 -0.74882972765E+01  0.84206933896E+02  0.41800000000E+01 0.  1.
        -11    1    1    2    0    0  0.18495232393E+02  0.40759747010E+02  0.35529977633E+02  0.57147265098E+02  0.00000000000E+00 0.  1.
         11    1    1    2    0    0  0.18982919762E+02  0.10927160595E+02 -0.52336301426E+02  0.56734844040E+02  0.00000000000E+00 0. -1.
</event>
<event>
 7    1  0.2690635E-009  0.1094263E+03  0.7561462E-02  0.1261636E+00
          2   -1    0    0  501    0  0.00000000000E+00  0.00000000000E+00  0.72696281153E+03  0.72696281153E+03  0.00000000000E+00 0. -1.
         -2   -1    0    0    0  501 -0.00000000000E+00 -0.00000000000E+00 -0.24996643400E+02  0.24996643400E+02  0.00000000000E+00 0.  1.
         25    2    1    2    0    0 -0.46258898584E+02 -0.18207490309E+02  0.55682952926E+03  0.57286780824E+03  0.12508797968E+03 0.  0.
          5    1    3    3  502    0 -0.68639741219E+01 -0.59714025109E+02  0.14440262149E+03  0.15646874586E+03  0.41800000000E+01 0. -1.
         -5    1    3    3    0  502 -0.39394924462E+02  0.41506534800E+02  0.41242690777E+03  0.41639906239E+03  0.41800000000E+01 0. -1.
        -11    1    1    2    0    0  0.64829070792E+02  0.37130531346E+02  0.12566880976E+03  0.14619895528E+03  0.00000000000E+00 0. -1.
         11    1    1    2    0    0 -0.18570172208E+02 -0.18923041037E+02  0.19467829102E+02  0.32892691405E+02  0.00000000000E+00 0.  1.
</event>
<event>
 7    1  0.2690635E-009  0.8558181E+02  0.7561462E-02  0.1313918E+00
          2   -1    0    0  501    0  0.00000000000E+00  0.00000000000E+00  0.69266742621E+02  0.69266742621E+02  0.00000000000E+00 0. -1.
         -2   -1    0    0    0  501 -0.00000000000E+00 -0.00000000000E+00 -0.19161912123E+03  0.19161912123E+03  0.00000000000E+00 0.  1.
         25    2    1    2    0    0  0.20990184128E+02  0.22071292244E+02 -0.40662092903E+02  0.13501221810E+03  0.12508862244E+03 0.  0.
          5    1    3    3  502    0  0.80191948590E+01  0.48797727909E+02 -0.74672930449E+02  0.89660719812E+02  0.41800000000E+01 0.  1.
         -5    1    3    3    0  502  0.12970989269E+02 -0.26726435665E+02  0.34010837546E+02  0.45351498284E+02  0.41800000000E+01 0.  1.
        -11    1    1    2    0    0  0.18682038843E+02  0.24207964888E+02 -0.10917680612E+02  0.32469060493E+02  0.00000000000E+00 0. -1.
         11    1    1    2    0    0 -0.39672222971E+02 -0.46279257132E+02 -0.70772605090E+02  0.93404585258E+02  0.00000000000E+00 0.  1.
</event>
<event>
 7    1  0.2690635E-009  0.1127832E+03  0.7561462E-02  0.1255501E+00
         -1   -1    0    0    0  501 -0.00000000000E+00  0.00000000000E+00  0.44409228006E+02  0.44409228006E+02  0.00000000000E+00 0.  1.
          1   -1    0    0  501    0  0.00000000000E+00 -0.00000000000E+00 -0.33742738314E+03  0.33742738314E+03  0.00000000000E+00 0. -1.
         25    2    1    2    0    0  0.43798093487E+02  0.58034780368E+01 -0.22387662873E+03  0.26023037250E+03  0.12508856274E+03 0.  0.
          5    1    3    3  502    0  0.68637124222E+02  0.42635438013E+02 -0.18139266655E+03  0.19861925202E+03  0.41800000000E+01 0. -1.
         -5    1    3    3    0  502 -0.24839030736E+02 -0.36831959976E+02 -0.42483962177E+02  0.61611120472E+02  0.41800000000E+01 0. -1.
        -11    1    1    2    0    0  0.25480836330E+02 -0.15886025087E+02 -0.21065027996E+02  0.36679343201E+02  0.00000000000E+00 0. -1.
         11    1    1    2    0    0 -0.69278929817E+02  0.10082547050E+02 -0.48076498414E+02  0.84926895453E+02  0.00000000000E+00 0.  1.
</event>
<event>
 7    1  0.2690635E-009  0.1383771E+03  0.7561462E-02  0.1215530E+00
         -1   -1    0    0    0  501 -0.00000000000E+00  0.00000000000E+00  0.25894692887E+02  0.25894692887E+02  0.00000000000E+00 0.  1.
          1   -1    0    0  501    0  0.00000000000E+00 -0.00000000000E+00 -0.75971720460E+03  0.75971720460E+03  0.00000000000E+00 0. -1.
         25    2    1    2    0    0 -0.73236875094E+02 -0.47599900880E+02 -0.44959888912E+03  0.47477919613E+03  0.12508690396E+03 0.  0.
          5    1    3    3  502    0  0.11379186548E+01  0.37556252310E+02 -0.84973182947E+02  0.93003662114E+02  0.41800000000E+01 0.  1.
         -5    1    3    3    0  502 -0.74374793748E+02 -0.85156153191E+02 -0.36462570617E+03  0.38177553401E+03  0.41800000000E+01 0.  1.
        -11    1    1    2    0    0  0.82442965653E+02  0.54033872721E+01 -0.18375968491E+03  0.20147868616E+03  0.00000000000E+00 0.  1.
         11    1    1    2    0    0 -0.92060905595E+01  0.42196513608E+02 -0.10046393769E+03  0.10935401520E+03  0.00000000000E+00 0. -1.
</event>
<event>
 7    1  0.2690635E-009  0.1750302E+03  0.7561462E-02  0.1172701E+00
         -3   -1    0    0    0  501 -0.00000000000E+00  0.00000000000E+00  0.25958075161E+03  0.25958075161E+03  0.00000000000E+00 0.  1.
          3   -1    0    0  501    0  0.00000000000E+00 -0.00000000000E+00 -0.13469455972E+03  0.13469455972E+03  0.00000000000E+00 0. -1.
         25    2    1    2    0    0  0.80729941006E+02  0.11444095612E+03  0.12633566105E+01  0.18778784249E+03  0.12509445193E+03 0.  0.
          5    1    3    3  502    0 -0.18083741694E+02  0.80616003225E+02 -0.64581112429E+01  0.82976751506E+02  0.41800000000E+01 0.  1.
         -5    1    3    3    0  502  0.98813682700E+02  0.33824952895E+02  0.77214678535E+01  0.10481109098E+03  0.41800000000E+01 0.  1.
        -11    1    1    2    0    0  0.17417178278E+02 -0.21146570148E+02  0.83095327731E+01  0.28628375139E+02  0.00000000000E+00 0. -1.
         11    1    1    2    0    0 -0.98147119284E+02 -0.93294385972E+02  0.11531330251E+03  0.17785909370E+03  0.00000000000E+00 0.  1.
</event>
<event>
 7    1  0.2690635E-009  0.1512131E+03  0.7561462E-02  0.1198990E+00
          3   -1    0    0  501    0  0.00000000000E+00  0.00000000000E+00  0.46051815671E+03  0.46051815671E+03  0.00000000000E+00 0. -1.
         -3   -1    0    0    0  501 -0.00000000000E+00 -0.00000000000E+00 -0.64314927567E+02  0.64314927567E+02  0.00000000000E+00 0.  1.
         25    2    1    2    0    0  0.71248879917E+02  0.10197683271E+03  0.13762528534E+03  0.22374879144E+03  0.12508846952E+03 0.  0.
          5    1    3    3  502    0  0.81977775410E+01 -0.24959732828E+02  0.51180302636E+02  0.57680911898E+02  0.41800000000E+01 0. -1.
         -5    1    3    3    0  502  0.63051102376E+02  0.12693656554E+03  0.86444982706E+02  0.16606787954E+03  0.41800000000E+01 0. -1.
        -11    1    1    2    0    0 -0.44177710566E+02 -0.96887195491E+02  0.12278970034E+03  0.16253033339E+03  0.00000000000E+00 0.  1.
         11    1    1    2    0    0 -0.27071169351E+02 -0.50896372186E+01  0.13578824346E+03  0.13855395945E+03  0.00000000000E+00 0. -1.
</event>
<event>
 7    1  0.2690635E-009  0.8453262E+02  0.7561462E-02  0.1316659E+00
         -2   -1    0    0    0  501 -0.00000000000E+00  0.00000000000E+00  0.49780503102E+02  0.49780503102E+02  0.00000000000E+00 0.  1.
          2   -1    0    0  501    0  0.00000000000E+00 -0.00000000000E+00 -0.36060388129E+03  0.36060388129E+03  0.00000000000E+00 0. -1.
         25    2    1    2    0    0  0.93573260674E+01 -0.52252162575E+02 -0.26171174076E+03  0.29488787802E+03  0.12509187547E+03 0.  0.
          5    1    3    3  502    0  0.28077392098E+02 -0.60659167491E+02 -0.53750226970E+02  0.85874523853E+02  0.41800000000E+01 0. -1.
         -5    1    3    3    0  502 -0.18720066031E+02  0.84070049154E+01 -0.20796151379E+03  0.20901335417E+03  0.41800000000E+01 0. -1.
        -11    1    1    2    0    0 -0.84329201845E+01  0.66419384014E+02 -0.27492287549E+01  0.67009006666E+02  0.00000000000E+00 0.  1.
         11    1    1    2    0    0 -0.92440588288E+00 -0.14167221438E+02 -0.46362408678E+02  0.48487499708E+02  0.00000000000E+00 0. -1.
</event>
<event>
 7    1  0.2690635E-009  0.9089552E+02  0.7561462E-02  0.1300697E+00
          1   -1    0    0  501    0  0.00000000000E+00  0.00000000000E+00  0.48750857183E+03  0.48750857183E+03  0.00000000000E+00 0. -1.
         -1   -1    0    0    0  501 -0.00000000000E+00 -0.00000000000E+00 -0.28524980098E+02  0.28524980098E+02  0.00000000000E+00 0.  1.
         25    2    1    2    0    0  0.28685183497E+02  0.29928033424E+02  0.29532537928E+03  0.32339276060E+03  0.12508905237E+03 0.  0.
          5    1    3    3  502    0  0.48720552162E+02  0.38123328878E+02  0.57546633965E+02  0.84594136253E+02  0.41800000000E+01 0.  1.
         -5    1    3    3    0  502 -0.20035368664E+02 -0.81952954537E+01  0.23777874532E+03  0.23879862435E+03  0.41800000000E+01 0.  1.
        -11    1    1    2    0    0 -0.46445261408E+02  0.15500268227E+02  0.10833302691E+03  0.11888425186E+03  0.00000000000E+00 0.  1.
         11    1    1    2    0    0  0.17760077911E+02 -0.45428301651E+02  0.55325185540E+02  0.73756539461E+02  0.00000000000E+00 0. -1.
</event>
<event>
 7    1  0.2690635E-009  0.1087213E+03  0.7561462E-02  0.1262956E+00
         -2   -1    0    0    0  501 -0.00000000000E+00  0.00000000000E+00  0.16273870651E+03  0.16273870651E+03  0.00000000000E+00 0.  1.
          2   -1    0    0  501    0  0.00000000000E+00 -0.00000000000E+00 -0.91804447434E+02  0.91804447434E+02  0.00000000000E+00 0. -1.
         25    2    1    2    0    0  0.47322295543E+02  0.18240288384E+02  0.65502488880E+02  0.15002089380E+03  0.12507431692E+03 0.  0.
          5    1    3    3  502    0 -0.28087830676E+02 -0.30499071654E+02  0.57062710870E+01  0.42061306846E+02  0.41800000000E+01 0. -1.
         -5    1    3    3    0  502  0.75410126219E+02  0.48739360038E+02  0.59796217793E+02  0.10795958696E+03  0.41800000000E+01 0. -1.
        -11    1    1    2    0    0 -0.41910312779E+02 -0.43291055158E+02  0.31478078689E+02  0.67981315167E+02  0.00000000000E+00 0.  1.
         11    1    1    2    0    0 -0.54119827638E+01  0.25050766774E+02 -0.26046308495E+02  0.36540944974E+02  0.00000000000E+00 0. -1.
</event>
<event>
 7    1  0.2690635E-009  0.1473034E+03  0.7561462E-02  0.1203826E+00
         -4   -1    0    0    0  501 -0.00000000000E+00  0.00000000000E+00  0.21003184607E+02  0.21003184607E+02  0.00000000000E+00 0. -1.
          4   -1    0    0  501    0  0.00000000000E+00 -0.00000000000E+00 -0.12958053800E+04  0.12958053800E+04  0.00000000000E+00 0.  1.
         25    2    1    2    0    0  0.97034047051E+02 -0.31374438647E+02 -0.97691647874E+03  0.99015849003E+03  0.12509223497E+03 0.  0.
          5    1    3    3  502    0  0.10824209621E+02  0.44394929126E+02 -0.32094860650E+03  0.32421220468E+03  0.41800000000E+01 0.  1.
         -5    1    3    3    0  502  0.86209837430E+02 -0.75769367773E+02 -0.65596787224E+03  0.66594628535E+03  0.41800000000E+01 0.  1.
        -11    1    1    2    0    0 -0.97768954772E+02 -0.46105924903E+01 -0.21052955805E+03  0.23216959511E+03  0.00000000000E+00 0.  1.
         11    1    1    2    0    0  0.73490772135E+00  0.35985031137E+02 -0.87356158609E+02  0.94480479478E+02  0.00000000000E+00 0. -1.
</event>
<event>
 7    1  0.2690635E-009  0.1937517E+03  0.7561462E-02  0.1155120E+00
          1   -1    0    0  501    0  0.00000000000E+00  0.00000000000E+00  0.19967494711E+03  0.19967494711E+03  0.00000000000E+00 0. -1.
         -1   -1    0    0    0  501 -0.00000000000E+00 -0.00000000000E+00 -0.24710049424E+03  0.24710049424E+03  0.00000000000E+00 0.  1.
         25    2    1    2    0    0  0.16049755363E+03  0.68172687835E+01  0.83529763054E+02  0.22006926215E+03  0.12508924396E+03 0.  0.
          5    1    3    3  502    0 -0.11449387627E+02  0.27764692638E+02  0.11672706125E+02  0.32491400440E+02  0.41800000000E+01 0. -1.
         -5    1    3    3    0  502  0.17194694126E+03 -0.20947423854E+02  0.71857056930E+02  0.18757786171E+03  0.41800000000E+01 0. -1.
        -11    1    1    2    0    0 -0.11717349928E+03  0.36421379817E+02 -0.75225374311E+02  0.14392707453E+03  0.00000000000E+00 0. -1.
         11    1    1    2    0    0 -0.43324054348E+02 -0.43238648600E+02 -0.55729935871E+02  0.82779104670E+02  0.00000000000E+00 0.  1.
</event>
<event>
 7    1  0.2690635E-009  0.2841945E+03  0.7561462E-02  0.1093420E+00
         -2   -1    0    0    0  501 -0.00000000000E+00  0.00000000000E+00  0.16388110526E+03  0.16388110526E+03  0.00000000000E+00 0.  1.
          2   -1    0    0  501    0  0.00000000000E+00 -0.00000000000E+00 -0.58889929370E+03  0.58889929370E+03  0.00000000000E+00 0. -1.
         25    2    1    2    0    0  0.20237050321E+03  0.18556664333E+03 -0.10137114787E+03  0.31829585182E+03  0.12508932800E+03 0.  0.
          5    1    3    3  502    0  0.50279634079E+02  0.67555769567E+01 -0.62026989126E+02  0.80240259242E+02  0.41800000000E+01 0.  1.
         -5    1    3    3    0  502  0.15209086913E+03  0.17881106637E+03 -0.39344158742E+02  0.23805559258E+03  0.41800000000E+01 0.  1.
        -11    1    1    2    0    0 -0.85136788233E+02 -0.35421506722E+02 -0.15350506957E+03  0.17907194709E+03  0.00000000000E+00 0.  1.
         11    1    1    2    0    0 -0.11723371498E+03 -0.15014513661E+03 -0.17014197100E+03  0.25541260006E+03  0.00000000000E+00 0. -1.
</event>
<event>
 7    1  0.2690635E-009  0.1275656E+03  0.7561462E-02  0.1231113E+00
          2   -1    0    0  501    0  0.00000000000E+00  0.00000000000E+00  0.22151932084E+03  0.22151932084E+03  0.00000000000E+00 0. -1.
         -2   -1    0    0    0  501 -0.00000000000E+00 -0.00000000000E+00 -0.80771674329E+02  0.80771674329E+02  0.00000000000E+00 0.  1.
         25    2    1    2    0    0 -0.23484938572E+02 -0.79838142277E+02  0.65158198188E+02  0.16376147875E+03  0.12508620959E+03 0.  0.
          5    1    3    3  502    0  0.40397468343E+02  0.78383300026E+01  0.13287267993E+02  0.43444432975E+02  0.41800000000E+01 0. -1.
         -5    1    3    3    0  502 -0.63882406915E+02 -0.87676472280E+02  0.51870930195E+02  0.12031704577E+03  0.41800000000E+01 0. -1.
        -11    1    1    2    0    0  0.27842611596E+02  0.27302473022E+01  0.49775447578E+02  0.57098690461E+02  0.00000000000E+00 0. -1.
         11    1    1    2    0    0 -0.43576730237E+01  0.77107894975E+02  0.25814000743E+02  0.81430825957E+02  0.00000000000E+00 0.  1.
</event>
<event>
 7    1  0.2690635E-009  0.1696699E+03  0.7561462E-02  0.1178193E+00
         -1   -1    0    0    0  501 -0.00000000000E+00  0.00000000000E+00  0.11383256167E+04  0.11383256167E+04  0.00000000000E+00 0.  1.
          1   -1    0    0  501    0  0.00000000000E+00 -0.00000000000E+00 -0.32931898145E+02  0.32931898145E+02  0.00000000000E+00 0. -1.
         25    2    1    2    0    0 -0.61838134239E+02  0.14292687282E+03  0.45906009990E+03  0.50063558326E+03  0.12509103121E+03 0.  0.
          5    1    3    3  502    0  0.13558914854E+02  0.60343663200E+02  0.29886866648E+03  0.30522967428E+03  0.41800000000E+01 0. -1.
         -5    1    3    3    0  502 -0.75397049094E+02  0.82583209620E+02  0.16019143342E+03  0.19540590898E+03  0.41800000000E+01 0. -1.
        -11    1    1    2    0    0 -0.40551612172E+00 -0.68168154955E+02  0.40015624251E+03  0.40592127342E+03  0.00000000000E+00 0. -1.
         11    1    1    2    0    0  0.62243650361E+02 -0.74758717865E+02  0.24617737617E+03  0.26470065819E+03  0.00000000000E+00 0.  1.
</event>
<event>
 7    1  0.2690635E-009  0.1417144E+03  0.7561462E-02  0.1211041E+00
         -1   -1    0    0    0  501 -0.00000000000E+00  0.00000000000E+00  0.90912332083E+02  0.90912332083E+02  0.00000000000E+00 0.  1.
          1   -1    0    0  501    0  0.00000000000E+00 -0.00000000000E+00 -0.33879838449E+03  0.33879838449E+03  0.00000000000E+00 0. -1.
         25    2    1    2    0    0 -0.20971756518E+02 -0.11853167127E+03 -0.49913531787E+02  0.18063586326E+03  0.12509349614E+03 0.  0.
          5    1    3    3  502    0  0.18776670668E+02 -0.59442580083E+02  0.33488616784E+02  0.70886836171E+02  0.41800000000E+01 0.  1.
         -5    1    3    3    0  502 -0.39748427186E+02 -0.59089091187E+02 -0.83402148572E+02  0.10974902709E+03  0.41800000000E+01 0.  1.
        -11    1    1    2    0    0 -0.22286579258E+02  0.10017186446E+03 -0.15149196059E+03  0.18297788983E+03  0.00000000000E+00 0. -1.
         11    1    1    2    0    0  0.43258335775E+02  0.18359806809E+02 -0.46480560028E+02  0.66096963475E+02  0.00000000000E+00 0.  1.
</event>
<event>
 7    1  0.2690635E-009  0.1750926E+03  0.7561462E-02  0.1172639E+00
          1   -1    0    0  501    0  0.00000000000E+00  0.00000000000E+00  0.92253541018E+03  0.92253541018E+03  0.00000000000E+00 0. -1.
         -1   -1    0    0    0  501 -0.00000000000E+00 -0.00000000000E+00 -0.39962102913E+02  0.39962102913E+02  0.00000000000E+00 0.  1.
         25    2    1    2    0    0  0.15135132639E+03 -0.29077697563E+01  0.57247542917E+03  0.60522121357E+03  0.12509564831E+03 0.  0.
          5    1    3    3  502    0  0.74297771157E+02  0.55054811441E+02  0.36243039034E+03  0.37406476886E+03  0.41800000000E+01 0. -1.
         -5    1    3    3    0  502  0.77053555228E+02 -0.57962581198E+02  0.21004503883E+03  0.23115644471E+03  0.41800000000E+01 0. -1.
        -11    1    1    2    0    0 -0.86510282072E+02  0.28958624717E+02  0.97664388242E+02  0.13364491603E+03  0.00000000000E+00 0.  1.
         11    1    1    2    0    0 -0.64841044313E+02 -0.26050854960E+02  0.21243348985E+03  0.22363138349E+03  0.00000000000E+00 0. -1.
</event>
<event>
 7    1  0.2690635E-009  0.2865280E+03  0.7561462E-02  0.1092176E+00
         -2   -1    0    0    0  501 -0.00000000000E+00  0.00000000000E+00  0.58534094362E+03  0.58534094362E+03  0.00000000000E+00 0.  1.
          2   -1    0    0  501    0  0.00000000000E+00 -0.00000000000E+00 -0.14522667542E+03  0.14522667542E+03  0.00000000000E+00 0. -1.
         25    2    1    2    0    0 -0.24238312680E+03  0.11781812370E+03  0.19782142884E+03  0.35694663548E+03  0.12508753912E+03 0.  0.
          5    1    3    3  502    0  0.11329122610E+02  0.51851273520E+01 -0.39790223509E+01  0.13730971693E+02  0.41800000000E+01 0. -1.
         -5    1    3    3    0  502 -0.25371224941E+03  0.11263299635E+03  0.20180045119E+03  0.34321566379E+03  0.41800000000E+01 0. -1.
        -11    1    1    2    0    0  0.13083292825E+03 -0.16997346985E+02  0.13603764348E+03  0.18950568689E+03  0.00000000000E+00 0.  1.
         11    1    1    2    0    0  0.11155019855E+03 -0.10082077672E+03  0.10625519589E+03  0.18411529667E+03  0.00000000000E+00 0. -1.
</event>
<event>
 7    1  0.2690635E-009  0.1936715E+03  0.7561462E-02  0.1155191E+00
          3   -1    0    0  501    0  0.00000000000E+00  0.00000000000E+00  0.30766908149E+03  0.30766908149E+03  0.00000000000E+00 0. -1.
         -3   -1    0    0    0  501 -0.00000000000E+00 -0.00000000000E+00 -0.15019585084E+03  0.15019585084E+03  0.00000000000E+00 0.  1.
         25    2    1    2    0    0  0.15335031329E+03  0.89347391463E+02  0.13742922858E+03  0.25697100518E+03  0.12509208483E+03 0.  0.
          5    1    3    3  502    0  0.92031758481E+02 -0.30105644713E+01  0.10841034640E+03  0.14229962640E+03  0.41800000000E+01 0. -1.
         -5    1    3    3    0  502  0.61318554812E+02  0.92357955934E+02  0.29018882180E+02  0.11467137878E+03  0.41800000000E+01 0. -1.
        -11    1    1    2    0    0 -0.56397423714E+02 -0.61307171282E+02 -0.29618166210E+02  0.88410827515E+02  0.00000000000E+00 0.  1.
         11    1    1    2    0    0 -0.96952889580E+02 -0.28040220180E+02  0.49662168282E+02  0.11248309964E+03  0.00000000000E+00 0. -1.
</event>
<event>
 7    1  0.2690635E-009  0.2085681E+03  0.7561462E-02  0.1142705E+00
         -1   -1    0    0    0  501 -0.00000000000E+00  0.00000000000E+00  0.43943459829E+02  0.43943459829E+02  0.00000000000E+00 0.  1.
          1   -1    0    0  501    0  0.00000000000E+00 -0.00000000000E+00 -0.11326679923E+04  0.11326679923E+04  0.00000000000E+00 0. -1.
         25    2    1    2    0    0  0.40890674638E+02 -0.17834135122E+03 -0.74280590827E+03  0.77516840337E+03  0.12509097251E+03 0.  0.
          5    1    3    3  502    0  0.73993023795E+02 -0.77392909742E+02 -0.26849853210E+03  0.28909092719E+03  0.41800000000E+01 0.  1.
         -5    1    3    3    0  502 -0.33102349157E+02 -0.10094844148E+03 -0.47430737617E+03  0.48607747618E+03  0.41800000000E+01 0.  1.
        -11    1    1    2    0    0 -0.65549203214E+02  0.86279353707E+02 -0.18826657237E+03  0.21722137830E+03  0.00000000000E+00 0.  1.
         11    1    1    2    0    0  0.24658528576E+02  0.92061997514E+02 -0.15765205182E+03  0.18422167044E+03  0.00000000000E+00 0. -1.
</event>
<event>
 7    1  0.2690635E-009  0.1754520E+03  0.7561462E-02  0.1172279E+00
         -2   -1    0    0    0  501 -0.00000000000E+00  0.00000000000E+00  0.13716340960E+03  0.13716340960E+03  0.00000000000E+00 0. -1.
          2   -1    0    0  501    0  0.00000000000E+00 -0.00000000000E+00 -0.46992739923E+03  0.46992739923E+03  0.00000000000E+00 0.  1.
         25    2    1    2    0    0 -0.74548712916E+02  0.35991423944E+02 -0.31646436711E+03  0.35021566229E+03  0.12509364999E+03 0.  0.
          5    1    3    3  502    0 -0.71381800697E+02 -0.11241891268E+02 -0.75431552655E+02  0.10454249436E+03  0.41800000000E+01 0.  1.
         -5    1    3    3    0  502 -0.31669122190E+01  0.47233315212E+02 -0.24103281446E+03  0.24567316794E+03  0.41800000000E+01 0.  1.
        -11    1    1    2    0    0  0.69580306407E+02  0.85032399218E+02  0.47816728873E+02  0.11982640576E+03  0.00000000000E+00 0. -1.
         11    1    1    2    0    0  0.49684065093E+01 -0.12102382316E+03 -0.64116351388E+02  0.13704874079E+03  0.00000000000E+00 0.  1.
</event>
<event>
 7    1  0.2690635E-009  0.1149462E+03  0.7561462E-02  0.1251675E+00
         -1   -1    0    0    0  501 -0.00000000000E+00  0.00000000000E+00  0.42697391747E+03  0.42697391747E+03  0.00000000000E+00 0.  1.
          1   -1    0    0  501    0  0.00000000000E+00 -0.00000000000E+00 -0.63194407512E+02  0.63194407512E+02  0.00000000000E+00 0. -1.
         25    2    1    2    0    0 -0.29149045946E+02 -0.69843428744E+02  0.33936603767E+03  0.36951920329E+03  0.12508941867E+03 0.  0.
          5    1    3    3  502    0 -0.65899833751E+02 -0.36563730262E+02  0.10140799518E+03  0.12641498466E+03  0.41800000000E+01 0.  1.
         -5    1    3    3    0  502  0.36750787805E+02 -0.33279698482E+02  0.23795804248E+03  0.24310421864E+03  0.41800000000E+01 0.  1.
        -11    1    1    2    0    0  0.53093746251E+02  0.55200159280E+02  0.42174809509E+02  0.87434078211E+02  0.00000000000E+00 0.  1.
         11    1    1    2    0    0 -0.23944700305E+02  0.14643269463E+02 -0.17761337220E+02  0.33215043476E+02  0.00000000000E+00 0. -1.
</event>
<event>
 7    1  0.2690635E-009  0.1405021E+03  0.7561462E-02  0.1212655E+00
         -2   -1    0    0    0  501 -0.00000000000E+00  0.00000000000E+00  0.29614329397E+02  0.29614329397E+02  0.00000000000E+00 0. -1.
          2   -1    0    0  501    0  0.00000000000E+00 -0.00000000000E+00 -0.78857448726E+03  0.78857448726E+03  0.00000000000E+00 0.  1.
         25    2    1    2    0    0  0.65586073826E+02 -0.72701960510E+02 -0.53142490575E+03  0.55465875707E+03  0.12508716241E+03 0.  0.
          5    1    3    3  502    0  0.73365787221E+02 -0.10333606351E+03 -0.41403895760E+03  0.43302033621E+03  0.41800000000E+01 0.  1.
         -5    1    3    3    0  502 -0.77797133958E+01  0.30634103002E+02 -0.11738594814E+03  0.12163842086E+03  0.41800000000E+01 0.  1.
        -11    1    1    2    0    0 -0.40424320951E+02  0.85143409560E+02 -0.21064617052E+03  0.23077117470E+03  0.00000000000E+00 0.  1.
         11    1    1    2    0    0 -0.25161752875E+02 -0.12441449050E+02 -0.16889081591E+02  0.32758884889E+02  0.00000000000E+00 0. -1.
</event>
<event>
 7    1  0.2690635E-009  0.1003145E+03  0.7561462E-02  0.1279636E+00
         -1   -1    0    0    0  501 -0.00000000000E+00  0.00000000000E+00  0.15324034262E+03  0.15324034262E+03  0.00000000000E+00 0.  1.
          1   -1    0    0  501    0  0.00000000000E+00 -0.00000000000E+00 -0.13209679440E+03  0.13209679440E+03  0.00000000000E+00 0. -1.
         25    2    1    2    0    0  0.76019042045E+02 -0.13679531233E+02 -0.36089004486E+02  0.15137977862E+03  0.12508955512E+03 0.  0.
          5    1    3    3  502    0  0.20866655003E+02  0.75855351725E+01 -0.76426502526E+02  0.79695924132E+02  0.41800000000E+01 0. -1.
         -5    1    3    3    0  502  0.55152387042E+02 -0.21265066405E+02  0.40337498040E+02  0.71683854484E+02  0.41800000000E+01 0. -1.
        -11    1    1    2    0    0 -0.83218529400E+02  0.39396593055E+02  0.54785994625E+02  0.10713972366E+03  0.00000000000E+00 0.  1.
         11    1    1    2    0    0  0.71994873544E+01 -0.25717061822E+02  0.24465580824E+01  0.26817634746E+02  0.00000000000E+00 0. -1.
</event>
<event>
 7    1  0.2690635E-009  0.1075773E+03  0.7561462E-02  0.1265123E+00
          1   -1    0    0  501    0  0.00000000000E+00  0.00000000000E+00  0.61924040383E+02  0.61924040383E+02  0.00000000000E+00 0. -1.
         -1   -1    0    0    0  501 -0.00000000000E+00 -0.00000000000E+00 -0.28326120671E+03  0.28326120671E+03  0.00000000000E+00 0.  1.
         25    2    1    2    0    0  0.45272616066E+02 -0.63204414959E+02 -0.12722495460E+03  0.19462153910E+03  0.12508775549E+03 0.  0.
          5    1    3    3  502    0  0.30003118667E+01 -0.85226313746E+02 -0.38166681215E+02  0.93523763724E+02  0.41800000000E+01 0. -1.
         -5    1    3    3    0  502  0.42272304200E+02  0.22021898787E+02 -0.89058273385E+02  0.10109777538E+03  0.41800000000E+01 0. -1.
        -11    1    1    2    0    0 -0.68850642639E+01  0.31188395806E+02 -0.95355066244E+02  0.10056196498E+03  0.00000000000E+00 0.  1.
         11    1    1    2    0    0 -0.38387551802E+02  0.32016019153E+02  0.12428545223E+01  0.50001743001E+02  0.00000000000E+00 0. -1.
</event>
<event>
 7    1  0.2690635E-009  0.1228369E+03  0.7561462E-02  0.1238489E+00
          1   -1    0    0  501    0  0.00000000000E+00  0.00000000000E+00  0.38910613011E+03  0.38910613011E+03  0.00000000000E+00 0. -1.
         -1   -1    0    0    0  501 -0.00000000000E+00 -0.00000000000E+00 -0.57067005805E+02  0.57067005805E+02  0.00000000000E+00 0.  1.
         25    2    1    2    0    0  0.91568892285E+02  0.44759260843E+02  0.19241460687E+03  0.25111343378E+03  0.12508525981E+03 0.  0.
          5    1    3    3  502    0  0.98056160818E+02  0.65031999629E+02  0.19646958826E+03  0.22904572286E+03  0.41800000000E+01 0. -1.
         -5    1    3    3    0  502 -0.64872685335E+01 -0.20272738787E+02 -0.40549813941E+01  0.22067710915E+02  0.41800000000E+01 0. -1.
        -11    1    1    2    0    0 -0.84218674012E+02 -0.29371818633E+02  0.46885268645E+02  0.10076565485E+03  0.00000000000E+00 0.  1.
         11    1    1    2    0    0 -0.73502182726E+01 -0.15387442210E+02  0.92739248788E+02  0.94294047279E+02  0.00000000000E+00 0. -1.
</event>
<event>
 7    1  0.2690635E-009  0.2367521E+03  0.7561462E-02  0.1121976E+00
         -1   -1    0    0    0  501 -0.00000000000E+00  0.00000000000E+00  0.49268676847E+02  0.49268676847E+02  0.00000000000E+00 0.  1.
          1   -1    0    0  501    0  0.00000000000E+00 -0.00000000000E+00 -0.13852326074E+04  0.13852326074E+04  0.00000000000E+00 0. -1.
         25    2    1    2    0    0  0.57922289569E+02 -0.21417468932E+03 -0.45351323906E+03  0.52014336175E+03  0.12509624135E+03 0.  0.
          5    1    3    3  502    0  0.65507612814E+02 -0.79548737589E+02 -0.10851463472E+03  0.14970687137E+03  0.41800000000E+01 0.  1.
         -5    1    3    3    0  502 -0.75853232443E+01 -0.13462595173E+03 -0.34499860434E+03  0.37043649038E+03  0.41800000000E+01 0.  1.
        -11    1    1    2    0    0 -0.77870453660E+02  0.16835309042E+03 -0.75518265571E+03  0.77762935521E+03  0.00000000000E+00 0.  1.
         11    1    1    2    0    0  0.19948164091E+02  0.45821598909E+02 -0.12726803579E+03  0.13672856728E+03  0.00000000000E+00 0. -1.
</event>
<event>
 7    1  0.3126738E-009  0.1302013E+03  0.7561462E-02  0.1227157E+00
         -2   -1    0    0    0  501 -0.00000000000E+00  0.00000000000E+00  0.34907568591E+02  0.34907568591E+02  0.00000000000E+00 0.  1.
          2   -1    0    0  501    0  0.00000000000E+00 -0.00000000000E+00 -0.77175838533E+03  0.77175838533E+03  0.00000000000E+00 0. -1.
         25    2    1    2    0    0 -0.62657277358E+02  0.51214976067E+02 -0.16642434877E+03  0.22337513756E+03  0.12510187864E+03 0.  0.
          5    1    3    3  502    0 -0.93023665931E+02  0.55511040250E+02 -0.89922404705E+02  0.14084881711E+03  0.41800000000E+01 0.  1.
         -5    1    3    3    0  502  0.30366388573E+02 -0.42960641837E+01 -0.76501944063E+02  0.82526320455E+02  0.41800000000E+01 0.  1.
        -11    1    1    2    0    0  0.39434421864E+02  0.21355985377E+02 -0.18034871470E+03  0.18584082068E+03  0.00000000000E+00 0.  1.
         11    1    1    2    0    0  0.23222855494E+02 -0.72570961444E+02 -0.39007775327E+03  0.39744999567E+03  0.00000000000E+00 0. -1.
</event>
<event>
 7    1  0.2690635E-009  0.9941025E+02  0.7561462E-02  0.1281541E+00
         -1   -1    0    0    0  501 -0.00000000000E+00  0.00000000000E+00  0.29259710275E+03  0.29259710275E+03  0.00000000000E+00 0.  1.
          1   -1    0    0  501    0  0.00000000000E+00 -0.00000000000E+00 -0.51705915204E+02  0.51705915204E+02  0.00000000000E+00 0. -1.
         25    2    1    2    0    0 -0.39709399026E+02  0.51532896678E+00  0.76536852683E+02  0.15193496998E+03  0.12509693581E+03 0.  0.
          5    1    3    3  502    0  0.21307493160E+02  0.40738241157E+02  0.18852746805E+00  0.46164071526E+02  0.41800000000E+01 0.  1.
         -5    1    3    3    0  502 -0.61016892185E+02 -0.40222912190E+02  0.76348325215E+02  0.10577089846E+03  0.41800000000E+01 0.  1.
        -11    1    1    2    0    0  0.18644835751E+01 -0.30879230770E+02  0.12814492376E+03  0.13182611531E+03  0.00000000000E+00 0.  1.
         11    1    1    2    0    0  0.37844915451E+02  0.30363901803E+02  0.36209411102E+02  0.60541932662E+02  0.00000000000E+00 0. -1.
</event>
<event>
 7    1  0.2690635E-009  0.1251020E+03  0.7561462E-02  0.1234910E+00
          1   -1    0    0  501    0  0.00000000000E+00  0.00000000000E+00  0.47201725648E+02  0.47201725648E+02  0.00000000000E+00 0. -1.
         -1   -1    0    0    0  501 -0.00000000000E+00 -0.00000000000E+00 -0.45218663075E+03  0.45218663075E+03  0.00000000000E+00 0.  1.
         25    2    1    2    0    0 -0.83083181659E+02 -0.37283567868E+02 -0.28061501685E+03  0.32044537428E+03  0.12509025026E+03 0.  0.
          5    1    3    3  502    0 -0.13909245616E+01 -0.52982281120E+02 -0.42131212188E+02  0.67834859948E+02  0.41800000000E+01 0.  1.
         -5    1    3    3    0  502 -0.81692257097E+02  0.15698713251E+02 -0.23848380466E+03  0.25261051433E+03  0.41800000000E+01 0.  1.
        -11    1    1    2    0    0  0.17996795585E+02  0.44750415782E+02 -0.13371179911E+02  0.50052700389E+02  0.00000000000E+00 0. -1.
         11    1    1    2    0    0  0.65086386074E+02 -0.74668479143E+01 -0.11099870835E+03  0.12889028173E+03  0.00000000000E+00 0.  1.
</event>
<event>
 7    1  0.2690635E-009  0.9900080E+02  0.7561462E-02  0.1282411E+00
         -4   -1    0    0    0  501 -0.00000000000E+00  0.00000000000E+00  0.79995839574E+03  0.79995839574E+03  0.00000000000E+00 0.  1.
          4   -1    0    0  501    0  0.00000000000E+00 -0.00000000000E+00 -0.21988724243E+02  0.21988724243E+02  0.00000000000E+00 0. -1.
         25    2    1    2    0    0  0.11612694107E+02 -0.85392709268E+01  0.59885104024E+03  0.61194673300E+03  0.12509381209E+03 0.  0.
          5    1    3    3  502    0  0.28025841482E+02 -0.56071690418E+02  0.45882655516E+03  0.46310772221E+03  0.41800000000E+01 0. -1.
         -5    1    3    3    0  502 -0.16413147375E+02  0.47532419491E+02  0.14002448509E+03  0.14883901079E+03  0.41800000000E+01 0. -1.
        -11    1    1    2    0    0 -0.28442570393E+02 -0.30802945235E+02  0.15564710935E+03  0.16119498719E+03  0.00000000000E+00 0.  1.
         11    1    1    2    0    0  0.16829876286E+02  0.39342216161E+02  0.23471521908E+02  0.48805399793E+02  0.00000000000E+00 0. -1.
</event>
<event>
 7    1  0.2690635E-009  0.2334796E+03  0.7561462E-02  0.1124214E+00
         -2   -1    0    0    0  501 -0.00000000000E+00  0.00000000000E+00  0.11501227196E+03  0.11501227196E+03  0.00000000000E+00 0. -1.
          2   -1    0    0  501    0  0.00000000000E+00 -0.00000000000E+00 -0.62542053958E+03  0.62542053958E+03  0.00000000000E+00 0.  1.
         25    2    1    2    0    0  0.41960503596E+02 -0.22579818969E+03 -0.18255449567E+03  0.31893435702E+03  0.12508986318E+03 0.  0.
          5    1    3    3  502    0  0.52234665054E+02 -0.21189212297E+03 -0.11037485628E+03  0.24459520295E+03  0.41800000000E+01 0.  1.
         -5    1    3    3    0  502 -0.10274161457E+02 -0.13906066725E+02 -0.72179639387E+02  0.74339154068E+02  0.41800000000E+01 0.  1.
        -11    1    1    2    0    0 -0.10232750598E+02  0.12018100629E+03 -0.66278152425E+02  0.13762622187E+03  0.00000000000E+00 0. -1.
         11    1    1    2    0    0 -0.31727752998E+02  0.10561718340E+03 -0.26157561952E+03  0.28387223264E+03  0.00000000000E+00 0.  1.
</event>
<event>
 7    1  0.2690635E-009  0.1193704E+03  0.7561462E-02  0.1244139E+00
         -1   -1    0    0    0  501 -0.00000000000E+00  0.00000000000E+00  0.20725167130E+02  0.20725167130E+02  0.00000000000E+00 0.  1.
          1   -1    0    0  501    0  0.00000000000E+00 -0.00000000000E+00 -0.75285284155E+03  0.75285284155E+03  0.00000000000E+00 0. -1.
         25    2    1    2    0    0 -0.51370371936E+02  0.30559792481E+02 -0.35469029822E+03  0.38082281662E+03  0.12509194212E+03 0.  0.
          5    1    3    3  502    0  0.94633182888E+01 -0.37544685979E+02 -0.17423894889E+03  0.17853806750E+03  0.41800000000E+01 0. -1.
         -5    1    3    3    0  502 -0.60833690225E+02  0.68104478461E+02 -0.18045134933E+03  0.20228474912E+03  0.41800000000E+01 0. -1.
        -11    1    1    2    0    0  0.38574132837E+02  0.28495364137E+02 -0.17989193034E+03  0.18617479986E+03  0.00000000000E+00 0. -1.
         11    1    1    2    0    0  0.12796239099E+02 -0.59055156618E+02 -0.19754544587E+03  0.20658039220E+03  0.00000000000E+00 0.  1.
</event>
<event>
 7    1  0.2690635E-009  0.7439312E+02  0.7561462E-02  0.1345761E+00
          1   -1    0    0  501    0  0.00000000000E+00  0.00000000000E+00  0.64434100430E+02  0.64434100430E+02  0.00000000000E+00 0. -1.
         -1   -1    0    0    0  501 -0.00000000000E+00 -0.00000000000E+00 -0.22302789925E+03  0.22302789925E+03  0.00000000000E+00 0.  1.
         25    2    1    2    0    0 -0.72964913401E+01 -0.36037460401E+02 -0.13035064244E+03  0.18436839678E+03  0.12509387839E+03 0.  0.
          5    1    3    3  502    0  0.34336601009E+02 -0.45875040852E+02 -0.12327693842E+02  0.58761943275E+02  0.41800000000E+01 0.  1.
         -5    1    3    3    0  502 -0.41633092349E+02  0.98375804502E+01 -0.11802294860E+03  0.12560645351E+03  0.41800000000E+01 0.  1.
        -11    1    1    2    0    0  0.18792980209E+02  0.13801268126E+02  0.30993698849E+02  0.38784796962E+02  0.00000000000E+00 0. -1.
         11    1    1    2    0    0 -0.11496488869E+02  0.22236192276E+02 -0.59236855231E+02  0.64308805935E+02  0.00000000000E+00 0.  1.
</event>
<event>
 7    1  0.2690635E-009  0.8722950E+02  0.7561462E-02  0.1309703E+00
         -4   -1    0    0    0  501 -0.00000000000E+00  0.00000000000E+00  0.16454249328E+03  0.16454249328E+03  0.00000000000E+00 0.  1.
          4   -1    0    0  501    0  0.00000000000E+00 -0.00000000000E+00 -0.75665181414E+02  0.75665181414E+02  0.00000000000E+00 0. -1.
         25    2    1    2    0    0  0.15650749306E+01 -0.18760535945E+02  0.34046536370E+02  0.13100080478E+03  0.12509051541E+03 0.  0.
          5    1    3    3  502    0  0.18784222748E+02 -0.52605940288E+02 -0.24462536705E+02  0.61123809435E+02  0.41800000000E+01 0.  1.
         -5    1    3    3    0  502 -0.17219147817E+02  0.33845404342E+02  0.58509073075E+02  0.69876995347E+02  0.41800000000E+01 0.  1.
        -11    1    1    2    0    0  0.13157343576E+02 -0.28150516846E+02 -0.53121638606E+01  0.31524377449E+02  0.00000000000E+00 0.  1.
         11    1    1    2    0    0 -0.14722418506E+02  0.46911052791E+02  0.60142939352E+02  0.77682492458E+02  0.00000000000E+00 0. -1.
</event>
<event>
 7    1  0.2690635E-009  0.9771496E+02  0.7561462E-02  0.1285176E+00
         -1   -1    0    0    0  501 -0.00000000000E+00  0.00000000000E+00  0.19860894830E+03  0.19860894830E+03  0.00000000000E+00 0.  1.
          1   -1    0    0  501    0  0.00000000000E+00 -0.00000000000E+00 -0.83816920378E+02  0.83816920378E+02  0.00000000000E+00 0. -1.
         25    2    1    2    0    0  0.43102283860E+02  0.14624755387E+02  0.13369458554E+03  0.18866285135E+03  0.12509092266E+03 0.  0.
          5    1    3    3  502    0 -0.35852676547E+02 -0.22014000912E+02  0.24167470642E+02  0.48698764759E+02  0.41800000000E+01 0.  1.
         -5    1    3    3    0  502  0.78954960408E+02  0.36638756299E+02  0.10952711490E+03  0.13996408659E+03  0.41800000000E+01 0.  1.
        -11    1    1    2    0    0 -0.15712145107E+02  0.17681746576E+02  0.23844099662E+02  0.33586556157E+02  0.00000000000E+00 0.  1.
         11    1    1    2    0    0 -0.27390138753E+02 -0.32306501963E+02 -0.42746657284E+02  0.60176461170E+02  0.00000000000E+00 0. -1.
</event>
<event>
 7    1  0.2690635E-009  0.1264193E+03  0.7561462E-02  0.1232868E+00
         -2   -1    0    0    0  501 -0.00000000000E+00  0.00000000000E+00  0.53538140611E+02  0.53538140611E+02  0.00000000000E+00 0. -1.
          2   -1    0    0  501    0  0.00000000000E+00 -0.00000000000E+00 -0.38791813816E+03  0.38791813816E+03  0.00000000000E+00 0.  1.
         25    2    1    2    0    0 -0.77800449265E+02  0.50743620408E+02 -0.14877407892E+03  0.21542743999E+03  0.12508968951E+03 0.  0.
          5    1    3    3  502    0 -0.59277996519E+02  0.74126752900E+02 -0.15761561486E+03  0.18403480871E+03  0.41800000000E+01 0. -1.
         -5    1    3    3    0  502 -0.18522452746E+02 -0.23383132492E+02  0.88415359437E+01  0.31392631280E+02  0.41800000000E+01 0. -1.
        -11    1    1    2    0    0  0.34106595959E+02  0.23601678893E+02 -0.46009622138E+02  0.61945011613E+02  0.00000000000E+00 0. -1.
         11    1    1    2    0    0  0.43693853306E+02 -0.74345299301E+02 -0.13959629649E+03  0.16408382717E+03  0.00000000000E+00 0.  1.
</event>
<event>
 7    1  0.2690635E-009  0.9357669E+02  0.7561462E-02  0.1294414E+00
          3   -1    0    0  501    0  0.00000000000E+00  0.00000000000E+00  0.37328990241E+03  0.37328990241E+03  0.00000000000E+00 0. -1.
         -3   -1    0    0    0  501 -0.00000000000E+00 -0.00000000000E+00 -0.67621613330E+02  0.67621613330E+02  0.00000000000E+00 0.  1.
         25    2    1    2    0    0  0.86337824161E+01  0.72602253063E+02  0.28853299704E+03  0.32286702695E+03  0.12508476070E+03 0.  0.
          5    1    3    3  502    0 -0.65455220311E+01 -0.67694182882E+01  0.20951155829E+03  0.20976471186E+03  0.41800000000E+01 0. -1.
         -5    1    3    3    0  502  0.15179304447E+02  0.79371671351E+02  0.79021438753E+02  0.11310231509E+03  0.41800000000E+01 0. -1.
        -11    1    1    2    0    0  0.26226063184E+02 -0.20703266991E+02 -0.25788913279E+02  0.42207815654E+02  0.00000000000E+00 0.  1.
         11    1    1    2    0    0 -0.34859845600E+02 -0.51898986072E+02  0.42924205312E+02  0.75836673135E+02  0.00000000000E+00 0. -1.
</event>
<event>
 7    1  0.2690635E-009  0.9859225E+02  0.7561462E-02  0.1283284E+00
         -1   -1    0    0    0  501 -0.00000000000E+00  0.00000000000E+00  0.70223691836E+03  0.70223691836E+03  0.00000000000E+00 0.  1.
          1   -1    0    0  501    0  0.00000000000E+00 -0.00000000000E+00 -0.19713242835E+02  0.19713242835E+02  0.00000000000E+00 0. -1.
         25    2    1    2    0    0 -0.47873103136E+02  0.29084187069E+01  0.42882290794E+03  0.44926224959E+03  0.12508872702E+03 0.  0.
          5    1    3    3  502    0 -0.75453344165E+01  0.43220992293E+02  0.34495954659E+03  0.34776363731E+03  0.41800000000E+01 0. -1.
         -5    1    3    3    0  502 -0.40327768720E+02 -0.40312573586E+02  0.83863361348E+02  0.10149861228E+03  0.41800000000E+01 0. -1.
        -11    1    1    2    0    0  0.80423640383E+01  0.37999301929E+02  0.66917409879E+02  0.77372904245E+02  0.00000000000E+00 0.  1.
         11    1    1    2    0    0  0.39830739098E+02 -0.40907720636E+02  0.18678335770E+03  0.19531500736E+03  0.00000000000E+00 0. -1.
</event>
<event>
 7    1  0.2712727E-009  0.1709093E+03  0.7561462E-02  0.1176903E+00
          2   -1    0    0  501    0  0.00000000000E+00  0.00000000000E+00  0.14129669951E+04  0.14129669951E+04  0.00000000000E+00 0. -1.
         -2   -1    0    0    0  501 -0.00000000000E+00 -0.00000000000E+00 -0.26092363262E+02  0.26092363262E+02  0.00000000000E+00 0.  1.
         25    2    1    2    0    0  0.34454824733E+02  0.15038122376E+03  0.59862975325E+03  0.63071884065E+03  0.12508807723E+03 0.  0.
          5    1    3    3  502    0  0.15291700976E+02  0.19582703006E+01  0.26118333920E+01  0.16185333329E+02  0.41800000000E+01 0. -1.
         -5    1    3    3    0  502  0.19163123757E+02  0.14842295346E+03  0.59601791986E+03  0.61453350732E+03  0.41800000000E+01 0. -1.
        -11    1    1    2    0    0 -0.62403926671E+02 -0.11694221849E+03  0.65043428029E+03  0.66380304723E+03  0.00000000000E+00 0. -1.
         11    1    1    2    0    0  0.27949101938E+02 -0.33439005266E+02  0.13781059833E+03  0.14453747052E+03  0.00000000000E+00 0.  1.
</event>
<event>
 7    1  0.2690635E-009  0.1576333E+03  0.7561462E-02  0.1191395E+00
          2   -1    0    0  501    0  0.00000000000E+00  0.00000000000E+00  0.36382858449E+03  0.36382858449E+03  0.00000000000E+00 0.  1.
         -2   -1    0    0    0  501 -0.00000000000E+00 -0.00000000000E+00 -0.85675417894E+02  0.85675417894E+02  0.00000000000E+00 0. -1.
         25    2    1    2    0    0 -0.63861877145E+01  0.13639728029E+03  0.11524858429E+03  0.21811765215E+03  0.12509225610E+03 0.  0.
          5    1    3    3  502    0 -0.31233461827E+02  0.12232876640E+03  0.13364273136E+03  0.18389591695E+03  0.41800000000E+01 0. -1.
         -5    1    3    3    0  502  0.24847274112E+02  0.14068513886E+02 -0.18394147068E+02  0.34221735200E+02  0.41800000000E+01 0. -1.
        -11    1    1    2    0    0  0.41838699157E+02 -0.10384279003E+03  0.13632277265E+03  0.17640209787E+03  0.00000000000E+00 0.  1.
         11    1    1    2    0    0 -0.35452511443E+02 -0.32554490257E+02  0.26581809644E+02  0.54984252359E+02  0.00000000000E+00 0. -1.
</event>
<event>
 7    1  0.2690635E-009  0.1377424E+03  0.7561462E-02  0.1216399E+00
          1   -1    0    0  501    0  0.00000000000E+00  0.00000000000E+00  0.10203286560E+03  0.10203286560E+03  0.00000000000E+00 0. -1.
         -1   -1    0    0    0  501 -0.00000000000E+00 -0.00000000000E+00 -0.22939475170E+03  0.22939475170E+03  0.00000000000E+00 0.  1.
         25    2    1    2    0    0 -0.10537190340E+03  0.14220483676E+02 -0.52457075381E+02  0.17234944771E+03  0.12508847743E+03 0.  0.
          5    1    3    3  502    0 -0.86483878183E+02  0.59060408520E+02 -0.60544638896E+01  0.10498438919E+03  0.41800000000E+01 0.  1.
         -5    1    3    3    0  502 -0.18888025218E+02 -0.44839924844E+02 -0.46402611491E+02  0.67365058524E+02  0.41800000000E+01 0.  1.
        -11    1    1    2    0    0  0.49697095531E+02 -0.36719686116E+02 -0.77323798810E+02  0.98980333982E+02  0.00000000000E+00 0.  1.
         11    1    1    2    0    0  0.55674807869E+02  0.22499202440E+02  0.24189880876E+01  0.60097835611E+02  0.00000000000E+00 0. -1.
</event>
<event>
 7    1  0.2690635E-009  0.1019058E+03  0.7561462E-02  0.1276339E+00
         -2   -1    0    0    0  501 -0.00000000000E+00  0.00000000000E+00  0.11453427340E+02  0.11453427340E+02  0.00000000000E+00 0.  1.
          2   -1    0    0  501    0  0.00000000000E+00 -0.00000000000E+00 -0.16704810633E+04  0.16704810633E+04  0.00000000000E+00 0. -1.
         25    2    1    2    0    0 -0.40878154206E+02  0.51016437385E+02 -0.12231254621E+04  0.12312420814E+04  0.12508983392E+03 0.  0.
          5    1    3    3  502    0 -0.61530761695E+02  0.40510198525E+02 -0.11783083112E+04  0.11806163896E+04  0.41800000000E+01 0.  1.
         -5    1    3    3    0  502  0.20652607489E+02  0.10506238861E+02 -0.44817150952E+02  0.50625691803E+02  0.41800000000E+01 0.  1.
        -11    1    1    2    0    0 -0.23711164370E+02 -0.30657114677E+02 -0.86470997770E+02  0.94759228846E+02  0.00000000000E+00 0.  1.
         11    1    1    2    0    0  0.64589318576E+02 -0.20359322708E+02 -0.34943117608E+03  0.35593318040E+03  0.00000000000E+00 0. -1.
</event>
<event>
 7    1  0.2690635E-009  0.2306183E+03  0.7561462E-02  0.1126205E+00
          1   -1    0    0  501    0  0.00000000000E+00  0.00000000000E+00  0.71904245675E+03  0.71904245675E+03  0.00000000000E+00 0. -1.
         -1   -1    0    0    0  501 -0.00000000000E+00 -0.00000000000E+00 -0.19213369879E+03  0.19213369879E+03  0.00000000000E+00 0.  1.
         25    2    1    2    0    0 -0.20669562184E+03 -0.82942585530E+00  0.62000449920E+03  0.66541598388E+03  0.12509630106E+03 0.  0.
          5    1    3    3  502    0 -0.16952218458E+03  0.46543838008E+02  0.39344128904E+03  0.43094967252E+03  0.41800000000E+01 0. -1.
         -5    1    3    3    0  502 -0.37173437266E+02 -0.47373263863E+02  0.22656321016E+03  0.23446631136E+03  0.41800000000E+01 0. -1.
        -11    1    1    2    0    0  0.14402190228E+03  0.42026070466E+02 -0.78601311799E+02  0.16937138233E+03  0.00000000000E+00 0.  1.
         11    1    1    2    0    0  0.62673719567E+02 -0.41196644610E+02 -0.14494429446E+02  0.76388789337E+02  0.00000000000E+00 0. -1.
</event>
<event>
 7    1  0.2690635E-009  0.8927308E+02  0.7561462E-02  0.1304622E+00
         -4   -1    0    0    0  501 -0.00000000000E+00  0.00000000000E+00  0.84189698184E+02  0.84189698184E+02  0.00000000000E+00 0. -1.
          4   -1    0    0  501    0  0.00000000000E+00 -0.00000000000E+00 -0.16979340264E+03  0.16979340264E+03  0.00000000000E+00 0.  1.
         25    2    1    2    0    0 -0.10819772498E+02  0.54278363316E+02 -0.49356824413E+02  0.14541979448E+03  0.12509041653E+03 0.  0.
          5    1    3    3  502    0 -0.52856844736E+02  0.48791287685E+00  0.11054870325E+02  0.54164256224E+02  0.41800000000E+01 0. -1.
         -5    1    3    3    0  502  0.42037072238E+02  0.53790450439E+02 -0.60411694738E+02  0.91255538253E+02  0.41800000000E+01 0. -1.
        -11    1    1    2    0    0  0.94413813794E+01 -0.14370657109E+02  0.28035294171E+02  0.32888192218E+02  0.00000000000E+00 0. -1.
         11    1    1    2    0    0  0.13783911186E+01 -0.39907706207E+02 -0.64282174219E+02  0.75675114134E+02  0.00000000000E+00 0.  1.
</event>
<event>
 7    1  0.2690635E-009  0.1289958E+03  0.7561462E-02  0.1228953E+00
          1   -1    0    0  501    0  0.00000000000E+00  0.00000000000E+00  0.52603610444E+02  0.52603610444E+02  0.00000000000E+00 0. -1.
         -1   -1    0    0    0  501 -0.00000000000E+00 -0.00000000000E+00 -0.39069675856E+03  0.39069675856E+03  0.00000000000E+00 0.  1.
         25    2    1    2    0    0 -0.85769691712E+02 -0.18121504870E+02 -0.23267152997E+03  0.27833114432E+03  0.12508939236E+03 0.  0.
          5    1    3    3  502    0 -0.28585286439E+01 -0.44368204767E+02 -0.15617215226E+03  0.16243128493E+03  0.41800000000E+01 0. -1.
         -5    1    3    3    0  502 -0.82911163068E+02  0.26246699897E+02 -0.76499377710E+02  0.11589985939E+03  0.41800000000E+01 0. -1.
        -11    1    1    2    0    0  0.10349803622E+03  0.39519497918E+01 -0.79860100036E+02  0.13078645567E+03  0.00000000000E+00 0.  1.
         11    1    1    2    0    0 -0.17728344507E+02  0.14169555078E+02 -0.25561518109E+02  0.34182769023E+02  0.00000000000E+00 0. -1.
</event>
<event>
 7    1  0.2690635E-009  0.1631544E+03  0.7561462E-02  0.1185181E+00
          2   -1    0    0  501    0  0.00000000000E+00  0.00000000000E+00  0.64685708353E+03  0.64685708353E+03  0.00000000000E+00 0. -1.
         -2   -1    0    0    0  501 -0.00000000000E+00 -0.00000000000E+00 -0.51248438260E+02  0.51248438260E+02  0.00000000000E+00 0.  1.
         25    2    1    2    0    0 -0.65572811124E+02 -0.12445697054E+03  0.23966240788E+03  0.30475385596E+03  0.12509001518E+03 0.  0.
          5    1    3    3  502    0 -0.74846737204E+02 -0.50059915077E+02  0.55464474759E+02  0.10583860131E+03  0.41800000000E+01 0. -1.
         -5    1    3    3    0  502  0.92739260799E+01 -0.74397055466E+02  0.18419793312E+03  0.19891525465E+03  0.41800000000E+01 0. -1.
        -11    1    1    2    0    0  0.82719640875E+02  0.87914226874E+02  0.21312958251E+03  0.24494013394E+03  0.00000000000E+00 0.  1.
         11    1    1    2    0    0 -0.17146829751E+02  0.36542743670E+02  0.14281665488E+03  0.14841153189E+03  0.00000000000E+00 0. -1.
</event>
<event>
 7    1  0.2690635E-009  0.1176731E+03  0.7561462E-02  0.1246986E+00
         -1   -1    0    0    0  501 -0.00000000000E+00  0.00000000000E+00  0.36879899298E+02  0.36879899298E+02  0.00000000000E+00 0.  1.
          1   -1    0    0  501    0  0.00000000000E+00 -0.00000000000E+00 -0.74443610834E+03  0.74443610834E+03  0.00000000000E+00 0. -1.
         25    2    1    2    0    0  0.10006779082E+03  0.74437270598E+01 -0.48019535344E+03  0.50626402490E+03  0.12508682427E+03 0.  0.
          5    1    3    3  502    0 -0.13975931802E+02 -0.29843005629E+01 -0.26028053400E+01  0.15115545483E+02  0.41800000000E+01 0. -1.
         -5    1    3    3    0  502  0.11404372263E+03  0.10428027623E+02 -0.47759254810E+03  0.49114847942E+03  0.41800000000E+01 0. -1.
        -11    1    1    2    0    0 -0.50325401085E+02 -0.20646589577E+02 -0.14833675981E+02  0.56382316364E+02  0.00000000000E+00 0.  1.
         11    1    1    2    0    0 -0.49742389739E+02  0.13202862517E+02 -0.21252717961E+03  0.21866966637E+03  0.00000000000E+00 0. -1.
</event>
<event>
 7    1  0.2690635E-009  0.8274797E+02  0.7561462E-02  0.1321429E+00
         -3   -1    0    0    0  501 -0.00000000000E+00  0.00000000000E+00  0.36203554134E+03  0.36203554134E+03  0.00000000000E+00 0.  1.
          3   -1    0    0  501    0  0.00000000000E+00 -0.00000000000E+00 -0.36579644741E+02  0.36579644741E+02  0.00000000000E+00 0. -1.
         25    2    1    2    0    0  0.14957593887E+02  0.32680910622E+02  0.20384777501E+03  0.24185499587E+03  0.12509257417E+03 0.  0.
          5    1    3    3  502    0  0.56767953735E+02  0.55688006165E+01  0.17503404240E+03  0.18414125152E+03  0.41800000000E+01 0. -1.
         -5    1    3    3    0  502 -0.41810359848E+02  0.27112110006E+02  0.28813732616E+02  0.57713744350E+02  0.41800000000E+01 0. -1.
        -11    1    1    2    0    0 -0.30477285191E+02 -0.12753358363E+02  0.12674920737E+03  0.13098425337E+03  0.00000000000E+00 0.  1.
         11    1    1    2    0    0  0.15519691304E+02 -0.19927552260E+02 -0.51410857839E+01  0.25775936846E+02  0.00000000000E+00 0. -1.
</event>
<event>
 7    1  0.2690635E-009  0.5744669E+02  0.7561462E-02  0.1408870E+00
         -2   -1    0    0    0  501 -0.00000000000E+00  0.00000000000E+00  0.29813143928E+03  0.29813143928E+03  0.00000000000E+00 0.  1.
          2   -1    0    0  501    0  0.00000000000E+00 -0.00000000000E+00 -0.46682917830E+02  0.46682917830E+02  0.00000000000E+00 0. -1.
         25    2    1    2    0    0 -0.23790854501E+01 -0.28354278391E+02  0.22226396090E+03  0.25662919411E+03  0.12509056641E+03 0.  0.
          5    1    3    3  502    0  0.68852260726E+01 -0.14510894693E+02  0.23478798390E+03  0.23537383497E+03  0.41800000000E+01 0. -1.
         -5    1    3    3    0  502 -0.92643115228E+01 -0.13843383698E+02 -0.12524023003E+02  0.21255359145E+02  0.41800000000E+01 0. -1.
        -11    1    1    2    0    0  0.32462506598E+02 -0.84927502689E+01  0.21882970956E+02  0.40060024459E+02  0.00000000000E+00 0.  1.
         11    1    1    2    0    0 -0.30083421148E+02  0.36847028660E+02  0.73015895984E+01  0.48125138542E+02  0.00000000000E+00 0. -1.
</event>
<event>
 7    1  0.2690635E-009  0.4688927E+02  0.7561462E-02  0.1462881E+00
          2   -1    0    0  501    0  0.00000000000E+00  0.00000000000E+00  0.14104236172E+03  0.14104236172E+03  0.00000000000E+00 0. -1.
         -2   -1    0    0    0  501 -0.00000000000E+00 -0.00000000000E+00 -0.97591138588E+02  0.97591138588E+02  0.00000000000E+00 0.  1.
         25    2    1    2    0    0 -0.12228974178E+02  0.66831067519E+01 -0.18440545550E+02  0.12721029925E+03  0.12509274476E+03 0.  0.
          5    1    3    3  502    0  0.13220131406E+02 -0.49251167560E+01 -0.68311395661E+02  0.69878092609E+02  0.41800000000E+01 0. -1.
         -5    1    3    3    0  502 -0.25449105583E+02  0.11608223508E+02  0.49870850112E+02  0.57332206646E+02  0.41800000000E+01 0. -1.
        -11    1    1    2    0    0 -0.11361599005E+01  0.20478840848E+02 -0.17179901164E+02  0.26754864713E+02  0.00000000000E+00 0.  1.
         11    1    1    2    0    0  0.13365134078E+02 -0.27161947600E+02  0.79071669848E+02  0.84668336341E+02  0.00000000000E+00 0. -1.
</event>
<event>
 7    1  0.2690635E-009  0.1003287E+03  0.7561462E-02  0.1279606E+00
          1   -1    0    0  501    0  0.00000000000E+00  0.00000000000E+00  0.37251415231E+03  0.37251415231E+03  0.00000000000E+00 0. -1.
         -1   -1    0    0    0  501 -0.00000000000E+00 -0.00000000000E+00 -0.38780118700E+02  0.38780118700E+02  0.00000000000E+00 0.  1.
         25    2    1    2    0    0  0.43934728848E+02  0.24771410814E+02  0.20199831531E+03  0.24288772996E+03  0.12508895549E+03 0.  0.
          5    1    3    3  502    0  0.68438669450E+00  0.53568645239E+02  0.17718695030E+03  0.18515603121E+03  0.41800000000E+01 0. -1.
         -5    1    3    3    0  502  0.43250342154E+02 -0.28797234425E+02  0.24811365008E+02  0.57731698749E+02  0.41800000000E+01 0. -1.
        -11    1    1    2    0    0  0.23645574666E+02 -0.96695220831E+01  0.73876667914E+02  0.78168887166E+02  0.00000000000E+00 0. -1.
         11    1    1    2    0    0 -0.67580303515E+02 -0.15101888731E+02  0.57859050386E+02  0.90237653881E+02  0.00000000000E+00 0.  1.
</event>
<event>
 7    1  0.2690635E-009  0.1024089E+03  0.7561462E-02  0.1275310E+00
         -1   -1    0    0    0  501 -0.00000000000E+00  0.00000000000E+00  0.38901383670E+02  0.38901383670E+02  0.00000000000E+00 0.  1.
          1   -1    0    0  501    0  0.00000000000E+00 -0.00000000000E+00 -0.45968212986E+03  0.45968212986E+03  0.00000000000E+00 0. -1.
         25    2    1    2    0    0  0.60543548500E+02 -0.46641769217E+02 -0.25618547116E+03  0.29516044922E+03  0.12509084398E+03 0.  0.
          5    1    3    3  502    0 -0.15753017556E+02 -0.86387445900E+00 -0.17143340472E+03  0.17220856104E+03  0.41800000000E+01 0. -1.
         -5    1    3    3    0  502  0.76296566056E+02 -0.45777894758E+02 -0.84752066440E+02  0.12295188818E+03  0.41800000000E+01 0. -1.
        -11    1    1    2    0    0  0.13548716756E+02  0.50850807247E+01  0.36698590848E+01  0.14929622815E+02  0.00000000000E+00 0.  1.
         11    1    1    2    0    0 -0.74092265256E+02  0.41556688492E+02 -0.16826513411E+03  0.18849344150E+03  0.00000000000E+00 0. -1.
</event>
<event>
 7    1  0.2690635E-009  0.1506058E+03  0.7561462E-02  0.1199731E+00
         -2   -1    0    0    0  501 -0.00000000000E+00  0.00000000000E+00  0.12609313826E+03  0.12609313826E+03  0.00000000000E+00 0.  1.
          2   -1    0    0  501    0  0.00000000000E+00 -0.00000000000E+00 -0.20170587596E+03  0.20170587596E+03  0.00000000000E+00 0. -1.
         25    2    1    2    0    0 -0.99995660402E+02  0.56243146360E+02 -0.60802606616E+02  0.18030082955E+03  0.12509599735E+03 0.  0.
          5    1    3    3  502    0 -0.45116529129E+02 -0.28415075945E+02 -0.58549197419E+02  0.79299424084E+02  0.41800000000E+01 0. -1.
         -5    1    3    3    0  502 -0.54879131273E+02  0.84658222306E+02 -0.22534091973E+01  0.10100140547E+03  0.41800000000E+01 0. -1.
        -11    1    1    2    0    0  0.10004877529E+03 -0.10041885407E+02 -0.10174258443E+02  0.10106489220E+03  0.00000000000E+00 0.  1.
         11    1    1    2    0    0 -0.53114891809E-01 -0.46201260954E+02 -0.46358726360E+01  0.46433292474E+02  0.00000000000E+00 0. -1.
</event>
<event>
 7    1  0.2690635E-009  0.2037493E+03  0.7561462E-02  0.1146614E+00
          2   -1    0    0  501    0  0.00000000000E+00  0.00000000000E+00  0.39848272417E+03  0.39848272417E+03  0.00000000000E+00 0. -1.
         -2   -1    0    0    0  501 -0.00000000000E+00 -0.00000000000E+00 -0.16538050057E+03  0.16538050057E+03  0.00000000000E+00 0.  1.
         25    2    1    2    0    0  0.73223582502E+02  0.16697934824E+03  0.27445713687E+03  0.35244665183E+03  0.12509247233E+03 0.  0.
          5    1    3    3  502    0  0.99894324772E+02  0.77157444258E+02  0.17412828151E+03  0.21510527224E+03  0.41800000000E+01 0.  1.
         -5    1    3    3    0  502 -0.26670742271E+02  0.89821903985E+02  0.10032885536E+03  0.13734137959E+03  0.41800000000E+01 0.  1.
        -11    1    1    2    0    0 -0.51869572240E+02 -0.15382588258E+03  0.83184968686E+00  0.16233775485E+03  0.00000000000E+00 0. -1.
         11    1    1    2    0    0 -0.21354010262E+02 -0.13153465660E+02 -0.42186762951E+02  0.49078818052E+02  0.00000000000E+00 0.  1.
</event>
<event>
 7    1  0.2690635E-009  0.6477660E+02  0.7561462E-02  0.1378814E+00
         -2   -1    0    0    0  501 -0.00000000000E+00  0.00000000000E+00  0.47822643661E+02  0.47822643661E+02  0.00000000000E+00 0.  1.
          2   -1    0    0  501    0  0.00000000000E+00 -0.00000000000E+00 -0.29558617023E+03  0.29558617023E+03  0.00000000000E+00 0. -1.
         25    2    1    2    0    0 -0.28585052346E+02  0.31466353968E+02 -0.98942586787E+02  0.16505994232E+03  0.12509161614E+03 0.  0.
          5    1    3    3  502    0 -0.19590772704E+02  0.45976125545E+02  0.12949900723E+02  0.51795509689E+02  0.41800000000E+01 0.  1.
         -5    1    3    3    0  502 -0.89942796425E+01 -0.14509771577E+02 -0.11189248751E+03  0.11326443263E+03  0.41800000000E+01 0.  1.
        -11    1    1    2    0    0  0.34840097475E+02 -0.56888498734E+01 -0.95445213179E+01  0.36569020935E+02  0.00000000000E+00 0.  1.
         11    1    1    2    0    0 -0.62550451291E+01 -0.25777504095E+02 -0.13927641847E+03  0.14177985064E+03  0.00000000000E+00 0. -1.
</event>
<event>
 7    1  0.2690635E-009  0.8631217E+02  0.7561462E-02  0.1312036E+00
         -1   -1    0    0    0  501 -0.00000000000E+00  0.00000000000E+00  0.30163332720E+03  0.30163332720E+03  0.00000000000E+00 0. -1.
          1   -1    0    0  501    0  0.00000000000E+00 -0.00000000000E+00 -0.42599965178E+02  0.42599965178E+02  0.00000000000E+00 0.  1.
         25    2    1    2    0    0 -0.39281232269E+01  0.50724731021E+01  0.14071026158E+03  0.18838349764E+03  0.12509118409E+03 0.  0.
          5    1    3    3  502    0 -0.39230614302E+02  0.82022067334E+01 -0.29049578544E+01  0.40400847441E+02  0.41800000000E+01 0. -1.
         -5    1    3    3    0  502  0.35302491076E+02 -0.31297336313E+01  0.14361521943E+03  0.14798265020E+03  0.41800000000E+01 0. -1.
        -11    1    1    2    0    0  0.42202117874E+02 -0.29270791195E+02  0.38912377642E+02  0.64435790551E+02  0.00000000000E+00 0.  1.
         11    1    1    2    0    0 -0.38273994647E+02  0.24198318093E+02  0.79410722806E+02  0.91414004186E+02  0.00000000000E+00 0. -1.
</event>
<event>
 7    1  0.2690635E-009  0.1043378E+03  0.7561462E-02  0.1271430E+00
          1   -1    0    0  501    0  0.00000000000E+00  0.00000000000E+00  0.17575612716E+03  0.17575612716E+03  0.00000000000E+00 0.  1.
         -1   -1    0    0    0  501 -0.00000000000E+00 -0.00000000000E+00 -0.76605825166E+02  0.76605825166E+02  0.00000000000E+00 0. -1.
         25    2    1    2    0    0 -0.27407936572E+02 -0.34230682813E+02  0.52880539586E+02  0.14271154341E+03  0.12508916229E+03 0.  0.
          5    1    3    3  502    0 -0.54286701890E+02  0.28419199200E+02  0.10439433079E+02  0.62298884807E+02  0.41800000000E+01 0.  1.
         -5    1    3    3    0  502  0.26878765318E+02 -0.62649882013E+02  0.42441106507E+02  0.80412658598E+02  0.41800000000E+01 0.  1.
        -11    1    1    2    0    0 -0.21664843031E+02  0.66384709250E+01  0.48262621746E+02  0.53317120867E+02  0.00000000000E+00 0.  1.
         11    1    1    2    0    0  0.49072779603E+02  0.27592211888E+02 -0.19928593349E+01  0.56333288056E+02  0.00000000000E+00 0. -1.
</event>
<event>
 7    1  0.2690635E-009  0.9357200E+02  0.7561462E-02  0.1294425E+00
         -4   -1    0    0    0  501 -0.00000000000E+00  0.00000000000E+00  0.12157385653E+03  0.12157385653E+03  0.00000000000E+00 0.  1.
          4   -1    0    0  501    0  0.00000000000E+00 -0.00000000000E+00 -0.96986611143E+02  0.96986611143E+02  0.00000000000E+00 0. -1.
         25    2    1    2    0    0 -0.25169038717E+01 -0.78362503638E+01  0.30477169237E+01  0.12539725756E+03  0.12508973579E+03 0.  0.
          5    1    3    3  502    0 -0.63261437199E+02 -0.57210549103E+01  0.85310337574E+01  0.64226091604E+02  0.41800000000E+01 0. -1.
         -5    1    3    3    0  502  0.60744533327E+02 -0.21151954534E+01 -0.54833168337E+01  0.61171165956E+02  0.41800000000E+01 0. -1.
        -11    1    1    2    0    0 -0.26964348142E+02 -0.92264836089E+01  0.43955731912E+02  0.52386166480E+02  0.00000000000E+00 0.  1.
         11    1    1    2    0    0  0.29481252014E+02  0.17062733973E+02 -0.22416203445E+02  0.40777043637E+02  0.00000000000E+00 0. -1.
</event>
<event>
 7    1  0.2690635E-009  0.1787953E+03  0.7561462E-02  0.1168974E+00
          3   -1    0    0  501    0  0.00000000000E+00  0.00000000000E+00  0.42292860741E+02  0.42292860741E+02  0.00000000000E+00 0. -1.
         -3   -1    0    0    0  501 -0.00000000000E+00 -0.00000000000E+00 -0.10143589488E+04  0.10143589488E+04  0.00000000000E+00 0.  1.
         25    2    1    2    0    0  0.13560739042E+03 -0.97690074154E+02 -0.35754592039E+03  0.41402578859E+03  0.12508218703E+03 0.  0.
          5    1    3    3  502    0  0.79721132436E+02 -0.10043956825E+03 -0.32441659107E+03  0.34886553683E+03  0.41800000000E+01 0.  1.
         -5    1    3    3    0  502  0.55886257981E+02  0.27494940933E+01 -0.33129329318E+02  0.65160251764E+02  0.41800000000E+01 0.  1.
        -11    1    1    2    0    0 -0.13393961880E+03  0.81252438221E+02 -0.60157003489E+03  0.62163356334E+03  0.00000000000E+00 0.  1.
         11    1    1    2    0    0 -0.16677716202E+01  0.16437635934E+02 -0.12950132791E+02  0.20992457611E+02  0.00000000000E+00 0. -1.
</event>
<event>
 7    1  0.2690635E-009  0.1142640E+03  0.7561462E-02  0.1252871E+00
         -1   -1    0    0    0  501 -0.00000000000E+00  0.00000000000E+00  0.66844931177E+03  0.66844931177E+03  0.00000000000E+00 0.  1.
          1   -1    0    0  501    0  0.00000000000E+00 -0.00000000000E+00 -0.27125932186E+02  0.27125932186E+02  0.00000000000E+00 0. -1.
         25    2    1    2    0    0 -0.37118833156E+02 -0.59743113811E+02  0.45756747830E+03  0.47954498808E+03  0.12509336902E+03 0.  0.
          5    1    3    3  502    0 -0.66080477264E+02 -0.76761446378E+02  0.25935251076E+03  0.27846031380E+03  0.41800000000E+01 0. -1.
         -5    1    3    3    0  502  0.28961644108E+02  0.17018332566E+02  0.19821496754E+03  0.20108467428E+03  0.41800000000E+01 0. -1.
        -11    1    1    2    0    0  0.48502428480E+02  0.20875144596E+02  0.16129478933E+03  0.16971819671E+03  0.00000000000E+00 0.  1.
         11    1    1    2    0    0 -0.11383595324E+02  0.38867969215E+02  0.22461111951E+02  0.46312059158E+02  0.00000000000E+00 0. -1.
</event>
<event>
 7    1  0.2690635E-009  0.1121407E+03  0.7561462E-02  0.1256656E+00
         -3   -1    0    0    0  501 -0.00000000000E+00  0.00000000000E+00  0.21976627751E+03  0.21976627751E+03  0.00000000000E+00 0.  1.
          3   -1    0    0  501    0  0.00000000000E+00 -0.00000000000E+00 -0.78588073710E+02  0.78588073710E+02  0.00000000000E+00 0. -1.
         25    2    1    2    0    0  0.12280707664E+02 -0.58991654451E+02  0.12402600805E+03  0.18617521966E+03  0.12509168904E+03 0.  0.
          5    1    3    3  502    0 -0.42441735741E+02 -0.68687737131E+02  0.89520559578E+02  0.12062632031E+03  0.41800000000E+01 0. -1.
         -5    1    3    3    0  502  0.54722443405E+02  0.96960826804E+01  0.34505448470E+02  0.65548899348E+02  0.41800000000E+01 0. -1.
        -11    1    1    2    0    0 -0.17960372647E+02 -0.85693612424E+01  0.36587461613E+02  0.41649145069E+02  0.00000000000E+00 0.  1.
         11    1    1    2    0    0  0.56796649831E+01  0.67561015693E+02 -0.19435265857E+02  0.70529986494E+02  0.00000000000E+00 0. -1.
</event>
<event>
 7    1  0.2690635E-009  0.9613027E+02  0.7561462E-02  0.1288651E+00
          2   -1    0    0  501    0  0.00000000000E+00  0.00000000000E+00  0.10882301919E+03  0.10882301919E+03  0.00000000000E+00 0.  1.
         -2   -1    0    0    0  501 -0.00000000000E+00 -0.00000000000E+00 -0.15827237347E+03  0.15827237347E+03  0.00000000000E+00 0. -1.
         25    2    1    2    0    0 -0.12396592701E+02 -0.23355483231E+01 -0.96450437760E+02  0.15845858232E+03  0.12508918846E+03 0.  0.
          5    1    3    3  502    0 -0.52717187736E+02 -0.11332879913E+02 -0.69511150260E+00  0.54087814061E+02  0.41800000000E+01 0.  1.
         -5    1    3    3    0  502  0.40320595035E+02  0.89973315894E+01 -0.95755326257E+02  0.10437076826E+03  0.41800000000E+01 0.  1.
        -11    1    1    2    0    0 -0.29809026799E+02 -0.30898940829E+02  0.12216089724E+02  0.44638049590E+02  0.00000000000E+00 0.  1.
         11    1    1    2    0    0  0.42205619501E+02  0.33234489152E+02  0.34784993764E+02  0.63998760752E+02  0.00000000000E+00 0. -1.
</event>
<event>
 7    1  0.2690635E-009  0.1210614E+03  0.7561462E-02  0.1241356E+00
          2   -1    0    0  501    0  0.00000000000E+00  0.00000000000E+00  0.91544478929E+02  0.91544478929E+02  0.00000000000E+00 0. -1.
         -2   -1    0    0    0  501 -0.00000000000E+00 -0.00000000000E+00 -0.17419450745E+03  0.17419450745E+03  0.00000000000E+00 0.  1.
         25    2    1    2    0    0  0.38945104157E+02  0.52158595012E+02 -0.49510494239E+02  0.14945237981E+03  0.12508990615E+03 0.  0.
          5    1    3    3  502    0  0.82153835471E+02  0.24798101567E+02 -0.47334348568E+02  0.98092871699E+02  0.41800000000E+01 0. -1.
         -5    1    3    3    0  502 -0.43208731314E+02  0.27360493445E+02 -0.21761456707E+01  0.51359508110E+02  0.41800000000E+01 0. -1.
        -11    1    1    2    0    0 -0.27058389195E+02  0.18798113162E+02  0.73119284305E+01  0.33748922674E+02  0.00000000000E+00 0. -1.
         11    1    1    2    0    0 -0.11886714961E+02 -0.70956708174E+02 -0.40451462718E+02  0.82537683899E+02  0.00000000000E+00 0.  1.
</event>
<event>
 7    1  0.2690635E-009  0.1108334E+03  0.7561462E-02  0.1259034E+00
          1   -1    0    0  501    0  0.00000000000E+00  0.00000000000E+00  0.62692047369E+03  0.62692047369E+03  0.00000000000E+00 0. -1.
         -1   -1    0    0    0  501 -0.00000000000E+00 -0.00000000000E+00 -0.33797313323E+02  0.33797313323E+02  0.00000000000E+00 0.  1.
         25    2    1    2    0    0  0.86335827041E+02  0.43518072070E+01  0.41756252498E+03  0.44438646195E+03  0.12509217417E+03 0.  0.
          5    1    3    3  502    0  0.60914519395E+02  0.23601954541E+02  0.40435559266E+03  0.40962000518E+03  0.41800000000E+01 0. -1.
         -5    1    3    3    0  502  0.25421307645E+02 -0.19250147334E+02  0.13206932322E+02  0.34766456767E+02  0.41800000000E+01 0. -1.
        -11    1    1    2    0    0 -0.58380440127E+02  0.40600263051E+02  0.79591236366E+02  0.10673060506E+03  0.00000000000E+00 0.  1.
         11    1    1    2    0    0 -0.27955386914E+02 -0.44952070258E+02  0.95969399022E+02  0.10960072001E+03  0.00000000000E+00 0. -1.
</event>
<event>
 7    1  0.2690635E-009  0.1260183E+03  0.7561462E-02  0.1233486E+00
          1   -1    0    0  501    0  0.00000000000E+00  0.00000000000E+00  0.94591001066E+02  0.94591001066E+02  0.00000000000E+00 0. -1.
         -1   -1    0    0    0  501 -0.00000000000E+00 -0.00000000000E+00 -0.19996150600E+03  0.19996150600E+03  0.00000000000E+00 0.  1.
         25    2    1    2    0    0 -0.62093414893E+02  0.54384488633E+02 -0.78416612084E+02  0.16914785122E+03  0.12509422746E+03 0.  0.
          5    1    3    3  502    0 -0.56089650078E+02 -0.29220384536E+02 -0.18490997858E+02  0.66024761416E+02  0.41800000000E+01 0.  1.
         -5    1    3    3    0  502 -0.60037648146E+01  0.83604873168E+02 -0.59925614227E+02  0.10312308980E+03  0.41800000000E+01 0.  1.
        -11    1    1    2    0    0  0.74946064975E+02 -0.53020836040E+02  0.39677531869E+01  0.91890504270E+02  0.00000000000E+00 0. -1.
         11    1    1    2    0    0 -0.12852650082E+02 -0.13636525924E+01 -0.30921646040E+02  0.33514151584E+02  0.00000000000E+00 0.  1.
</event>
<event>
 7    1  0.2690635E-009  0.8538901E+02  0.7561462E-02  0.1314418E+00
          1   -1    0    0  501    0  0.00000000000E+00  0.00000000000E+00  0.61319230721E+03  0.61319230721E+03  0.00000000000E+00 0. -1.
         -1   -1    0    0    0  501 -0.00000000000E+00 -0.00000000000E+00 -0.21946790249E+02  0.21946790249E+02  0.00000000000E+00 0.  1.
         25    2    1    2    0    0 -0.14662022289E+02 -0.33538914456E+02  0.28990507571E+03  0.31785601006E+03  0.12509059329E+03 0.  0.
          5    1    3    3  502    0  0.13911212595E+02  0.21542818067E+02  0.23013967150E+03  0.23160171771E+03  0.41800000000E+01 0.  1.
         -5    1    3    3    0  502 -0.28573234884E+02 -0.55081732523E+02  0.59765404209E+02  0.86254292355E+02  0.41800000000E+01 0.  1.
        -11    1    1    2    0    0 -0.29838446160E+02  0.20603731828E+02  0.50337734336E+02  0.62038166741E+02  0.00000000000E+00 0.  1.
         11    1    1    2    0    0  0.44500468449E+02  0.12935182628E+02  0.25100270691E+03  0.25524492066E+03  0.00000000000E+00 0. -1.
</event>
<event>
 7    1  0.2690635E-009  0.1142159E+03  0.7561462E-02  0.1252956E+00
          1   -1    0    0  501    0  0.00000000000E+00  0.00000000000E+00  0.23247836986E+03  0.23247836986E+03  0.00000000000E+00 0. -1.
         -1   -1    0    0    0  501 -0.00000000000E+00 -0.00000000000E+00 -0.12067029106E+03  0.12067029106E+03  0.00000000000E+00 0.  1.
         25    2    1    2    0    0 -0.19897417989E+02  0.75683934789E+02 -0.47231535158E+02  0.15492538438E+03  0.12508833512E+03 0.  0.
          5    1    3    3  502    0 -0.52241342441E+02 -0.29726106263E+01 -0.45954961582E+02  0.69766217957E+02  0.41800000000E+01 0.  1.
         -5    1    3    3    0  502  0.32343924452E+02  0.78656545415E+02 -0.12765735761E+01  0.85159166422E+02  0.41800000000E+01 0.  1.
        -11    1    1    2    0    0  0.32826336550E+02 -0.34489841831E+02  0.18299796361E+02  0.51009804035E+02  0.00000000000E+00 0.  1.
         11    1    1    2    0    0 -0.12928918561E+02 -0.41194092958E+02  0.14073981759E+03  0.14721347250E+03  0.00000000000E+00 0. -1.
</event>
<event>
 7    1  0.2690635E-009  0.1090826E+03  0.7561462E-02  0.1262278E+00
         -1   -1    0    0    0  501 -0.00000000000E+00  0.00000000000E+00  0.41294815708E+02  0.41294815708E+02  0.00000000000E+00 0.  1.
          1   -1    0    0  501    0  0.00000000000E+00 -0.00000000000E+00 -0.49601259467E+03  0.49601259467E+03  0.00000000000E+00 0. -1.
         25    2    1    2    0    0  0.63320238130E+02 -0.64322156464E+02 -0.29082650518E+03  0.32920376796E+03  0.12509305479E+03 0.  0.
          5    1    3    3  502    0  0.28623790712E+02 -0.30297242761E+02 -0.85611022719E+01  0.42755224076E+02  0.41800000000E+01 0. -1.
         -5    1    3    3    0  502  0.34696447418E+02 -0.34024913703E+02 -0.28226540291E+03  0.28644854389E+03  0.41800000000E+01 0. -1.
        -11    1    1    2    0    0 -0.34640928009E+02 -0.18909946085E+02 -0.61451375797E+02  0.73033222178E+02  0.00000000000E+00 0.  1.
         11    1    1    2    0    0 -0.28679310121E+02  0.83232102549E+02 -0.10243989798E+03  0.13507042024E+03  0.00000000000E+00 0. -1.
</event>
<event>
 7    1  0.2690635E-009  0.1067949E+03  0.7561462E-02  0.1266623E+00
         -3   -1    0    0    0  501 -0.00000000000E+00  0.00000000000E+00  0.44684523011E+02  0.44684523011E+02  0.00000000000E+00 0.  1.
          3   -1    0    0  501    0  0.00000000000E+00 -0.00000000000E+00 -0.52771121287E+03  0.52771121287E+03  0.00000000000E+00 0. -1.
         25    2    1    2    0    0 -0.23657797366E+02 -0.13490151318E+02 -0.65078153392E+02  0.14361360701E+03  0.12509207213E+03 0.  0.
          5    1    3    3  502    0 -0.19354765044E+01 -0.63959842523E+02 -0.60760967272E+02  0.88340110192E+02  0.41800000000E+01 0.  1.
         -5    1    3    3    0  502 -0.21722320861E+02  0.50469691205E+02 -0.43171861197E+01  0.55273496813E+02  0.41800000000E+01 0.  1.
        -11    1    1    2    0    0  0.33017226261E+02 -0.33151408721E+02 -0.24402878145E+03  0.24847373967E+03  0.00000000000E+00 0.  1.
         11    1    1    2    0    0 -0.93594288958E+01  0.46641560039E+02 -0.17391975501E+03  0.18030838920E+03  0.00000000000E+00 0. -1.
</event>
<event>
 7    1  0.2690635E-009  0.1070172E+03  0.7561462E-02  0.1266195E+00
          2   -1    0    0  501    0  0.00000000000E+00  0.00000000000E+00  0.23292121166E+02  0.23292121166E+02  0.00000000000E+00 0.  1.
         -2   -1    0    0    0  501 -0.00000000000E+00 -0.00000000000E+00 -0.66552420780E+03  0.66552420780E+03  0.00000000000E+00 0. -1.
         25    2    1    2    0    0 -0.29106477518E+02 -0.36571814042E+02 -0.45370809833E+03  0.47295286180E+03  0.12509470965E+03 0.  0.
          5    1    3    3  502    0  0.11043859802E+02 -0.76092444786E+02 -0.25555834274E+03  0.26690741079E+03  0.41800000000E+01 0. -1.
         -5    1    3    3    0  502 -0.40150337320E+02  0.39520630744E+02 -0.19814975559E+03  0.20604545101E+03  0.41800000000E+01 0. -1.
        -11    1    1    2    0    0 -0.17874413817E+02 -0.41679334933E+01 -0.10933650768E+01  0.18386456594E+02  0.00000000000E+00 0.  1.
         11    1    1    2    0    0  0.46980891335E+02  0.40739747535E+02 -0.18743062322E+03  0.19747701057E+03  0.00000000000E+00 0. -1.
</event>
<event>
 7    1  0.2690635E-009  0.1044911E+03  0.7561462E-02  0.1271125E+00
          2   -1    0    0  501    0  0.00000000000E+00  0.00000000000E+00  0.10264336801E+04  0.10264336801E+04  0.00000000000E+00 0. -1.
         -2   -1    0    0    0  501 -0.00000000000E+00 -0.00000000000E+00 -0.14287239665E+02  0.14287239665E+02  0.00000000000E+00 0.  1.
         25    2    1    2    0    0 -0.30512644704E+02  0.30301484621E+02  0.70334582198E+03  0.71567589685E+03  0.12508973805E+03 0.  0.
          5    1    3    3  502    0 -0.33710571701E-02 -0.39804512562E+02  0.10360801337E+03  0.11106976216E+03  0.41800000000E+01 0.  1.
         -5    1    3    3    0  502 -0.30509273647E+02  0.70105997183E+02  0.59973780861E+03  0.60460613468E+03  0.41800000000E+01 0.  1.
        -11    1    1    2    0    0  0.35434789519E+02  0.20774206978E+02  0.20708665109E+03  0.21112099148E+03  0.00000000000E+00 0. -1.
         11    1    1    2    0    0 -0.49221448151E+01 -0.51075691599E+02  0.10171396732E+03  0.11392403139E+03  0.00000000000E+00 0.  1.
</event>
<event>
 7    1  0.2690635E-009  0.8761150E+02  0.7561462E-02  0.1308741E+00
         -3   -1    0    0    0  501 -0.00000000000E+00  0.00000000000E+00  0.65948885213E+02  0.65948885213E+02  0.00000000000E+00 0.  1.
          3   -1    0    0  501    0  0.00000000000E+00 -0.00000000000E+00 -0.23409015547E+03  0.23409015547E+03  0.00000000000E+00 0. -1.
         25    2    1    2    0    0 -0.14353354478E+02 -0.52571567444E+02 -0.59948902860E+02  0.14903438064E+03  0.12509031606E+03 0.  0.
          5    1    3    3  502    0  0.34137301367E+02 -0.37791227510E+02  0.19504480849E+02  0.54693961226E+02  0.41800000000E+01 0.  1.
         -5    1    3    3    0  502 -0.48490655845E+02 -0.14780339934E+02 -0.79453383709E+02  0.94340419416E+02  0.41800000000E+01 0.  1.
        -11    1    1    2    0    0  0.30310837114E+02  0.47807001654E+02 -0.11856522361E+03  0.13138481078E+03  0.00000000000E+00 0. -1.
         11    1    1    2    0    0 -0.15957482636E+02  0.47645657898E+01  0.10372856210E+02  0.19619849265E+02  0.00000000000E+00 0.  1.
</event>
<event>
 7    1  0.2690635E-009  0.1282287E+03  0.7561462E-02  0.1230108E+00
         -2   -1    0    0    0  501 -0.00000000000E+00  0.00000000000E+00  0.16332693784E+02  0.16332693784E+02  0.00000000000E+00 0. -1.
          2   -1    0    0  501    0  0.00000000000E+00 -0.00000000000E+00 -0.10832252234E+04  0.10832252234E+04  0.00000000000E+00 0.  1.
         25    2    1    2    0    0 -0.69784786792E+02 -0.17740859904E+02 -0.71628747001E+03  0.73068454591E+03  0.12509001299E+03 0.  0.
          5    1    3    3  502    0 -0.66866270974E+01  0.50352884479E+02 -0.22709808226E+03  0.23274693408E+03  0.41800000000E+01 0. -1.
         -5    1    3    3    0  502 -0.63098159695E+02 -0.68093744383E+02 -0.48918938775E+03  0.49793761183E+03  0.41800000000E+01 0. -1.
        -11    1    1    2    0    0  0.25950203518E+02 -0.35262398555E+02 -0.17192763951E+03  0.17741466411E+03  0.00000000000E+00 0.  1.
         11    1    1    2    0    0  0.43834583274E+02  0.53003258460E+02 -0.17867742009E+03  0.19145870716E+03  0.00000000000E+00 0. -1.
</event>
<event>
 7    1  0.2690635E-009  0.1944435E+03  0.7561462E-02  0.1154514E+00
          1   -1    0    0  501    0  0.00000000000E+00  0.00000000000E+00  0.83784251972E+02  0.83784251972E+02  0.00000000000E+00 0.  1.
         -1   -1    0    0    0  501 -0.00000000000E+00 -0.00000000000E+00 -0.73454702476E+03  0.73454702476E+03  0.00000000000E+00 0. -1.
         25    2    1    2    0    0 -0.33575363816E+02  0.16738619742E+03 -0.57195217562E+03  0.60985435641E+03  0.12509037012E+03 0.  0.
          5    1    3    3  502    0  0.17026371147E+02  0.15926153929E+03 -0.43283101252E+03  0.46153471485E+03  0.41800000000E+01 0. -1.
         -5    1    3    3    0  502 -0.50601734963E+02  0.81246581295E+01 -0.13912116309E+03  0.14831964155E+03  0.41800000000E+01 0. -1.
        -11    1    1    2    0    0 -0.88324882388E+01 -0.75829925741E+02  0.61233334822E+01  0.76587764684E+02  0.00000000000E+00 0. -1.
         11    1    1    2    0    0  0.42407852055E+02 -0.91556271679E+02 -0.84933930659E+02  0.13188915564E+03  0.00000000000E+00 0.  1.
</event>
<event>
 7    1  0.2690635E-009  0.1324130E+03  0.7561462E-02  0.1223919E+00
         -4   -1    0    0    0  501 -0.00000000000E+00  0.00000000000E+00  0.19834575458E+03  0.19834575458E+03  0.00000000000E+00 0.  1.
          4   -1    0    0  501    0  0.00000000000E+00 -0.00000000000E+00 -0.11604603034E+03  0.11604603034E+03  0.00000000000E+00 0. -1.
         25    2    1    2    0    0  0.18947074398E+02 -0.96633874930E+02  0.87205874455E+02  0.18152119395E+03  0.12509189383E+03 0.  0.
          5    1    3    3  502    0  0.68473713707E+02 -0.81470836405E+02  0.66633124702E+02  0.12563276786E+03  0.41800000000E+01 0.  1.
         -5    1    3    3    0  502 -0.49526639309E+02 -0.15163038525E+02  0.20572749753E+02  0.55888426091E+02  0.41800000000E+01 0.  1.
        -11    1    1    2    0    0  0.15141228483E+01  0.79922880877E+02  0.33154392296E+02  0.86540009153E+02  0.00000000000E+00 0.  1.
         11    1    1    2    0    0 -0.20461197246E+02  0.16710994053E+02 -0.38060542516E+02  0.46330581818E+02  0.00000000000E+00 0. -1.
</event>
<event>
 7    1  0.2690635E-009  0.9840979E+02  0.7561462E-02  0.1283676E+00
          2   -1    0    0  501    0  0.00000000000E+00  0.00000000000E+00  0.19351005477E+02  0.19351005477E+02  0.00000000000E+00 0. -1.
         -2   -1    0    0    0  501 -0.00000000000E+00 -0.00000000000E+00 -0.92924003116E+03  0.92924003116E+03  0.00000000000E+00 0.  1.
         25    2    1    2    0    0  0.50104648683E+02  0.35848316937E+02 -0.67816804073E+03  0.69235462237E+03  0.12508978372E+03 0.  0.
          5    1    3    3  502    0  0.36935519427E+02 -0.10889740546E+02 -0.54925706467E+02  0.67209557917E+02  0.41800000000E+01 0. -1.
         -5    1    3    3    0  502  0.13169129256E+02  0.46738057483E+02 -0.62324233427E+03  0.62514506445E+03  0.41800000000E+01 0. -1.
        -11    1    1    2    0    0  0.87056516107E+01 -0.48430965836E+02 -0.10157274134E+03  0.11286438147E+03  0.00000000000E+00 0.  1.
         11    1    1    2    0    0 -0.58810300294E+02  0.12582648899E+02 -0.13014824361E+03  0.14337203280E+03  0.00000000000E+00 0. -1.
</event>
<event>
 7    1  0.2690635E-009  0.2717221E+03  0.7561462E-02  0.1100298E+00
         -2   -1    0    0    0  501 -0.00000000000E+00  0.00000000000E+00  0.20167940742E+03  0.20167940742E+03  0.00000000000E+00 0.  1.
          2   -1    0    0  501    0  0.00000000000E+00 -0.00000000000E+00 -0.77050948064E+03  0.77050948064E+03  0.00000000000E+00 0. -1.
         25    2    1    2    0    0 -0.24716385417E+03 -0.94489757168E+02 -0.62173703556E+03  0.68718563454E+03  0.12509544325E+03 0.  0.
          5    1    3    3  502    0 -0.20766215758E+03 -0.64831565423E+02 -0.58867108178E+03  0.62759685984E+03  0.41800000000E+01 0.  1.
         -5    1    3    3    0  502 -0.39501696586E+02 -0.29658191745E+02 -0.33065953784E+02  0.59588774701E+02  0.41800000000E+01 0.  1.
        -11    1    1    2    0    0  0.15972938244E+03  0.10037905629E+03  0.57588513825E+02  0.19724570333E+03  0.00000000000E+00 0.  1.
         11    1    1    2    0    0  0.87434471731E+02 -0.58892991223E+01 -0.46815514827E+01  0.87757550190E+02  0.00000000000E+00 0. -1.
</event>
<event>
 7    1  0.2690635E-009  0.1089142E+03  0.7561462E-02  0.1262594E+00
          2   -1    0    0  501    0  0.00000000000E+00  0.00000000000E+00  0.74344868058E+03  0.74344868058E+03  0.00000000000E+00 0. -1.
         -2   -1    0    0    0  501 -0.00000000000E+00 -0.00000000000E+00 -0.36775537634E+02  0.36775537634E+02  0.00000000000E+00 0.  1.
         25    2    1    2    0    0  0.66676620538E+02  0.63843828325E+02  0.58777642532E+03  0.60798654404E+03  0.12507879690E+03 0.  0.
          5    1    3    3  502    0  0.67694900536E+02  0.81827652584E+02  0.57674229136E+03  0.58645332920E+03  0.41800000000E+01 0. -1.
         -5    1    3    3    0  502 -0.10182799975E+01 -0.17983824259E+02  0.11034133956E+02  0.21533214839E+02  0.41800000000E+01 0. -1.
        -11    1    1    2    0    0 -0.27777591767E+02 -0.34706052909E+02  0.11521873590E+03  0.12349680893E+03  0.00000000000E+00 0. -1.
         11    1    1    2    0    0 -0.38899028771E+02 -0.29137775416E+02  0.36779817295E+01  0.48740865248E+02  0.00000000000E+00 0.  1.
</event>
<event>
 7    1  0.2690635E-009  0.1108128E+03  0.7561462E-02  0.1259072E+00
         -1   -1    0    0    0  501 -0.00000000000E+00  0.00000000000E+00  0.28598084655E+02  0.28598084655E+02  0.00000000000E+00 0.  1.
          1   -1    0    0  501    0  0.00000000000E+00 -0.00000000000E+00 -0.50555050069E+03  0.50555050069E+03  0.00000000000E+00 0. -1.
         25    2    1    2    0    0  0.22792849290E+02  0.45810260860E+02 -0.23054072999E+03  0.26723482966E+03  0.12508929619E+03 0.  0.
          5    1    3    3  502    0 -0.41118028838E+02  0.47573381695E+02 -0.68976998679E+02  0.93430282501E+02  0.41800000000E+01 0.  1.
         -5    1    3    3    0  502  0.63910878128E+02 -0.17631208346E+01 -0.16156373132E+03  0.17380454716E+03  0.41800000000E+01 0.  1.
        -11    1    1    2    0    0  0.17498349167E+02  0.14006705215E+02 -0.22854416987E+02  0.32011004208E+02  0.00000000000E+00 0. -1.
         11    1    1    2    0    0 -0.40291198457E+02 -0.59816966075E+02 -0.22355726905E+03  0.23490275148E+03  0.00000000000E+00 0.  1.
</event>
<event>
 7    1  0.2690635E-009  0.1626867E+03  0.7561462E-02  0.1185696E+00
         -2   -1    0    0    0  501 -0.00000000000E+00  0.00000000000E+00  0.98834812370E+02  0.98834812370E+02  0.00000000000E+00 0.  1.
          2   -1    0    0  501    0  0.00000000000E+00 -0.00000000000E+00 -0.31942950010E+03  0.31942950010E+03  0.00000000000E+00 0. -1.
         25    2    1    2    0    0 -0.15788361640E+02 -0.13069490189E+03 -0.59216375926E+02  0.19100901431E+03  0.12508970632E+03 0.  0.
          5    1    3    3  502    0  0.19857789267E+02 -0.13695201975E+03 -0.66918928380E+02  0.15377191839E+03  0.41800000000E+01 0. -1.
         -5    1    3    3    0  502 -0.35646150906E+02  0.62571178642E+01  0.77025524537E+01  0.37237095922E+02  0.41800000000E+01 0. -1.
        -11    1    1    2    0    0 -0.27649229397E+02  0.74520515229E+02 -0.46169448256E+02  0.91920645279E+02  0.00000000000E+00 0.  1.
         11    1    1    2    0    0  0.43437591037E+02  0.56174386658E+02 -0.11520886355E+03  0.13533465289E+03  0.00000000000E+00 0. -1.
</event>
<event>
 7    1  0.2690635E-009  0.1079506E+03  0.7561462E-02  0.1264413E+00
         -4   -1    0    0    0  501 -0.00000000000E+00  0.00000000000E+00  0.66799773242E+02  0.66799773242E+02  0.00000000000E+00 0.  1.
          4   -1    0    0  501    0  0.00000000000E+00 -0.00000000000E+00 -0.28743918860E+03  0.28743918860E+03  0.00000000000E+00 0. -1.
         25    2    1    2    0    0 -0.31394556674E+02 -0.53968911935E+02 -0.19515941677E+03  0.24006971166E+03  0.12509199359E+03 0.  0.
          5    1    3    3  502    0  0.20279045963E+02  0.30657186510E+02 -0.31107016056E+02  0.48334476699E+02  0.41800000000E+01 0.  1.
         -5    1    3    3    0  502 -0.51673602637E+02 -0.84626098444E+02 -0.16405240071E+03  0.19173523496E+03  0.41800000000E+01 0.  1.
        -11    1    1    2    0    0  0.88198484482E+01 -0.91021625526E+01  0.26502222799E+02  0.29376979135E+02  0.00000000000E+00 0.  1.
         11    1    1    2    0    0  0.22574708226E+02  0.63071074487E+02 -0.51982221393E+02  0.84792271047E+02  0.00000000000E+00 0. -1.
</event>
<event>
 7    1  0.2690635E-009  0.1299296E+03  0.7561462E-02  0.1227560E+00
         -3   -1    0    0    0  501 -0.00000000000E+00  0.00000000000E+00  0.42584515888E+03  0.42584515888E+03  0.00000000000E+00 0.  1.
          3   -1    0    0  501    0  0.00000000000E+00 -0.00000000000E+00 -0.58129231599E+02  0.58129231599E+02  0.00000000000E+00 0. -1.
         25    2    1    2    0    0 -0.63392233163E+02 -0.94488896592E+02  0.21271443793E+03  0.27174483725E+03  0.12510434709E+03 0.  0.
          5    1    3    3  502    0 -0.20006616145E+02 -0.48770307852E+02  0.32681477232E+01  0.52980758838E+02  0.41800000000E+01 0.  1.
         -5    1    3    3    0  502 -0.43385617019E+02 -0.45718588741E+02  0.20944629021E+03  0.21876407841E+03  0.41800000000E+01 0.  1.
        -11    1    1    2    0    0  0.69132584926E+01 -0.17265224976E+02  0.30017388740E+02  0.35311821863E+02  0.00000000000E+00 0.  1.
         11    1    1    2    0    0  0.56478974671E+02  0.11175412157E+03  0.12498410061E+03  0.17691773137E+03  0.00000000000E+00 0. -1.
</event>
<event>
 7    1  0.2690635E-009  0.1255131E+03  0.7561462E-02  0.1234269E+00
         -2   -1    0    0    0  501 -0.00000000000E+00  0.00000000000E+00  0.65274988771E+02  0.65274988771E+02  0.00000000000E+00 0.  1.
          2   -1    0    0  501    0  0.00000000000E+00 -0.00000000000E+00 -0.31974056186E+03  0.31974056186E+03  0.00000000000E+00 0. -1.
         25    2    1    2    0    0  0.93450622852E+02 -0.12265467097E+02 -0.15289979846E+03  0.21888147291E+03  0.12508912911E+03 0.  0.
          5    1    3    3  502    0  0.77005513159E+01  0.27464165328E+02 -0.11229478553E+03  0.11593606050E+03  0.41800000000E+01 0.  1.
         -5    1    3    3    0  502  0.85750071536E+02 -0.39729632425E+02 -0.40605012928E+02  0.10294541241E+03  0.41800000000E+01 0.  1.
        -11    1    1    2    0    0  0.75544864749E+00 -0.25932568203E+02 -0.38761318523E+02  0.46642347817E+02  0.00000000000E+00 0.  1.
         11    1    1    2    0    0 -0.94206071500E+02  0.38198035299E+02 -0.62804456109E+02  0.11949172990E+03  0.00000000000E+00 0. -1.
</event>
<event>
 7    1  0.2690635E-009  0.6045209E+02  0.7561462E-02  0.1395944E+00
          2   -1    0    0  501    0  0.00000000000E+00  0.00000000000E+00  0.97304770108E+02  0.97304770108E+02  0.00000000000E+00 0. -1.
         -2   -1    0    0    0  501 -0.00000000000E+00 -0.00000000000E+00 -0.15923418390E+03  0.15923418390E+03  0.00000000000E+00 0.  1.
         25    2    1    2    0    0 -0.23490244849E+02  0.10434003294E+02 -0.10495081974E+03  0.16529705811E+03  0.12509109811E+03 0.  0.
          5    1    3    3  502    0 -0.30464867621E+02  0.55965929563E+01  0.21855176533E+02  0.38138578279E+02  0.41800000000E+01 0.  1.
         -5    1    3    3    0  502  0.69746227714E+01  0.48374103379E+01 -0.12680599627E+03  0.12715847983E+03  0.41800000000E+01 0.  1.
        -11    1    1    2    0    0  0.51454389379E+02 -0.49645938540E+01  0.31302296068E+02  0.60432070274E+02  0.00000000000E+00 0.  1.
         11    1    1    2    0    0 -0.27964144529E+02 -0.54694094401E+01  0.11719109878E+02  0.30809825627E+02  0.00000000000E+00 0. -1.
</event>
<event>
 7    1  0.2690635E-009  0.9548434E+02  0.7561462E-02  0.1290089E+00
         -1   -1    0    0    0  501 -0.00000000000E+00  0.00000000000E+00  0.21366138390E+03  0.21366138390E+03  0.00000000000E+00 0.  1.
          1   -1    0    0  501    0  0.00000000000E+00 -0.00000000000E+00 -0.10243901327E+03  0.10243901327E+03  0.00000000000E+00 0. -1.
         25    2    1    2    0    0  0.10192076333E+02  0.63183705305E+02 -0.16003992488E+01  0.14050605283E+03  0.12507330078E+03 0.  0.
          5    1    3    3  502    0  0.31206510056E+02  0.48319637701E+02 -0.55869766428E+02  0.80296555706E+02  0.41800000000E+01 0. -1.
         -5    1    3    3    0  502 -0.21014433724E+02  0.14864067604E+02  0.54269367179E+02  0.60209497129E+02  0.41800000000E+01 0. -1.
        -11    1    1    2    0    0 -0.41720511647E+02 -0.63154358263E+02  0.12127104176E+03  0.14295362755E+03  0.00000000000E+00 0.  1.
         11    1    1    2    0    0  0.31528435315E+02 -0.29347042983E-01 -0.84482718814E+01  0.32640716788E+02  0.00000000000E+00 0. -1.
</event>
<event>
 7    1  0.2690635E-009  0.1080095E+03  0.7561462E-02  0.1264301E+00
         -1   -1    0    0    0  501 -0.00000000000E+00  0.00000000000E+00  0.12835044311E+03  0.12835044311E+03  0.00000000000E+00 0.  1.
          1   -1    0    0  501    0  0.00000000000E+00 -0.00000000000E+00 -0.11004786116E+03  0.11004786116E+03  0.00000000000E+00 0. -1.
         25    2    1    2    0    0  0.13687529762E+02 -0.69530434947E+01 -0.32756632257E+02  0.13021120072E+03  0.12508503728E+03 0.  0.
          5    1    3    3  502    0  0.26230667741E+02  0.53890408804E+02 -0.48785555774E+00  0.60082730416E+02  0.41800000000E+01 0.  1.
         -5    1    3    3    0  502 -0.12543137979E+02 -0.60843452299E+02 -0.32268776699E+02  0.70128470307E+02  0.41800000000E+01 0.  1.
        -11    1    1    2    0    0 -0.52773597382E+02 -0.44461190241E+01  0.18649745501E+02  0.56148317537E+02  0.00000000000E+00 0. -1.
         11    1    1    2    0    0  0.39086067620E+02  0.11399162519E+02  0.32409468705E+02  0.52038786015E+02  0.00000000000E+00 0.  1.
</event>
<event>
 7    1  0.2690635E-009  0.1844457E+03  0.7561462E-02  0.1163569E+00
          1   -1    0    0  501    0  0.00000000000E+00  0.00000000000E+00  0.14107946520E+03  0.14107946520E+03  0.00000000000E+00 0. -1.
         -1   -1    0    0    0  501 -0.00000000000E+00 -0.00000000000E+00 -0.37687557828E+03  0.37687557828E+03  0.00000000000E+00 0.  1.
         25    2    1    2    0    0 -0.94530420351E+02  0.12745444099E+03 -0.26319444707E+03  0.33181241861E+03  0.12509008466E+03 0.  0.
          5    1    3    3  502    0 -0.62821936577E+02 -0.70797646515E+01 -0.92812891900E+02  0.11237626122E+03  0.41800000000E+01 0.  1.
         -5    1    3    3    0  502 -0.31708483774E+02  0.13453420564E+03 -0.17038155517E+03  0.21943615739E+03  0.41800000000E+01 0.  1.
        -11    1    1    2    0    0  0.30813352783E+02 -0.79529823100E+01 -0.25471336101E+02  0.40761521072E+02  0.00000000000E+00 0.  1.
         11    1    1    2    0    0  0.63717067568E+02 -0.11950145868E+03  0.52869670096E+02  0.14538110380E+03  0.00000000000E+00 0. -1.
</event>
<event>
 7    1  0.2690635E-009  0.7512741E+02  0.7561462E-02  0.1343477E+00
         -1   -1    0    0    0  501 -0.00000000000E+00  0.00000000000E+00  0.77566424724E+02  0.77566424724E+02  0.00000000000E+00 0.  1.
          1   -1    0    0  501    0  0.00000000000E+00 -0.00000000000E+00 -0.29268367342E+03  0.29268367342E+03  0.00000000000E+00 0. -1.
         25    2    1    2    0    0  0.23060821401E+02 -0.81650731534E+01 -0.23914994683E+03  0.27099614179E+03  0.12509093450E+03 0.  0.
          5    1    3    3  502    0  0.29394005116E+02 -0.23112824140E+02 -0.24881646145E+03  0.25164521467E+03  0.41800000000E+01 0.  1.
         -5    1    3    3    0  502 -0.63331837144E+01  0.14947750987E+02  0.96665146241E+01  0.19350927123E+02  0.41800000000E+01 0.  1.
        -11    1    1    2    0    0 -0.30261870290E+02  0.47257042541E+02  0.94075971259E+01  0.56899136609E+02  0.00000000000E+00 0.  1.
         11    1    1    2    0    0  0.72010488889E+01 -0.39091969387E+02  0.14625101009E+02  0.42354819740E+02  0.00000000000E+00 0. -1.
</event>
<event>
 7    1  0.2690635E-009  0.9905602E+02  0.7561462E-02  0.1282294E+00
          2   -1    0    0  501    0  0.00000000000E+00  0.00000000000E+00  0.69818886978E+03  0.69818886978E+03  0.00000000000E+00 0. -1.
         -2   -1    0    0    0  501 -0.00000000000E+00 -0.00000000000E+00 -0.24514136446E+02  0.24514136446E+02  0.00000000000E+00 0.  1.
         25    2    1    2    0    0  0.47417837675E+02  0.51297552010E+02  0.44178283276E+03  0.46443497486E+03  0.12509150402E+03 0.  0.
          5    1    3    3  502    0  0.99608555288E+00 -0.80998425795E+01  0.32649843882E+03  0.32662716143E+03  0.41800000000E+01 0.  1.
         -5    1    3    3    0  502  0.46421752123E+02  0.59397394589E+02  0.11528439394E+03  0.13780781342E+03  0.41800000000E+01 0.  1.
        -11    1    1    2    0    0 -0.45456832648E+02  0.14424053749E+02  0.10622814842E+03  0.11644224524E+03  0.00000000000E+00 0.  1.
         11    1    1    2    0    0 -0.19610050272E+01 -0.65721605759E+02  0.12566375216E+03  0.14182578613E+03  0.00000000000E+00 0. -1.
</event>
<event>
 7    1  0.2690635E-009  0.1291061E+03  0.7561462E-02  0.1228788E+00
          2   -1    0    0  501    0  0.00000000000E+00  0.00000000000E+00  0.43057848981E+03  0.43057848981E+03  0.00000000000E+00 0. -1.
         -2   -1    0    0    0  501 -0.00000000000E+00 -0.00000000000E+00 -0.73153438359E+02  0.73153438359E+02  0.00000000000E+00 0.  1.
         25    2    1    2    0    0  0.99288522396E+02  0.30216999690E+01  0.49660049574E+02  0.16727471818E+03  0.12508944587E+03 0.  0.
          5    1    3    3  502    0  0.97170185534E+02  0.24503054986E+02 -0.12748867555E+02  0.10110613574E+03  0.41800000000E+01 0.  1.
         -5    1    3    3    0  502  0.21183368617E+01 -0.21481355017E+02  0.62408917129E+02  0.66168582436E+02  0.41800000000E+01 0.  1.
        -11    1    1    2    0    0  0.10273502676E+01 -0.31602012106E+02  0.68641562414E+02  0.75573849369E+02  0.00000000000E+00 0.  1.
         11    1    1    2    0    0 -0.10031587266E+03  0.28580312137E+02  0.23912343946E+03  0.26088336062E+03  0.00000000000E+00 0. -1.
</event>
<event>
 7    1  0.2765964E-009  0.1707349E+03  0.7561462E-02  0.1177084E+00
          2   -1    0    0  501    0  0.00000000000E+00  0.00000000000E+00  0.13265191218E+04  0.13265191218E+04  0.00000000000E+00 0.  1.
         -2   -1    0    0    0  501 -0.00000000000E+00 -0.00000000000E+00 -0.23873815896E+02  0.23873815896E+02  0.00000000000E+00 0. -1.
         25    2    1    2    0    0  0.14021853514E+03 -0.14342929363E+02  0.68344867311E+03  0.70895451402E+03  0.12508979552E+03 0.  0.
          5    1    3    3  502    0  0.87922095089E+02 -0.68763782197E+02  0.36817362871E+03  0.38474413033E+03  0.41800000000E+01 0. -1.
         -5    1    3    3    0  502  0.52296440049E+02  0.54420852833E+02  0.31527504441E+03  0.32421038369E+03  0.41800000000E+01 0. -1.
        -11    1    1    2    0    0 -0.14848041679E+02  0.24234610252E+02  0.42083775680E+02  0.50782131220E+02  0.00000000000E+00 0. -1.
         11    1    1    2    0    0 -0.12537049346E+03 -0.98916808882E+01  0.57711285713E+03  0.59065629248E+03  0.00000000000E+00 0.  1.
</event>
<event>
 7    1  0.2690635E-009  0.8200891E+02  0.7561462E-02  0.1323445E+00
          1   -1    0    0  501    0  0.00000000000E+00  0.00000000000E+00  0.63725558558E+03  0.63725558558E+03  0.00000000000E+00 0. -1.
         -1   -1    0    0    0  501 -0.00000000000E+00 -0.00000000000E+00 -0.25595291616E+02  0.25595291616E+02  0.00000000000E+00 0.  1.
         25    2    1    2    0    0 -0.11981673953E+02 -0.33009812904E+02  0.48504740673E+03  0.50214640524E+03  0.12508723862E+03 0.  0.
          5    1    3    3  502    0  0.20056794584E+02  0.25646300933E+02  0.34869941359E+03  0.35024100445E+03  0.41800000000E+01 0. -1.
         -5    1    3    3    0  502 -0.32038468538E+02 -0.58656113837E+02  0.13634799314E+03  0.15190540079E+03  0.41800000000E+01 0. -1.
        -11    1    1    2    0    0  0.30887727692E+02  0.33163880321E+02  0.13318779199E+03  0.14068718000E+03  0.00000000000E+00 0. -1.
         11    1    1    2    0    0 -0.18906053739E+02 -0.15406741635E+00 -0.65749047551E+01  0.20017291957E+02  0.00000000000E+00 0.  1.
</event>
<event>
 7    1  0.2690635E-009  0.1402558E+03  0.7561462E-02  0.1212985E+00
         -1   -1    0    0    0  501 -0.00000000000E+00  0.00000000000E+00  0.63006106611E+02  0.63006106611E+02  0.00000000000E+00 0.  1.
          1   -1    0    0  501    0  0.00000000000E+00 -0.00000000000E+00 -0.42626318658E+03  0.42626318658E+03  0.00000000000E+00 0. -1.
         25    2    1    2    0    0 -0.12065205671E+03  0.15356659352E+02 -0.18268941940E+03  0.25261720449E+03  0.12508909732E+03 0.  0.
          5    1    3    3  502    0 -0.15443467681E+02 -0.26672362062E+02  0.67675898899E+01  0.31830618356E+02  0.41800000000E+01 0.  1.
         -5    1    3    3    0  502 -0.10520858903E+03  0.42029021414E+02 -0.18945700929E+03  0.22078658613E+03  0.41800000000E+01 0.  1.
        -11    1    1    2    0    0  0.68661087528E+02  0.21908846390E+02 -0.40505691416E+02  0.82674382536E+02  0.00000000000E+00 0.  1.
         11    1    1    2    0    0  0.51990969178E+02 -0.37265505742E+02 -0.14006196914E+03  0.15397770616E+03  0.00000000000E+00 0. -1.
</event>
<event>
 7    1  0.3667979E-009  0.1398544E+03  0.7561462E-02  0.1213525E+00
          2   -1    0    0  501    0  0.00000000000E+00  0.00000000000E+00  0.11693383575E+04  0.11693383575E+04  0.00000000000E+00 0. -1.
         -2   -1    0    0    0  501 -0.00000000000E+00 -0.00000000000E+00 -0.18763524127E+02  0.18763524127E+02  0.00000000000E+00 0.  1.
         25    2    1    2    0    0  0.82753014818E+02  0.49071335287E+02  0.74245625698E+03  0.75904213147E+03  0.12509039293E+03 0.  0.
          5    1    3    3  502    0  0.10942287719E+03  0.62800335456E+02  0.63353842851E+03  0.64599199762E+03  0.41800000000E+01 0. -1.
         -5    1    3    3    0  502 -0.26669862373E+02 -0.13729000169E+02  0.10891782847E+03  0.11305013385E+03  0.41800000000E+01 0. -1.
        -11    1    1    2    0    0 -0.26940986683E+02  0.20604320790E+02  0.19612234551E+03  0.19903348765E+03  0.00000000000E+00 0. -1.
         11    1    1    2    0    0 -0.55812028135E+02 -0.69675656077E+02  0.21199623087E+03  0.23002626250E+03  0.00000000000E+00 0.  1.
</event>
<event>
 7    1  0.2690635E-009  0.1215720E+03  0.7561462E-02  0.1240526E+00
          2   -1    0    0  501    0  0.00000000000E+00  0.00000000000E+00  0.38689962759E+02  0.38689962759E+02  0.00000000000E+00 0. -1.
         -2   -1    0    0    0  501 -0.00000000000E+00 -0.00000000000E+00 -0.68493100328E+03  0.68493100328E+03  0.00000000000E+00 0.  1.
         25    2    1    2    0    0 -0.37681833003E+02  0.10009495578E+03 -0.47086015384E+03  0.49879647586E+03  0.12509883748E+03 0.  0.
          5    1    3    3  502    0 -0.39339154266E+02  0.96545286644E+02 -0.47822017218E+03  0.48946967926E+03  0.41800000000E+01 0. -1.
         -5    1    3    3    0  502  0.16573212630E+01  0.35496691365E+01  0.73600183419E+01  0.93267965959E+01  0.41800000000E+01 0. -1.
        -11    1    1    2    0    0  0.10989223414E+02 -0.10530986290E+03 -0.10390124157E+03  0.14834553669E+03  0.00000000000E+00 0. -1.
         11    1    1    2    0    0  0.26692609589E+02  0.52149071193E+01 -0.71479645103E+02  0.76478953490E+02  0.00000000000E+00 0.  1.
</event>
<event>
 7    1  0.2690635E-009  0.7595694E+02  0.7561462E-02  0.1340933E+00
          1   -1    0    0  501    0  0.00000000000E+00  0.00000000000E+00  0.81978129598E+03  0.81978129598E+03  0.00000000000E+00 0. -1.
         -1   -1    0    0    0  501 -0.00000000000E+00 -0.00000000000E+00 -0.17943355742E+02  0.17943355742E+02  0.00000000000E+00 0.  1.
         25    2    1    2    0    0  0.25796054101E+02  0.59330582690E+02  0.42479611159E+03  0.44753202801E+03  0.12509046814E+03 0.  0.
          5    1    3    3  502    0  0.21645492773E+02  0.19039251993E+02  0.39737272332E+03  0.39843892144E+03  0.41800000000E+01 0.  1.
         -5    1    3    3    0  502  0.41505613281E+01  0.40291330697E+02  0.27423388267E+02  0.49093106570E+02  0.41800000000E+01 0.  1.
        -11    1    1    2    0    0  0.98282473071E+01  0.29971588226E+01  0.52604144712E+01  0.11543368943E+02  0.00000000000E+00 0.  1.
         11    1    1    2    0    0 -0.35624301408E+02 -0.62327741512E+02  0.37178141418E+03  0.37864925477E+03  0.00000000000E+00 0. -1.
</event>
<event>
 7    1  0.2690635E-009  0.1262661E+03  0.7561462E-02  0.1233104E+00
         -1   -1    0    0    0  501 -0.00000000000E+00  0.00000000000E+00  0.21934190111E+02  0.21934190111E+02  0.00000000000E+00 0.  1.
          1   -1    0    0  501    0  0.00000000000E+00 -0.00000000000E+00 -0.12027021043E+04  0.12027021043E+04  0.00000000000E+00 0. -1.
         25    2    1    2    0    0 -0.71700068381E+02  0.66732737055E+02 -0.91382713356E+03  0.92753282389E+03  0.12507178481E+03 0.  0.
          5    1    3    3  502    0  0.58507405689E+01  0.70400816861E+02 -0.27367773087E+03  0.28267910951E+03  0.41800000000E+01 0.  1.
         -5    1    3    3    0  502 -0.77550808950E+02 -0.36680798065E+01 -0.64014940269E+03  0.64485371438E+03  0.41800000000E+01 0.  1.
        -11    1    1    2    0    0  0.55256057968E+02 -0.28019505316E+02 -0.23828840134E+03  0.24621065540E+03  0.00000000000E+00 0.  1.
         11    1    1    2    0    0  0.16444010413E+02 -0.38713231738E+02 -0.28652379241E+02  0.50892815075E+02  0.00000000000E+00 0. -1.
</event>
<event>
 7    1  0.2690635E-009  0.1390001E+03  0.7561462E-02  0.1214681E+00
         -3   -1    0    0    0  501 -0.00000000000E+00  0.00000000000E+00  0.39953401680E+03  0.39953401680E+03  0.00000000000E+00 0.  1.
          3   -1    0    0  501    0  0.00000000000E+00 -0.00000000000E+00 -0.56743356038E+02  0.56743356038E+02  0.00000000000E+00 0. -1.
         25    2    1    2    0    0  0.10046762781E+03  0.19296358642E+02  0.15937354252E+03  0.22696661302E+03  0.12509126140E+03 0.  0.
          5    1    3    3  502    0  0.46783830730E+02  0.62266946924E+02  0.36534404475E+02  0.86128593436E+02  0.41800000000E+01 0.  1.
         -5    1    3    3    0  502  0.53683797083E+02 -0.42970588282E+02  0.12283913804E+03  0.14083801959E+03  0.41800000000E+01 0.  1.
        -11    1    1    2    0    0 -0.11030527193E+03 -0.96501928068E+00  0.17500666508E+03  0.20687077392E+03  0.00000000000E+00 0.  1.
         11    1    1    2    0    0  0.98376441165E+01 -0.18331339361E+02  0.84104531595E+01  0.22439985893E+02  0.00000000000E+00 0. -1.
</event>
<event>
 7    1  0.2690635E-009  0.7254204E+02  0.7561462E-02  0.1351656E+00
          2   -1    0    0  501    0  0.00000000000E+00  0.00000000000E+00  0.56069743833E+03  0.56069743833E+03  0.00000000000E+00 0. -1.
         -2   -1    0    0    0  501 -0.00000000000E+00 -0.00000000000E+00 -0.21439655885E+02  0.21439655885E+02  0.00000000000E+00 0.  1.
         25    2    1    2    0    0 -0.11746947909E+02  0.13163733011E+02  0.36542417559E+03  0.38664466791E+03  0.12509195207E+03 0.  0.
          5    1    3    3  502    0  0.32212715433E+02  0.14351722255E+02  0.32446817638E+03  0.32640573042E+03  0.41800000000E+01 0.  1.
         -5    1    3    3    0  502 -0.43959663341E+02 -0.11879892445E+01  0.40955999205E+02  0.60238937494E+02  0.41800000000E+01 0.  1.
        -11    1    1    2    0    0 -0.21680370245E+02 -0.21932875933E+02  0.15089431077E+03  0.15401357902E+03  0.00000000000E+00 0. -1.
         11    1    1    2    0    0  0.33427318153E+02  0.87691429223E+01  0.22939296090E+02  0.41478847280E+02  0.00000000000E+00 0.  1.
</event>
<event>
 7    1  0.2690635E-009  0.1031759E+03  0.7561462E-02  0.1273756E+00
          2   -1    0    0  501    0  0.00000000000E+00  0.00000000000E+00  0.13292674531E+04  0.13292674531E+04  0.00000000000E+00 0. -1.
         -2   -1    0    0    0  501 -0.00000000000E+00 -0.00000000000E+00 -0.11813514902E+02  0.11813514902E+02  0.00000000000E+00 0.  1.
         25    2    1    2    0    0  0.57804243873E+02  0.25678230954E+02  0.77121540417E+03  0.78385017348E+03  0.12508873919E+03 0.  0.
          5    1    3    3  502    0  0.57991169762E+02 -0.11485345474E+02  0.14674233735E+03  0.15825825382E+03  0.41800000000E+01 0. -1.
         -5    1    3    3    0  502 -0.18692588913E+00  0.37163576428E+02  0.62447306682E+03  0.62559191966E+03  0.41800000000E+01 0. -1.
        -11    1    1    2    0    0 -0.81654331426E+02 -0.26432827011E+02  0.40544151367E+03  0.41442604309E+03  0.00000000000E+00 0.  1.
         11    1    1    2    0    0  0.23850087553E+02  0.75459605656E+00  0.14079702035E+03  0.14280475143E+03  0.00000000000E+00 0. -1.
</event>
<event>
 7    1  0.2690635E-009  0.8033489E+02  0.7561462E-02  0.1328104E+00
         -3   -1    0    0    0  501 -0.00000000000E+00  0.00000000000E+00  0.19851125003E+03  0.19851125003E+03  0.00000000000E+00 0.  1.
          3   -1    0    0  501    0  0.00000000000E+00 -0.00000000000E+00 -0.73773932286E+02  0.73773932286E+02  0.00000000000E+00 0. -1.
         25    2    1    2    0    0 -0.41964537943E+02  0.12625205556E+02  0.10771370916E+03  0.17079161117E+03  0.12508842091E+03 0.  0.
          5    1    3    3  502    0 -0.77651003835E+02  0.16957647114E+02  0.29987183960E+02  0.85052594282E+02  0.41800000000E+01 0. -1.
         -5    1    3    3    0  502  0.35686465893E+02 -0.43324415581E+01  0.77726525196E+02  0.85739016888E+02  0.41800000000E+01 0. -1.
        -11    1    1    2    0    0  0.22585939876E+02 -0.11822248671E+02 -0.36524420071E+02  0.44541256215E+02  0.00000000000E+00 0. -1.
         11    1    1    2    0    0  0.19378598067E+02 -0.80295688521E+00  0.53548028655E+02  0.56952314928E+02  0.00000000000E+00 0.  1.
</event>
<event>
 7    1  0.2690635E-009  0.1465763E+03  0.7561462E-02  0.1204744E+00
          1   -1    0    0  501    0  0.00000000000E+00  0.00000000000E+00  0.51929557751E+03  0.51929557751E+03  0.00000000000E+00 0. -1.
         -1   -1    0    0    0  501 -0.00000000000E+00 -0.00000000000E+00 -0.52081524056E+02  0.52081524056E+02  0.00000000000E+00 0.  1.
         25    2    1    2    0    0 -0.85639467361E+01 -0.98606685634E+02  0.37822080733E+03  0.41048086630E+03  0.12508774067E+03 0.  0.
          5    1    3    3  502    0 -0.49726861122E+02  0.26679732752E+01  0.12659792661E+03  0.13610432109E+03  0.41800000000E+01 0. -1.
         -5    1    3    3    0  502  0.41162914386E+02 -0.10127465891E+03  0.25162288072E+03  0.27437654521E+03  0.41800000000E+01 0. -1.
        -11    1    1    2    0    0 -0.14161834316E+02 -0.13395989933E+02  0.16668577309E+02  0.25648617253E+02  0.00000000000E+00 0.  1.
         11    1    1    2    0    0  0.22725781052E+02  0.11200267557E+03  0.72324668814E+02  0.13524761801E+03  0.00000000000E+00 0. -1.
</event>
<event>
 7    1  0.2690635E-009  0.8714113E+02  0.7561462E-02  0.1309926E+00
         -1   -1    0    0    0  501 -0.00000000000E+00  0.00000000000E+00  0.17237495055E+02  0.17237495055E+02  0.00000000000E+00 0.  1.
          1   -1    0    0  501    0  0.00000000000E+00 -0.00000000000E+00 -0.91698991975E+03  0.91698991975E+03  0.00000000000E+00 0. -1.
         25    2    1    2    0    0 -0.13387552365E+02 -0.60327644684E+02 -0.51652292540E+03  0.53503347035E+03  0.12508489380E+03 0.  0.
          5    1    3    3  502    0 -0.94318625538E+01 -0.23586980491E+02 -0.10755848476E+02  0.27901009952E+02  0.41800000000E+01 0.  1.
         -5    1    3    3    0  502 -0.39556898114E+01 -0.36740664193E+02 -0.50576707692E+03  0.50713246040E+03  0.41800000000E+01 0.  1.
        -11    1    1    2    0    0 -0.36057082561E+02  0.48630789082E+02 -0.22533063688E+03  0.23332158658E+03  0.00000000000E+00 0.  1.
         11    1    1    2    0    0  0.49444634927E+02  0.11696855602E+02 -0.15789886241E+03  0.16587235787E+03  0.00000000000E+00 0. -1.
</event>
<event>
 7    1  0.2690635E-009  0.1227885E+03  0.7561462E-02  0.1238566E+00
         -1   -1    0    0    0  501 -0.00000000000E+00  0.00000000000E+00  0.23388351859E+02  0.23388351859E+02  0.00000000000E+00 0.  1.
          1   -1    0    0  501    0  0.00000000000E+00 -0.00000000000E+00 -0.81062376067E+03  0.81062376067E+03  0.00000000000E+00 0. -1.
         25    2    1    2    0    0 -0.55694586004E+02 -0.36542532222E+02 -0.59211824870E+03  0.60884210163E+03  0.12508973062E+03 0.  0.
          5    1    3    3  502    0  0.39786234029E+02 -0.16419733273E+02 -0.15302546511E+03  0.15901829276E+03  0.41800000000E+01 0. -1.
         -5    1    3    3    0  502 -0.95480820033E+02 -0.20122798949E+02 -0.43909278359E+03  0.44982380888E+03  0.41800000000E+01 0. -1.
        -11    1    1    2    0    0  0.52264628435E+02 -0.13920029268E+02 -0.59403727421E+02  0.80337795787E+02  0.00000000000E+00 0.  1.
         11    1    1    2    0    0  0.34299575685E+01  0.50462561490E+02 -0.13571343269E+03  0.14483221511E+03  0.00000000000E+00 0. -1.
</event>
<event>
 7    1  0.2690635E-009  0.1112717E+03  0.7561462E-02  0.1258233E+00
          1   -1    0    0  501    0  0.00000000000E+00  0.00000000000E+00  0.64701252204E+02  0.64701252204E+02  0.00000000000E+00 0. -1.
         -1   -1    0    0    0  501 -0.00000000000E+00 -0.00000000000E+00 -0.27696880627E+03  0.27696880627E+03  0.00000000000E+00 0.  1.
         25    2    1    2    0    0 -0.63994224805E+02 -0.43298488297E+02 -0.14175506493E+03  0.20423614698E+03  0.12509150811E+03 0.  0.
          5    1    3    3  502    0 -0.78056068413E+02  0.73107083048E+01 -0.36607264290E+02  0.86624248746E+02  0.41800000000E+01 0. -1.
         -5    1    3    3    0  502  0.14061843609E+02 -0.50609196602E+02 -0.10514780064E+03  0.11761189823E+03  0.41800000000E+01 0. -1.
        -11    1    1    2    0    0  0.50335953029E+02  0.48849709801E+01  0.58098234608E+01  0.50905060234E+02  0.00000000000E+00 0. -1.
         11    1    1    2    0    0  0.13658271776E+02  0.38413517317E+02 -0.76322312603E+02  0.86528851268E+02  0.00000000000E+00 0.  1.
</event>
<event>
 7    1  0.2690635E-009  0.7682494E+02  0.7561462E-02  0.1338311E+00
         -3   -1    0    0    0  501 -0.00000000000E+00  0.00000000000E+00  0.12253806688E+03  0.12253806688E+03  0.00000000000E+00 0.  1.
          3   -1    0    0  501    0  0.00000000000E+00 -0.00000000000E+00 -0.11325634250E+03  0.11325634250E+03  0.00000000000E+00 0. -1.
         25    2    1    2    0    0 -0.39916040343E+02  0.45946623354E+02  0.97371138842E+01  0.13945539861E+03  0.12509442170E+03 0.  0.
          5    1    3    3  502    0 -0.11689036251E+02  0.33597505166E+02 -0.56149546483E+02  0.66600825011E+02  0.41800000000E+01 0. -1.
         -5    1    3    3    0  502 -0.28227004092E+02  0.12349118188E+02  0.65886660368E+02  0.72854573600E+02  0.41800000000E+01 0. -1.
        -11    1    1    2    0    0 -0.99630071327E+00 -0.45816533357E+02  0.20694183701E+02  0.50283164011E+02  0.00000000000E+00 0.  1.
         11    1    1    2    0    0  0.40912341056E+02 -0.13008999777E+00 -0.21149573209E+02  0.46055846763E+02  0.00000000000E+00 0. -1.
</event>
<event>
 7    1  0.2690635E-009  0.1048025E+03  0.7561462E-02  0.1270509E+00
         -2   -1    0    0    0  501 -0.00000000000E+00  0.00000000000E+00  0.24719049933E+03  0.24719049933E+03  0.00000000000E+00 0. -1.
          2   -1    0    0  501    0  0.00000000000E+00 -0.00000000000E+00 -0.91924482101E+02  0.91924482101E+02  0.00000000000E+00 0.  1.
         25    2    1    2    0    0  0.45005011827E+02 -0.75686107275E+02  0.14770124416E+03  0.21264883949E+03  0.12510009387E+03 0.  0.
          5    1    3    3  502    0  0.27203477448E+02 -0.17148630094E+02 -0.17204131330E+02  0.36709116500E+02  0.41800000000E+01 0.  1.
         -5    1    3    3    0  502  0.17801534379E+02 -0.58537477181E+02  0.16490537549E+03  0.17593972299E+03  0.41800000000E+01 0.  1.
        -11    1    1    2    0    0  0.89738325636E+01  0.58524850545E+02 -0.21262821597E+02  0.62911011631E+02  0.00000000000E+00 0.  1.
         11    1    1    2    0    0 -0.53978844391E+02  0.17161256730E+02  0.28827594667E+02  0.63555130309E+02  0.00000000000E+00 0. -1.
</event>
<event>
 7    1  0.2690635E-009  0.1839594E+03  0.7561462E-02  0.1164025E+00
          2   -1    0    0  501    0  0.00000000000E+00  0.00000000000E+00  0.16802248491E+04  0.16802248491E+04  0.00000000000E+00 0. -1.
         -2   -1    0    0    0  501 -0.00000000000E+00 -0.00000000000E+00 -0.29918605075E+02  0.29918605075E+02  0.00000000000E+00 0.  1.
         25    2    1    2    0    0  0.17295237430E+03  0.46789127921E+02  0.11530212056E+04  0.11735460624E+04  0.12510281229E+03 0.  0.
          5    1    3    3  502    0  0.12487732077E+03  0.57188092293E+02  0.49628964424E+03  0.51496184958E+03  0.41800000000E+01 0. -1.
         -5    1    3    3    0  502  0.48075053528E+02 -0.10398964372E+02  0.65673156138E+03  0.65858421279E+03  0.41800000000E+01 0. -1.
        -11    1    1    2    0    0 -0.38460610330E+02  0.82755900519E+00  0.32347965105E+02  0.50262254698E+02  0.00000000000E+00 0.  1.
         11    1    1    2    0    0 -0.13449176397E+03 -0.47616686926E+02  0.46493707330E+03  0.48633513710E+03  0.00000000000E+00 0. -1.
</event>
<event>
 7    1  0.2690635E-009  0.1762970E+03  0.7561462E-02  0.1171436E+00
          4   -1    0    0  501    0  0.00000000000E+00  0.00000000000E+00  0.32824248520E+03  0.32824248520E+03  0.00000000000E+00 0. -1.
         -4   -1    0    0    0  501 -0.00000000000E+00 -0.00000000000E+00 -0.96830864673E+02  0.96830864673E+02  0.00000000000E+00 0.  1.
         25    2    1    2    0    0 -0.42976122057E+02  0.13346361887E+03  0.13442619080E+03  0.23103442446E+03  0.12508804852E+03 0.  0.
          5    1    3    3  502    0  0.27235065025E+02  0.11054148312E+03  0.81549345145E+02  0.14010330599E+03  0.41800000000E+01 0. -1.
         -5    1    3    3    0  502 -0.70211187082E+02  0.22922135749E+02  0.52876845659E+02  0.90931118467E+02  0.41800000000E+01 0. -1.
        -11    1    1    2    0    0 -0.62257392386E+01  0.10692223579E+02 -0.17800563629E+01  0.12500082991E+02  0.00000000000E+00 0.  1.
         11    1    1    2    0    0  0.49201861296E+02 -0.14415584245E+03  0.98765486089E+02  0.18153884242E+03  0.00000000000E+00 0. -1.
</event>
<event>
 7    1  0.2690635E-009  0.9981494E+02  0.7561462E-02  0.1280686E+00
         -2   -1    0    0    0  501 -0.00000000000E+00  0.00000000000E+00  0.28634893794E+02  0.28634893794E+02  0.00000000000E+00 0.  1.
          2   -1    0    0  501    0  0.00000000000E+00 -0.00000000000E+00 -0.85891372424E+03  0.85891372424E+03  0.00000000000E+00 0. -1.
         25    2    1    2    0    0  0.56948430402E+02  0.32470881766E+02 -0.70513763036E+03  0.71914082388E+03  0.12508782888E+03 0.  0.
          5    1    3    3  502    0 -0.17627801539E+02 -0.69273217361E+01 -0.16852274662E+02  0.25694332738E+02  0.41800000000E+01 0. -1.
         -5    1    3    3    0  502  0.74576231941E+02  0.39398203502E+02 -0.68828535569E+03  0.69344649114E+03  0.41800000000E+01 0. -1.
        -11    1    1    2    0    0 -0.59121222427E+02  0.39953292909E+01 -0.29840855005E+02  0.66345747602E+02  0.00000000000E+00 0.  1.
         11    1    1    2    0    0  0.21727920248E+01 -0.36466211057E+02 -0.95300345086E+02  0.10206204656E+03  0.00000000000E+00 0. -1.
</event>
<event>
 7    1  0.2690635E-009  0.1228084E+03  0.7561462E-02  0.1238535E+00
         -2   -1    0    0    0  501 -0.00000000000E+00  0.00000000000E+00  0.40222135838E+02  0.40222135838E+02  0.00000000000E+00 0.  1.
          2   -1    0    0  501    0  0.00000000000E+00 -0.00000000000E+00 -0.45023049552E+03  0.45023049552E+03  0.00000000000E+00 0. -1.
         25    2    1    2    0    0  0.64176931062E+02 -0.15115933943E+02 -0.14676205428E+03  0.20379595503E+03  0.12508605346E+03 0.  0.
          5    1    3    3  502    0 -0.24330274250E+02 -0.33578015546E+02 -0.15734770870E+02  0.44547736053E+02  0.41800000000E+01 0.  1.
         -5    1    3    3    0  502  0.88507205311E+02  0.18462081603E+02 -0.13102728341E+03  0.15924821898E+03  0.41800000000E+01 0.  1.
        -11    1    1    2    0    0 -0.10782146054E+02  0.49013719304E+02 -0.11971986012E+03  0.12981311282E+03  0.00000000000E+00 0.  1.
         11    1    1    2    0    0 -0.53394785008E+02 -0.33897785360E+02 -0.14352644528E+03  0.15684356351E+03  0.00000000000E+00 0. -1.
</event>
<event>
 7    1  0.2690635E-009  0.1912415E+03  0.7561462E-02  0.1157346E+00
         -2   -1    0    0    0  501 -0.00000000000E+00  0.00000000000E+00  0.46533334074E+02  0.46533334074E+02  0.00000000000E+00 0.  1.
          2   -1    0    0  501    0  0.00000000000E+00 -0.00000000000E+00 -0.10760887225E+04  0.10760887225E+04  0.00000000000E+00 0. -1.
         25    2    1    2    0    0 -0.45384377499E+02  0.15573131894E+03 -0.26090273958E+03  0.33170634847E+03  0.12508747610E+03 0.  0.
          5    1    3    3  502    0 -0.78615163506E+02  0.62473830067E+02 -0.16862393963E+03  0.19630290062E+03  0.41800000000E+01 0.  1.
         -5    1    3    3    0  502  0.33230786007E+02  0.93257488873E+02 -0.92278799949E+02  0.13540344785E+03  0.41800000000E+01 0.  1.
        -11    1    1    2    0    0 -0.23216259820E+02 -0.65840755394E+02 -0.22312890723E+03  0.23379587043E+03  0.00000000000E+00 0. -1.
         11    1    1    2    0    0  0.68600637319E+02 -0.89890563545E+02 -0.54552374167E+03  0.55711983772E+03  0.00000000000E+00 0.  1.
</event>
<event>
 7    1  0.2690635E-009  0.1019593E+03  0.7561462E-02  0.1276229E+00
          2   -1    0    0  501    0  0.00000000000E+00  0.00000000000E+00  0.53528174292E+02  0.53528174292E+02  0.00000000000E+00 0. -1.
         -2   -1    0    0    0  501 -0.00000000000E+00 -0.00000000000E+00 -0.29402393883E+03  0.29402393883E+03  0.00000000000E+00 0.  1.
         25    2    1    2    0    0  0.52753836310E+02 -0.38272604179E+01 -0.86262136530E+02  0.16088914911E+03  0.12508615804E+03 0.  0.
          5    1    3    3  502    0  0.35814581951E+01 -0.50092212615E+02  0.10921958062E+01  0.50405574088E+02  0.41800000000E+01 0.  1.
         -5    1    3    3    0  502  0.49172378115E+02  0.46264952197E+02 -0.87354332336E+02  0.11048357502E+03  0.41800000000E+01 0.  1.
        -11    1    1    2    0    0 -0.64847441508E+02  0.17950833296E+02 -0.58563254856E+02  0.89202454594E+02  0.00000000000E+00 0. -1.
         11    1    1    2    0    0  0.12093605198E+02 -0.14123572878E+02 -0.95670373151E+02  0.97460509420E+02  0.00000000000E+00 0.  1.
</event>
<event>
 7    1  0.2690635E-009  0.1245347E+03  0.7561462E-02  0.1235798E+00
          2   -1    0    0  501    0  0.00000000000E+00  0.00000000000E+00  0.23151703359E+03  0.23151703359E+03  0.00000000000E+00 0. -1.
         -2   -1    0    0    0  501 -0.00000000000E+00 -0.00000000000E+00 -0.10003342264E+03  0.10003342264E+03  0.00000000000E+00 0.  1.
         25    2    1    2    0    0  0.73908523377E+02 -0.38852151254E+02  0.14276951050E+03  0.20737208241E+03  0.12509231771E+03 0.  0.
          5    1    3    3  502    0  0.92887206535E+02 -0.67844664717E+02  0.11570103518E+03  0.16320273775E+03  0.41800000000E+01 0. -1.
         -5    1    3    3    0  502 -0.18978683158E+02  0.28992513464E+02  0.27068475321E+02  0.44169344659E+02  0.41800000000E+01 0. -1.
        -11    1    1    2    0    0 -0.77274047630E+02  0.19872081030E+02  0.24556177439E+02  0.83481638053E+02  0.00000000000E+00 0. -1.
         11    1    1    2    0    0  0.33655242533E+01  0.18980070223E+02 -0.35842076986E+02  0.40696735764E+02  0.00000000000E+00 0.  1.
</event>
<event>
 7    1  0.2690635E-009  0.1063316E+03  0.7561462E-02  0.1267518E+00
          1   -1    0    0  501    0  0.00000000000E+00  0.00000000000E+00  0.86927313935E+03  0.86927313935E+03  0.00000000000E+00 0. -1.
         -1   -1    0    0    0  501 -0.00000000000E+00 -0.00000000000E+00 -0.21111313757E+02  0.21111313757E+02  0.00000000000E+00 0.  1.
         25    2    1    2    0    0  0.25237712931E+02  0.76428002302E+02  0.47926276334E+03  0.50181456377E+03  0.12508748298E+03 0.  0.
          5    1    3    3  502    0 -0.22898578217E+02 -0.44328812986E+01  0.14892348733E+02  0.27986599860E+02  0.41800000000E+01 0. -1.
         -5    1    3    3    0  502  0.48136291147E+02  0.80860883600E+02  0.46437041461E+03  0.47382796391E+03  0.41800000000E+01 0. -1.
        -11    1    1    2    0    0  0.81799456792E+01 -0.53787521595E+02  0.32255735448E+03  0.32711352146E+03  0.00000000000E+00 0. -1.
         11    1    1    2    0    0 -0.33417658610E+02 -0.22640480706E+02  0.46341707777E+02  0.61456367882E+02  0.00000000000E+00 0.  1.
</event>
<event>
 7    1  0.2690635E-009  0.2140204E+03  0.7561462E-02  0.1138421E+00
          3   -1    0    0  501    0  0.00000000000E+00  0.00000000000E+00  0.21693886787E+03  0.21693886787E+03  0.00000000000E+00 0. -1.
         -3   -1    0    0    0  501 -0.00000000000E+00 -0.00000000000E+00 -0.23111899023E+03  0.23111899023E+03  0.00000000000E+00 0.  1.
         25    2    1    2    0    0  0.15026310139E+03 -0.11793847606E+03  0.37362566447E+02  0.23136409867E+03  0.12507957869E+03 0.  0.
          5    1    3    3  502    0  0.14373208361E+03 -0.13663555500E+03  0.11731038660E+02  0.19870399195E+03  0.41800000000E+01 0.  1.
         -5    1    3    3    0  502  0.65310177821E+01  0.18697078941E+02  0.25631527787E+02  0.32660106719E+02  0.41800000000E+01 0.  1.
        -11    1    1    2    0    0 -0.18649143530E+02  0.64928746406E+02 -0.66866383736E+01  0.67884046705E+02  0.00000000000E+00 0. -1.
         11    1    1    2    0    0 -0.13161395786E+03  0.53009729651E+02 -0.44856050432E+02  0.14880971273E+03  0.00000000000E+00 0.  1.
</event>
<event>
 7    1  0.2690635E-009  0.1339897E+03  0.7561462E-02  0.1221653E+00
         -2   -1    0    0    0  501 -0.00000000000E+00  0.00000000000E+00  0.24116753512E+03  0.24116753512E+03  0.00000000000E+00 0.  1.
          2   -1    0    0  501    0  0.00000000000E+00 -0.00000000000E+00 -0.10415700767E+03  0.10415700767E+03  0.00000000000E+00 0. -1.
         25    2    1    2    0    0  0.11133024392E+03  0.73582556325E+01  0.59748181568E+02  0.17795044170E+03  0.12509175578E+03 0.  0.
          5    1    3    3  502    0  0.52640552172E+02  0.35069991280E+02 -0.27524985219E+02  0.69108821670E+02  0.41800000000E+01 0. -1.
         -5    1    3    3    0  502  0.58689691747E+02 -0.27711735647E+02  0.87273166787E+02  0.10884162003E+03  0.41800000000E+01 0. -1.
        -11    1    1    2    0    0 -0.23259033317E+02 -0.39465682558E+02  0.53954592933E+02  0.70778674961E+02  0.00000000000E+00 0.  1.
         11    1    1    2    0    0 -0.88071210602E+02  0.32107426926E+02  0.23307752947E+02  0.96595426124E+02  0.00000000000E+00 0. -1.
</event>
<event>
 7    1  0.2690635E-009  0.9758276E+02  0.7561462E-02  0.1285463E+00
          2   -1    0    0  501    0  0.00000000000E+00  0.00000000000E+00  0.16752592551E+03  0.16752592551E+03  0.00000000000E+00 0.  1.
         -2   -1    0    0    0  501 -0.00000000000E+00 -0.00000000000E+00 -0.10106182129E+03  0.10106182129E+03  0.00000000000E+00 0. -1.
         25    2    1    2    0    0 -0.54140704042E+01 -0.53193383878E+02 -0.13225565482E+02  0.13668023648E+03  0.12509085984E+03 0.  0.
          5    1    3    3  502    0 -0.46018273580E+02 -0.94613637310E+01  0.35898146054E+02  0.59273503330E+02  0.41800000000E+01 0.  1.
         -5    1    3    3    0  502  0.40604203176E+02 -0.43732020147E+02 -0.49123711536E+02  0.77406733149E+02  0.41800000000E+01 0.  1.
        -11    1    1    2    0    0  0.72026997046E+01 -0.16738504762E+02  0.54647441556E+02  0.57605549154E+02  0.00000000000E+00 0.  1.
         11    1    1    2    0    0 -0.17886293004E+01  0.69931888639E+02  0.25042228142E+02  0.74301961170E+02  0.00000000000E+00 0. -1.
</event>
<event>
 7    1  0.2690635E-009  0.1572443E+03  0.7561462E-02  0.1191843E+00
          1   -1    0    0  501    0  0.00000000000E+00  0.00000000000E+00  0.30913872634E+03  0.30913872634E+03  0.00000000000E+00 0. -1.
         -1   -1    0    0    0  501 -0.00000000000E+00 -0.00000000000E+00 -0.12848912604E+03  0.12848912604E+03  0.00000000000E+00 0.  1.
         25    2    1    2    0    0  0.11963883993E+03 -0.75075733150E+02 -0.39595384443E+01  0.18871445901E+03  0.12509057265E+03 0.  0.
          5    1    3    3  502    0  0.43104574367E+02 -0.66474645400E+02 -0.54722587439E+02  0.96379026704E+02  0.41800000000E+01 0. -1.
         -5    1    3    3    0  502  0.76534265559E+02 -0.86010877499E+01  0.50763048995E+02  0.92335432302E+02  0.41800000000E+01 0. -1.
        -11    1    1    2    0    0 -0.19460749364E+02  0.51575295311E+02  0.10581327224E+03  0.11931127539E+03  0.00000000000E+00 0.  1.
         11    1    1    2    0    0 -0.10017809056E+03  0.23500437838E+02  0.78795866511E+02  0.12960211799E+03  0.00000000000E+00 0. -1.
</event>
<event>
 7    1  0.2690635E-009  0.1051411E+03  0.7561462E-02  0.1269842E+00
          2   -1    0    0  501    0  0.00000000000E+00  0.00000000000E+00  0.84347495474E+03  0.84347495474E+03  0.00000000000E+00 0. -1.
         -2   -1    0    0    0  501 -0.00000000000E+00 -0.00000000000E+00 -0.14967389595E+02  0.14967389595E+02  0.00000000000E+00 0.  1.
         25    2    1    2    0    0 -0.25330928289E+02  0.11479098658E+02  0.52938386859E+03  0.54467376286E+03  0.12509517172E+03 0.  0.
          5    1    3    3  502    0  0.30593504378E+02 -0.36569203799E+02  0.13024464799E+03  0.13876026054E+03  0.41800000000E+01 0. -1.
         -5    1    3    3    0  502 -0.55924432667E+02  0.48048302458E+02  0.39913922060E+03  0.40591350232E+03  0.41800000000E+01 0. -1.
        -11    1    1    2    0    0  0.56441019187E+02 -0.10734441322E+02  0.13493665341E+03  0.14665850575E+03  0.00000000000E+00 0.  1.
         11    1    1    2    0    0 -0.31110090898E+02 -0.74465733606E+00  0.16418704315E+03  0.16711007572E+03  0.00000000000E+00 0. -1.
</event>
<event>
 7    1  0.2690635E-009  0.2164299E+03  0.7561462E-02  0.1136573E+00
          2   -1    0    0  501    0  0.00000000000E+00  0.00000000000E+00  0.13806559848E+04  0.13806559848E+04  0.00000000000E+00 0. -1.
         -2   -1    0    0    0  501 -0.00000000000E+00 -0.00000000000E+00 -0.38302100235E+02  0.38302100235E+02  0.00000000000E+00 0.  1.
         25    2    1    2    0    0  0.13392421662E+02  0.19746160482E+03  0.80356450782E+03  0.83697888063E+03  0.12508911251E+03 0.  0.
          5    1    3    3  502    0 -0.70871614254E+01 -0.14082296273E+02  0.12057484394E+03  0.12167293995E+03  0.41800000000E+01 0. -1.
         -5    1    3    3    0  502  0.20479583088E+02  0.21154390110E+03  0.68298966388E+03  0.71530594068E+03  0.41800000000E+01 0. -1.
        -11    1    1    2    0    0  0.18061109263E+02 -0.49091487491E+02  0.59296313960E+02  0.79071048185E+02  0.00000000000E+00 0.  1.
         11    1    1    2    0    0 -0.31453530926E+02 -0.14837011733E+03  0.47949306279E+03  0.50290815621E+03  0.00000000000E+00 0. -1.
</event>
<event>
 7    1  0.2690635E-009  0.1551399E+03  0.7561462E-02  0.1194296E+00
          2   -1    0    0  501    0  0.00000000000E+00  0.00000000000E+00  0.75890221511E+03  0.75890221511E+03  0.00000000000E+00 0.  1.
         -2   -1    0    0    0  501 -0.00000000000E+00 -0.00000000000E+00 -0.37189366670E+02  0.37189366670E+02  0.00000000000E+00 0. -1.
         25    2    1    2    0    0 -0.81522858862E+02 -0.10176992787E+03  0.33041713287E+03  0.37659643234E+03  0.12508515668E+03 0.  0.
          5    1    3    3  502    0 -0.11467560565E+03 -0.82120436325E+02  0.27310983023E+03  0.30740968163E+03  0.41800000000E+01 0.  1.
         -5    1    3    3    0  502  0.33152746788E+02 -0.19649491545E+02  0.57307302640E+02  0.69186750707E+02  0.41800000000E+01 0.  1.
        -11    1    1    2    0    0  0.51099166668E+02  0.65067110013E+02  0.33804753680E+03  0.34802441118E+03  0.00000000000E+00 0.  1.
         11    1    1    2    0    0  0.30423692194E+02  0.36702817857E+02  0.53248178770E+02  0.71470738261E+02  0.00000000000E+00 0. -1.
</event>
<event>
 7    1  0.2690635E-009  0.1527614E+03  0.7561462E-02  0.1197120E+00
          1   -1    0    0  501    0  0.00000000000E+00  0.00000000000E+00  0.14891282849E+03  0.14891282849E+03  0.00000000000E+00 0. -1.
         -1   -1    0    0    0  501 -0.00000000000E+00 -0.00000000000E+00 -0.17811112957E+03  0.17811112957E+03  0.00000000000E+00 0.  1.
         25    2    1    2    0    0  0.11819271630E+03  0.29466579213E+02 -0.24478291912E+02  0.17630896341E+03  0.12509143187E+03 0.  0.
          5    1    3    3  502    0 -0.63402275336E+01  0.38253994659E+02  0.19853397599E+02  0.43762956810E+02  0.41800000000E+01 0. -1.
         -5    1    3    3    0  502  0.12453294383E+03 -0.87874154455E+01 -0.44331689511E+02  0.13254600660E+03  0.41800000000E+01 0. -1.
        -11    1    1    2    0    0 -0.38322698377E+02 -0.46179657027E+02 -0.27476808188E+02  0.66001249399E+02  0.00000000000E+00 0. -1.
         11    1    1    2    0    0 -0.79870017924E+02  0.16713077814E+02  0.22756799026E+02  0.84713745255E+02  0.00000000000E+00 0.  1.
</event>
<event>
 7    1  0.2690635E-009  0.1888763E+03  0.7561462E-02  0.1159479E+00
         -2   -1    0    0    0  501 -0.00000000000E+00  0.00000000000E+00  0.30613290406E+02  0.30613290406E+02  0.00000000000E+00 0.  1.
          2   -1    0    0  501    0  0.00000000000E+00 -0.00000000000E+00 -0.12661879533E+04  0.12661879533E+04  0.00000000000E+00 0. -1.
         25    2    1    2    0    0  0.15382502358E+03 -0.24006888593E+02 -0.82338039104E+03  0.84725493252E+03  0.12508870353E+03 0.  0.
          5    1    3    3  502    0  0.80495132329E+02  0.50478450922E+02 -0.39327044936E+03  0.40460679563E+03  0.41800000000E+01 0.  1.
         -5    1    3    3    0  502  0.73329891253E+02 -0.74485339515E+02 -0.43010994168E+03  0.44264813688E+03  0.41800000000E+01 0.  1.
        -11    1    1    2    0    0 -0.84048202443E+02 -0.30589328490E+02 -0.17933323860E+03  0.20040014426E+03  0.00000000000E+00 0.  1.
         11    1    1    2    0    0 -0.69776821139E+02  0.54596217084E+02 -0.23286103326E+03  0.24914616694E+03  0.00000000000E+00 0. -1.
</event>
<event>
 7    1  0.2690635E-009  0.9502237E+02  0.7561462E-02  0.1291126E+00
         -1   -1    0    0    0  501 -0.00000000000E+00  0.00000000000E+00  0.34857126137E+03  0.34857126137E+03  0.00000000000E+00 0.  1.
          1   -1    0    0  501    0  0.00000000000E+00 -0.00000000000E+00 -0.49676734668E+02  0.49676734668E+02  0.00000000000E+00 0. -1.
         25    2    1    2    0    0  0.70807597132E+02 -0.38796309695E+02  0.18852846940E+03  0.24022755179E+03  0.12508966148E+03 0.  0.
          5    1    3    3  502    0  0.82313799997E+02 -0.24258777425E+02  0.47990685328E+02  0.98410508739E+02  0.41800000000E+01 0. -1.
         -5    1    3    3    0  502 -0.11506202864E+02 -0.14537532269E+02  0.14053778407E+03  0.14181704305E+03  0.41800000000E+01 0. -1.
        -11    1    1    2    0    0 -0.87914152212E+01  0.17444633165E+02 -0.92410240035E+01  0.21610199732E+02  0.00000000000E+00 0. -1.
         11    1    1    2    0    0 -0.62016181911E+02  0.21351676530E+02  0.11960708131E+03  0.13641024451E+03  0.00000000000E+00 0.  1.
</event>
<event>
 7    1  0.2690635E-009  0.1592459E+03  0.7561462E-02  0.1189551E+00
          1   -1    0    0  501    0  0.00000000000E+00  0.00000000000E+00  0.37981919191E+03  0.37981919191E+03  0.00000000000E+00 0. -1.
         -1   -1    0    0    0  501 -0.00000000000E+00 -0.00000000000E+00 -0.85668521816E+02  0.85668521816E+02  0.00000000000E+00 0.  1.
         25    2    1    2    0    0  0.43713570024E+01  0.12847161837E+03  0.73872131323E+02  0.19398098543E+03  0.12508982945E+03 0.  0.
          5    1    3    3  502    0  0.59464714660E+02  0.34678414636E+02  0.16417669057E+02  0.70891868282E+02  0.41800000000E+01 0.  1.
         -5    1    3    3    0  502 -0.55093357658E+02  0.93793203738E+02  0.57454462267E+02  0.12308911715E+03  0.41800000000E+01 0.  1.
        -11    1    1    2    0    0 -0.29994907451E+02 -0.85848507016E+02  0.19620430412E+03  0.21625399322E+03  0.00000000000E+00 0. -1.
         11    1    1    2    0    0  0.25623550449E+02 -0.42623111358E+02  0.24074234654E+02  0.55252735078E+02  0.00000000000E+00 0.  1.
</event>
<event>
 7    1  0.2690635E-009  0.1001736E+03  0.7561462E-02  0.1279931E+00
          1   -1    0    0  501    0  0.00000000000E+00  0.00000000000E+00  0.14073673776E+03  0.14073673776E+03  0.00000000000E+00 0. -1.
         -1   -1    0    0    0  501 -0.00000000000E+00 -0.00000000000E+00 -0.95130115113E+02  0.95130115113E+02  0.00000000000E+00 0.  1.
         25    2    1    2    0    0 -0.32423406311E+02  0.46559413559E-01  0.53675021089E+02  0.13992790172E+03  0.12509008892E+03 0.  0.
          5    1    3    3  502    0  0.42964512472E+01 -0.45855121879E+02 -0.15759550465E+02  0.48856806349E+02  0.41800000000E+01 0. -1.
         -5    1    3    3    0  502 -0.36719857558E+02  0.45901681292E+02  0.69434571553E+02  0.91071095367E+02  0.41800000000E+01 0. -1.
        -11    1    1    2    0    0  0.57483110420E+02  0.22239871828E+02 -0.95461304721E+01  0.62370253242E+02  0.00000000000E+00 0.  1.
         11    1    1    2    0    0 -0.25059704110E+02 -0.22286431241E+02  0.14777320280E+01  0.33568697912E+02  0.00000000000E+00 0. -1.
</event>
<event>
 7    1  0.2690635E-009  0.1015296E+03  0.7561462E-02  0.1277112E+00
          4   -1    0    0  501    0  0.00000000000E+00  0.00000000000E+00  0.12120520437E+03  0.12120520437E+03  0.00000000000E+00 0. -1.
         -4   -1    0    0    0  501 -0.00000000000E+00 -0.00000000000E+00 -0.10239352902E+03  0.10239352902E+03  0.00000000000E+00 0.  1.
         25    2    1    2    0    0 -0.16602062140E+02 -0.13342198029E+02  0.27709480258E+02  0.12988053342E+03  0.12508994744E+03 0.  0.
          5    1    3    3  502    0 -0.35252485894E+02 -0.56625644584E+02 -0.12252820284E+02  0.67947077871E+02  0.41800000000E+01 0. -1.
         -5    1    3    3    0  502  0.18650423753E+02  0.43283446556E+02  0.39962300542E+02  0.61933455551E+02  0.41800000000E+01 0. -1.
        -11    1    1    2    0    0 -0.34852624908E+02  0.13715948298E+02 -0.17848000977E+02  0.41489563020E+02  0.00000000000E+00 0.  1.
         11    1    1    2    0    0  0.51454687049E+02 -0.37375026938E+00  0.89501960690E+01  0.52228636955E+02  0.00000000000E+00 0. -1.
</event>
<event>
 7    1  0.2690635E-009  0.1165567E+03  0.7561462E-02  0.1248888E+00
         -1   -1    0    0    0  501 -0.00000000000E+00  0.00000000000E+00  0.22424686149E+02  0.22424686149E+02  0.00000000000E+00 0. -1.
          1   -1    0    0  501    0  0.00000000000E+00 -0.00000000000E+00 -0.67111759864E+03  0.67111759864E+03  0.00000000000E+00 0.  1.
         25    2    1    2    0    0  0.44001963158E+02  0.35153356967E+02 -0.41126474870E+03  0.43354209638E+03  0.12509246397E+03 0.  0.
          5    1    3    3  502    0  0.17093069215E+02 -0.46183471855E+02 -0.18740287206E+03  0.19381020341E+03  0.41800000000E+01 0.  1.
         -5    1    3    3    0  502  0.26908893944E+02  0.81336828822E+02 -0.22386187664E+03  0.23973189297E+03  0.41800000000E+01 0.  1.
        -11    1    1    2    0    0  0.21592593260E+02 -0.22364343129E+02 -0.34934447677E+02  0.46763442578E+02  0.00000000000E+00 0.  1.
         11    1    1    2    0    0 -0.65594556418E+02 -0.12789013838E+02 -0.20249371611E+03  0.21323674583E+03  0.00000000000E+00 0. -1.
</event>
<event>
 7    1  0.2690635E-009  0.1127320E+03  0.7561462E-02  0.1255593E+00
         -2   -1    0    0    0  501 -0.00000000000E+00  0.00000000000E+00  0.18467955088E+02  0.18467955088E+02  0.00000000000E+00 0.  1.
          2   -1    0    0  501    0  0.00000000000E+00 -0.00000000000E+00 -0.72255431597E+03  0.72255431597E+03  0.00000000000E+00 0. -1.
         25    2    1    2    0    0 -0.43095741486E+01  0.44233974118E+02 -0.42915717010E+03  0.44921964234E+03  0.12508874258E+03 0.  0.
          5    1    3    3  502    0  0.55405553609E+02  0.82699049646E+00 -0.13677567862E+03  0.14763305167E+03  0.41800000000E+01 0.  1.
         -5    1    3    3    0  502 -0.59715127757E+02  0.43406983621E+02 -0.29238149148E+03  0.30158659067E+03  0.41800000000E+01 0.  1.
        -11    1    1    2    0    0 -0.38912796214E+02 -0.84046832202E+01 -0.14269078222E+03  0.14814014898E+03  0.00000000000E+00 0. -1.
         11    1    1    2    0    0  0.43222370363E+02 -0.35829290898E+02 -0.13223840856E+03  0.14366247974E+03  0.00000000000E+00 0.  1.
</event>
<event>
 7    1  0.2690635E-009  0.2095926E+03  0.7561462E-02  0.1141889E+00
          1   -1    0    0  501    0  0.00000000000E+00  0.00000000000E+00  0.14143683463E+04  0.14143683463E+04  0.00000000000E+00 0. -1.
         -1   -1    0    0    0  501 -0.00000000000E+00 -0.00000000000E+00 -0.33124011191E+02  0.33124011191E+02  0.00000000000E+00 0.  1.
         25    2    1    2    0    0  0.18324838229E+03  0.35466526568E+02  0.67673439588E+03  0.71306052817E+03  0.12509208665E+03 0.  0.
          5    1    3    3  502    0  0.32970936204E+02  0.63507871730E+02  0.20698316586E+03  0.21904299978E+03  0.41800000000E+01 0. -1.
         -5    1    3    3    0  502  0.15027744609E+03 -0.28041345161E+02  0.46975123003E+03  0.49401752839E+03  0.41800000000E+01 0. -1.
        -11    1    1    2    0    0 -0.11126454931E+03 -0.48583793545E+02  0.55311034826E+03  0.56627841410E+03  0.00000000000E+00 0. -1.
         11    1    1    2    0    0 -0.71983832986E+02  0.13117266977E+02  0.15139959095E+03  0.16815341520E+03  0.00000000000E+00 0.  1.
</event>
<event>
 7    1  0.2690635E-009  0.8922667E+02  0.7561462E-02  0.1304735E+00
          1   -1    0    0  501    0  0.00000000000E+00  0.00000000000E+00  0.26806495507E+03  0.26806495507E+03  0.00000000000E+00 0. -1.
         -1   -1    0    0    0  501 -0.00000000000E+00 -0.00000000000E+00 -0.66448430595E+02  0.66448430595E+02  0.00000000000E+00 0.  1.
         25    2    1    2    0    0 -0.18806922592E+01 -0.50127865587E+02  0.18711340001E+03  0.23059806460E+03  0.12509077912E+03 0.  0.
          5    1    3    3  502    0  0.28227610927E+02 -0.75815215419E+02  0.70529599825E+02  0.10740876016E+03  0.41800000000E+01 0. -1.
         -5    1    3    3    0  502 -0.30108303186E+02  0.25687349831E+02  0.11658380019E+03  0.12318930444E+03  0.41800000000E+01 0. -1.
        -11    1    1    2    0    0  0.15036295014E+02  0.30715207906E+02  0.50478319242E+02  0.60971918766E+02  0.00000000000E+00 0. -1.
         11    1    1    2    0    0 -0.13155602755E+02  0.19412657682E+02 -0.35975194776E+02  0.42943402303E+02  0.00000000000E+00 0.  1.
</event>
<event>
 7    1  0.2690635E-009  0.1431026E+03  0.7561462E-02  0.1209214E+00
         -1   -1    0    0    0  501 -0.00000000000E+00  0.00000000000E+00  0.61699391276E+02  0.61699391276E+02  0.00000000000E+00 0.  1.
          1   -1    0    0  501    0  0.00000000000E+00 -0.00000000000E+00 -0.53602288757E+03  0.53602288757E+03  0.00000000000E+00 0. -1.
         25    2    1    2    0    0 -0.14495110185E+02  0.95655777708E+02 -0.42796530493E+03  0.45624854791E+03  0.12509316214E+03 0.  0.
          5    1    3    3  502    0 -0.53837202570E+02  0.10129476044E+03 -0.27168385022E+03  0.29493839991E+03  0.41800000000E+01 0.  1.
         -5    1    3    3    0  502  0.39342092385E+02 -0.56389827293E+01 -0.15628145472E+03  0.16131014800E+03  0.41800000000E+01 0.  1.
        -11    1    1    2    0    0 -0.35416508870E+01 -0.10897406883E+03 -0.28193122803E+02  0.11261768575E+03  0.00000000000E+00 0.  1.
         11    1    1    2    0    0  0.18036761072E+02  0.13318291126E+02 -0.18165068564E+02  0.28856045197E+02  0.00000000000E+00 0. -1.
</event>
<event>
 7    1  0.2690635E-009  0.9362394E+02  0.7561462E-02  0.1294306E+00
         -1   -1    0    0    0  501 -0.00000000000E+00  0.00000000000E+00  0.10504916674E+03  0.10504916674E+03  0.00000000000E+00 0.  1.
          1   -1    0    0  501    0  0.00000000000E+00 -0.00000000000E+00 -0.11216268227E+03  0.11216268227E+03  0.00000000000E+00 0. -1.
         25    2    1    2    0    0 -0.59714761674E+01  0.94419780312E+01 -0.78770825838E+01  0.12583351363E+03  0.12508882942E+03 0.  0.
          5    1    3    3  502    0 -0.57944236615E+02  0.53008217131E+01 -0.33838691543E+02  0.67440067564E+02  0.41800000000E+01 0.  1.
         -5    1    3    3    0  502  0.51972760447E+02  0.41411563182E+01  0.25961608959E+02  0.58393446070E+02  0.41800000000E+01 0.  1.
        -11    1    1    2    0    0  0.38243540495E+02 -0.19333952573E+02 -0.24367204163E+02  0.49296356360E+02  0.00000000000E+00 0. -1.
         11    1    1    2    0    0 -0.32272064328E+02  0.98919745422E+01  0.25130771210E+02  0.42081979016E+02  0.00000000000E+00 0.  1.
</event>
<event>
 7    1  0.2690635E-009  0.1219901E+03  0.7561462E-02  0.1239850E+00
          1   -1    0    0  501    0  0.00000000000E+00  0.00000000000E+00  0.55687736240E+02  0.55687736240E+02  0.00000000000E+00 0. -1.
         -1   -1    0    0    0  501 -0.00000000000E+00 -0.00000000000E+00 -0.29133528755E+03  0.29133528755E+03  0.00000000000E+00 0.  1.
         25    2    1    2    0    0  0.50129728328E+01  0.64464501307E+02 -0.15008774397E+03  0.20579910643E+03  0.12508452940E+03 0.  0.
          5    1    3    3  502    0 -0.54809972368E+02  0.30561920780E+02 -0.35838818494E+02  0.72388240646E+02  0.41800000000E+01 0.  1.
         -5    1    3    3    0  502  0.59822945201E+02  0.33902580527E+02 -0.11424892547E+03  0.13341086579E+03  0.41800000000E+01 0.  1.
        -11    1    1    2    0    0  0.22457930023E+02  0.15736457419E+02 -0.17758995686E+02  0.32670730644E+02  0.00000000000E+00 0.  1.
         11    1    1    2    0    0 -0.27470902856E+02 -0.80200958726E+02 -0.67800811663E+02  0.10855318672E+03  0.00000000000E+00 0. -1.
</event>
<event>
 7    1  0.2690635E-009  0.1883118E+03  0.7561462E-02  0.1159993E+00
          2   -1    0    0  501    0  0.00000000000E+00  0.00000000000E+00  0.13898349010E+04  0.13898349010E+04  0.00000000000E+00 0.  1.
         -2   -1    0    0    0  501 -0.00000000000E+00 -0.00000000000E+00 -0.28773809930E+02  0.28773809930E+02  0.00000000000E+00 0. -1.
         25    2    1    2    0    0  0.94783543740E+02 -0.13797235709E+03  0.67421452077E+03  0.70585776727E+03  0.12509866548E+03 0.  0.
          5    1    3    3  502    0 -0.99334173584E+01  0.10635848832E+02  0.12569942976E+02  0.19679174963E+02  0.41800000000E+01 0.  1.
         -5    1    3    3    0  502  0.10471696110E+03 -0.14860820592E+03  0.66164457780E+03  0.68617859230E+03  0.41800000000E+01 0.  1.
        -11    1    1    2    0    0 -0.10381220470E+03  0.11484792618E+03  0.65095425752E+03  0.66911020421E+03  0.00000000000E+00 0.  1.
         11    1    1    2    0    0  0.90286609573E+01  0.23124430913E+02  0.35892312775E+02  0.43640739454E+02  0.00000000000E+00 0. -1.
</event>
<event>
 7    1  0.2690635E-009  0.1093593E+03  0.7561462E-02  0.1261761E+00
         -2   -1    0    0    0  501 -0.00000000000E+00  0.00000000000E+00  0.70034040392E+02  0.70034040392E+02  0.00000000000E+00 0. -1.
          2   -1    0    0  501    0  0.00000000000E+00 -0.00000000000E+00 -0.28446053719E+03  0.28446053719E+03  0.00000000000E+00 0.  1.
         25    2    1    2    0    0 -0.78261973820E+02  0.43190203396E+02 -0.11170347610E+03  0.19004720483E+03  0.12509973331E+03 0.  0.
          5    1    3    3  502    0 -0.25371405709E+02  0.19111871983E+02  0.25524534196E+02  0.40962740683E+02  0.41800000000E+01 0.  1.
         -5    1    3    3    0  502 -0.52890568111E+02  0.24078331413E+02 -0.13722801030E+03  0.14908446415E+03  0.41800000000E+01 0.  1.
        -11    1    1    2    0    0  0.99564141997E+02 -0.33903165428E+02 -0.84009143793E+02  0.13461047225E+03  0.00000000000E+00 0. -1.
         11    1    1    2    0    0 -0.21302168177E+02 -0.92870379677E+01 -0.18713876905E+02  0.29836900511E+02  0.00000000000E+00 0.  1.
</event>
<event>
 7    1  0.2690635E-009  0.1251097E+03  0.7561462E-02  0.1234898E+00
         -2   -1    0    0    0  501 -0.00000000000E+00  0.00000000000E+00  0.50843671979E+03  0.50843671979E+03  0.00000000000E+00 0.  1.
          2   -1    0    0  501    0  0.00000000000E+00 -0.00000000000E+00 -0.40438642587E+02  0.40438642587E+02  0.00000000000E+00 0. -1.
         25    2    1    2    0    0  0.99994392908E+01  0.91758793763E+02  0.29791654347E+03  0.33603840536E+03  0.12509147847E+03 0.  0.
          5    1    3    3  502    0 -0.32590613888E+02  0.15368885143E+02  0.13925448561E+02  0.38855389095E+02  0.41800000000E+01 0.  1.
         -5    1    3    3    0  502  0.42590053179E+02  0.76389908620E+02  0.28399109491E+03  0.29718301627E+03  0.41800000000E+01 0.  1.
        -11    1    1    2    0    0  0.30285712657E+02 -0.78231461480E+02  0.12792938597E+03  0.15298141636E+03  0.00000000000E+00 0.  1.
         11    1    1    2    0    0 -0.40285151948E+02 -0.13527332282E+02  0.42152147760E+02  0.59855540654E+02  0.00000000000E+00 0. -1.
</event>
<event>
 7    1  0.2690635E-009  0.1379402E+03  0.7561462E-02  0.1216128E+00
          1   -1    0    0  501    0  0.00000000000E+00  0.00000000000E+00  0.58848613580E+02  0.58848613580E+02  0.00000000000E+00 0. -1.
         -1   -1    0    0    0  501 -0.00000000000E+00 -0.00000000000E+00 -0.42538406519E+03  0.42538406519E+03  0.00000000000E+00 0.  1.
         25    2    1    2    0    0 -0.52975958878E+01 -0.11379749111E+03 -0.17756471239E+03  0.24526382803E+03  0.12508870752E+03 0.  0.
          5    1    3    3  502    0  0.80421191347E+01  0.55229963795E+01 -0.10368820316E+03  0.10423001029E+03  0.41800000000E+01 0. -1.
         -5    1    3    3    0  502 -0.13339715023E+02 -0.11932048749E+03 -0.73876509233E+02  0.14103381775E+03  0.41800000000E+01 0. -1.
        -11    1    1    2    0    0 -0.11175719789E+02 -0.13070597525E+02 -0.33260523000E+02  0.37443285415E+02  0.00000000000E+00 0.  1.
         11    1    1    2    0    0  0.16473315677E+02  0.12686808864E+03 -0.15571021621E+03  0.20152556532E+03  0.00000000000E+00 0. -1.
</event>
<event>
 7    1  0.2690635E-009  0.1175072E+03  0.7561462E-02  0.1247267E+00
          1   -1    0    0  501    0  0.00000000000E+00  0.00000000000E+00  0.32529032575E+02  0.32529032575E+02  0.00000000000E+00 0. -1.
         -1   -1    0    0    0  501 -0.00000000000E+00 -0.00000000000E+00 -0.68746891580E+03  0.68746891580E+03  0.00000000000E+00 0.  1.
         25    2    1    2    0    0  0.12495316758E+02  0.92883238372E+02 -0.25607461747E+03  0.30000679026E+03  0.12508571293E+03 0.  0.
          5    1    3    3  502    0 -0.15818181494E+02  0.54247973769E+02 -0.21577300595E+02  0.60630931255E+02  0.41800000000E+01 0. -1.
         -5    1    3    3    0  502  0.28313498252E+02  0.38635264603E+02 -0.23449731687E+03  0.23937585901E+03  0.41800000000E+01 0. -1.
        -11    1    1    2    0    0  0.35646672244E+02 -0.66305959680E+02 -0.20131701716E+03  0.21493186578E+03  0.00000000000E+00 0. -1.
         11    1    1    2    0    0 -0.48141989002E+02 -0.26577278692E+02 -0.19754824860E+03  0.20505929234E+03  0.00000000000E+00 0.  1.
</event>
<event>
 7    1  0.2690635E-009  0.8530819E+02  0.7561462E-02  0.1314629E+00
          1   -1    0    0  501    0  0.00000000000E+00  0.00000000000E+00  0.20287923769E+03  0.20287923769E+03  0.00000000000E+00 0. -1.
         -1   -1    0    0    0  501 -0.00000000000E+00 -0.00000000000E+00 -0.67007827638E+02  0.67007827638E+02  0.00000000000E+00 0.  1.
         25    2    1    2    0    0 -0.11004155285E+02  0.26758308598E+02  0.11175394095E+03  0.17021142652E+03  0.12508352365E+03 0.  0.
          5    1    3    3  502    0 -0.50123789113E+02 -0.44480013257E+01  0.31881632457E+01  0.50594621608E+02  0.41800000000E+01 0. -1.
         -5    1    3    3    0  502  0.39119633828E+02  0.31206309924E+02  0.10856577770E+03  0.11961680491E+03  0.41800000000E+01 0. -1.
        -11    1    1    2    0    0  0.28644180738E+02 -0.39033217040E+02 -0.18593093245E+02  0.51863129861E+02  0.00000000000E+00 0.  1.
         11    1    1    2    0    0 -0.17640025453E+02  0.12274908442E+02  0.42710562346E+02  0.47812508940E+02  0.00000000000E+00 0. -1.
</event>
<event>
 7    1  0.2690635E-009  0.1315931E+03  0.7561462E-02  0.1225111E+00
         -1   -1    0    0    0  501 -0.00000000000E+00  0.00000000000E+00  0.13208884729E+02  0.13208884729E+02  0.00000000000E+00 0.  1.
          1   -1    0    0  501    0  0.00000000000E+00 -0.00000000000E+00 -0.14290706090E+04  0.14290706090E+04  0.00000000000E+00 0. -1.
         25    2    1    2    0    0  0.73685836985E+02 -0.30592420961E+02 -0.81867510023E+03  0.83201089019E+03  0.12509077850E+03 0.  0.
          5    1    3    3  502    0 -0.92750067225E+01 -0.55927048516E+02 -0.43070352550E+03  0.43443855697E+03  0.41800000000E+01 0.  1.
         -5    1    3    3    0  502  0.82960843707E+02  0.25334627555E+02 -0.38797157472E+03  0.39757233321E+03  0.41800000000E+01 0.  1.
        -11    1    1    2    0    0  0.20480553088E+02 -0.19378389525E-01 -0.47381823521E+02  0.51618704270E+02  0.00000000000E+00 0.  1.
         11    1    1    2    0    0 -0.94166390072E+02  0.30611799350E+02 -0.54980480055E+03  0.55864989930E+03  0.00000000000E+00 0. -1.
</event>
<event>
 7    1  0.2690635E-009  0.2545039E+03  0.7561462E-02  0.1110491E+00
         -2   -1    0    0    0  501 -0.00000000000E+00  0.00000000000E+00  0.64862965382E+02  0.64862965382E+02  0.00000000000E+00 0.  1.
          2   -1    0    0  501    0  0.00000000000E+00 -0.00000000000E+00 -0.11872014863E+04  0.11872014863E+04  0.00000000000E+00 0. -1.
         25    2    1    2    0    0 -0.22073450089E+03  0.12392712823E+03 -0.50529452511E+03  0.57883680598E+03  0.12509131806E+03 0.  0.
          5    1    3    3  502    0 -0.15148155378E+03  0.79196802677E+02 -0.20270632993E+03  0.26519073002E+03  0.41800000000E+01 0.  1.
         -5    1    3    3    0  502 -0.69252947109E+02  0.44730325551E+02 -0.30258819518E+03  0.31364607596E+03  0.41800000000E+01 0.  1.
        -11    1    1    2    0    0  0.15749871468E+03 -0.69952458034E+02 -0.30523041125E+03  0.35052074897E+03  0.00000000000E+00 0.  1.
         11    1    1    2    0    0  0.63235786214E+02 -0.53974670194E+02 -0.31181358459E+03  0.32270689676E+03  0.00000000000E+00 0. -1.
</event>
<event>
 7    1  0.2690635E-009  0.1732970E+03  0.7561462E-02  0.1174453E+00
         -1   -1    0    0    0  501 -0.00000000000E+00  0.00000000000E+00  0.73288736418E+02  0.73288736418E+02  0.00000000000E+00 0.  1.
          1   -1    0    0  501    0  0.00000000000E+00 -0.00000000000E+00 -0.49768974372E+03  0.49768974372E+03  0.00000000000E+00 0. -1.
         25    2    1    2    0    0 -0.13471425746E+03  0.67608391916E+02 -0.14404582919E+03  0.24313584173E+03  0.12508801223E+03 0.  0.
          5    1    3    3  502    0 -0.30745516321E+02  0.78463446433E+02 -0.33078058127E+02  0.90627973217E+02  0.41800000000E+01 0.  1.
         -5    1    3    3    0  502 -0.10396874114E+03 -0.10855054516E+02 -0.11096777106E+03  0.15250786851E+03  0.41800000000E+01 0.  1.
        -11    1    1    2    0    0  0.12206995275E+03 -0.74691234721E+02 -0.27864942589E+03  0.31324967112E+03  0.00000000000E+00 0. -1.
         11    1    1    2    0    0  0.12644304707E+02  0.70828428043E+01 -0.17057522197E+01  0.14592967290E+02  0.00000000000E+00 0.  1.
</event>
<event>
 7    1  0.2690635E-009  0.1048231E+03  0.7561462E-02  0.1270469E+00
         -2   -1    0    0    0  501 -0.00000000000E+00  0.00000000000E+00  0.10967470407E+03  0.10967470407E+03  0.00000000000E+00 0.  1.
          2   -1    0    0  501    0  0.00000000000E+00 -0.00000000000E+00 -0.11449213178E+03  0.11449213178E+03  0.00000000000E+00 0. -1.
         25    2    1    2    0    0 -0.87321218356E+01  0.15771603408E+02  0.19032583791E+02  0.12780040146E+03  0.12508281234E+03 0.  0.
          5    1    3    3  502    0  0.24578916221E+02 -0.45894965535E+02 -0.74515569047E+01  0.52758592517E+02  0.41800000000E+01 0.  1.
         -5    1    3    3    0  502 -0.33311038057E+02  0.61666568943E+02  0.26484140696E+02  0.75041808947E+02  0.41800000000E+01 0.  1.
        -11    1    1    2    0    0 -0.24441392014E+02 -0.39476851647E+02 -0.29786476816E+02  0.55163735014E+02  0.00000000000E+00 0. -1.
         11    1    1    2    0    0  0.33173513849E+02  0.23705248239E+02  0.59364653066E+01  0.41202699372E+02  0.00000000000E+00 0.  1.
</event>
<event>
 7    1  0.2690635E-009  0.1073488E+03  0.7561462E-02  0.1265560E+00
          2   -1    0    0  501    0  0.00000000000E+00  0.00000000000E+00  0.31439191096E+03  0.31439191096E+03  0.00000000000E+00 0. -1.
         -2   -1    0    0    0  501 -0.00000000000E+00 -0.00000000000E+00 -0.81553843530E+02  0.81553843530E+02  0.00000000000E+00 0.  1.
         25    2    1    2    0    0  0.48289382884E+02  0.18879574236E+02  0.25398502668E+03  0.28782818240E+03  0.12509342902E+03 0.  0.
          5    1    3    3  502    0  0.87564057251E+02 -0.51806647493E+01  0.14630801150E+03  0.17063941525E+03  0.41800000000E+01 0.  1.
         -5    1    3    3    0  502 -0.39274674367E+02  0.24060238986E+02  0.10767701518E+03  0.11718876714E+03  0.41800000000E+01 0.  1.
        -11    1    1    2    0    0 -0.57702351090E+02 -0.30828824503E+02  0.16537034896E+02  0.67479265443E+02  0.00000000000E+00 0. -1.
         11    1    1    2    0    0  0.94129682053E+01  0.11949250267E+02 -0.37683994146E+02  0.40638306647E+02  0.00000000000E+00 0.  1.
</event>
<event>
 7    1  0.2690635E-009  0.1904204E+03  0.7561462E-02  0.1158083E+00
         -1   -1    0    0    0  501 -0.00000000000E+00  0.00000000000E+00  0.81314757244E+03  0.81314757244E+03  0.00000000000E+00 0. -1.
          1   -1    0    0  501    0  0.00000000000E+00 -0.00000000000E+00 -0.46110677713E+02  0.46110677713E+02  0.00000000000E+00 0.  1.
         25    2    1    2    0    0  0.13187562512E+03  0.89245593625E+02  0.43357752994E+03  0.47853189428E+03  0.12508933963E+03 0.  0.
          5    1    3    3  502    0  0.14037748563E+03  0.31939056308E+02  0.29531199112E+03  0.32856138892E+03  0.41800000000E+01 0.  1.
         -5    1    3    3    0  502 -0.85018605129E+01  0.57306537317E+02  0.13826553882E+03  0.14997050536E+03  0.41800000000E+01 0.  1.
        -11    1    1    2    0    0 -0.54130751600E+02 -0.85123085247E+02  0.23081858133E+03  0.25189937554E+03  0.00000000000E+00 0. -1.
         11    1    1    2    0    0 -0.77744873518E+02 -0.41225083777E+01  0.10264078345E+03  0.12882698033E+03  0.00000000000E+00 0.  1.
</event>
<event>
 7    1  0.2690635E-009  0.9586062E+02  0.7561462E-02  0.1289249E+00
         -2   -1    0    0    0  501 -0.00000000000E+00  0.00000000000E+00  0.33878752242E+03  0.33878752242E+03  0.00000000000E+00 0.  1.
          2   -1    0    0  501    0  0.00000000000E+00 -0.00000000000E+00 -0.51810894743E+02  0.51810894743E+02  0.00000000000E+00 0. -1.
         25    2    1    2    0    0  0.61987174309E+02 -0.70764467005E+01  0.21586869442E+03  0.25717546138E+03  0.12508972312E+03 0.  0.
          5    1    3    3  502    0  0.70285120986E+02 -0.23470888447E+02  0.48300629467E+02  0.88551138013E+02  0.41800000000E+01 0.  1.
         -5    1    3    3    0  502 -0.82979466770E+01  0.16394441747E+02  0.16756806495E+03  0.16862432337E+03  0.41800000000E+01 0.  1.
        -11    1    1    2    0    0  0.12300402707E+02  0.19780094607E+02  0.49996217376E+02  0.55155904501E+02  0.00000000000E+00 0.  1.
         11    1    1    2    0    0 -0.74287577016E+02 -0.12703647906E+02  0.21111715883E+02  0.78267051283E+02  0.00000000000E+00 0. -1.
</event>
<event>
 7    1  0.2690635E-009  0.1131188E+03  0.7561462E-02  0.1254901E+00
          2   -1    0    0  501    0  0.00000000000E+00  0.00000000000E+00  0.43581688992E+03  0.43581688992E+03  0.00000000000E+00 0. -1.
         -2   -1    0    0    0  501 -0.00000000000E+00 -0.00000000000E+00 -0.52190805261E+02  0.52190805261E+02  0.00000000000E+00 0.  1.
         25    2    1    2    0    0  0.19602338939E+01  0.79349413334E+02  0.98951350031E+02  0.17815492663E+03  0.12509051241E+03 0.  0.
          5    1    3    3  502    0 -0.43589154277E+02 -0.80986259893E+00  0.67862284891E+02  0.80767768068E+02  0.41800000000E+01 0. -1.
         -5    1    3    3    0  502  0.45549388171E+02  0.80159275933E+02  0.31089065140E+02  0.97387158558E+02  0.41800000000E+01 0. -1.
        -11    1    1    2    0    0  0.17679967955E+02 -0.16068898374E+02  0.77576541728E+01  0.25119155242E+02  0.00000000000E+00 0.  1.
         11    1    1    2    0    0 -0.19640201849E+02 -0.63280514960E+02  0.27691708046E+03  0.28473361331E+03  0.00000000000E+00 0. -1.
</event>
<event>
 7    1  0.2690635E-009  0.7928834E+02  0.7561462E-02  0.1331083E+00
          2   -1    0    0  501    0  0.00000000000E+00  0.00000000000E+00  0.32129870392E+02  0.32129870392E+02  0.00000000000E+00 0. -1.
         -2   -1    0    0    0  501 -0.00000000000E+00 -0.00000000000E+00 -0.55381341381E+03  0.55381341381E+03  0.00000000000E+00 0.  1.
         25    2    1    2    0    0 -0.37707680292E+02  0.24359716052E+02 -0.14349806084E+03  0.19558653690E+03  0.12508850879E+03 0.  0.
          5    1    3    3  502    0  0.88635685735E+01 -0.71894620265E+01  0.19570657901E+02  0.23037670515E+02  0.41800000000E+01 0. -1.
         -5    1    3    3    0  502 -0.46571248865E+02  0.31549178078E+02 -0.16306871874E+03  0.17254886638E+03  0.41800000000E+01 0. -1.
        -11    1    1    2    0    0  0.60424412949E+02 -0.58386205072E+01 -0.31374125636E+03  0.31956028401E+03  0.00000000000E+00 0.  1.
         11    1    1    2    0    0 -0.22716732658E+02 -0.18521095545E+02 -0.64444226212E+02  0.70796463293E+02  0.00000000000E+00 0. -1.
</event>
<event>
 7    1  0.2690635E-009  0.9201748E+02  0.7561462E-02  0.1298038E+00
          2   -1    0    0  501    0  0.00000000000E+00  0.00000000000E+00  0.31991237426E+03  0.31991237426E+03  0.00000000000E+00 0. -1.
         -2   -1    0    0    0  501 -0.00000000000E+00 -0.00000000000E+00 -0.31899362530E+02  0.31899362530E+02  0.00000000000E+00 0.  1.
         25    2    1    2    0    0 -0.15545799995E+02 -0.43553505307E+02  0.22594272639E+03  0.26236413455E+03  0.12508494620E+03 0.  0.
          5    1    3    3  502    0 -0.68867005739E+02 -0.30861647651E+02  0.15652076701E+03  0.17381406353E+03  0.41800000000E+01 0.  1.
         -5    1    3    3    0  502  0.53321205744E+02 -0.12691857656E+02  0.69421959377E+02  0.88550071013E+02  0.41800000000E+01 0.  1.
        -11    1    1    2    0    0  0.22535284966E+02  0.25003856200E+02  0.60908533597E+02  0.69590813749E+02  0.00000000000E+00 0. -1.
         11    1    1    2    0    0 -0.69894849706E+01  0.18549649107E+02  0.11617517408E+01  0.19856788493E+02  0.00000000000E+00 0.  1.
</event>
<event>
 7    1  0.2690635E-009  0.1609082E+03  0.7561462E-02  0.1187675E+00
         -1   -1    0    0    0  501 -0.00000000000E+00  0.00000000000E+00  0.75470883693E+02  0.75470883693E+02  0.00000000000E+00 0.  1.
          1   -1    0    0  501    0  0.00000000000E+00 -0.00000000000E+00 -0.46029730509E+03  0.46029730509E+03  0.00000000000E+00 0. -1.
         25    2    1    2    0    0 -0.68338077641E+02 -0.13527889590E+03 -0.20713346421E+03  0.28552021618E+03  0.12508816618E+03 0.  0.
          5    1    3    3  502    0 -0.25355107918E+02 -0.93619153101E+02 -0.34951110957E+02  0.10318178077E+03  0.41800000000E+01 0.  1.
         -5    1    3    3    0  502 -0.42982969723E+02 -0.41659742798E+02 -0.17218235326E+03  0.18233843541E+03  0.41800000000E+01 0.  1.
        -11    1    1    2    0    0  0.59188955305E+02  0.45944265479E+02 -0.12609772700E+03  0.14667939431E+03  0.00000000000E+00 0. -1.
         11    1    1    2    0    0  0.91491223362E+01  0.89334630420E+02 -0.51595230179E+02  0.10356857829E+03  0.00000000000E+00 0.  1.
</event>
<event>
 7    1  0.2690635E-009  0.1095233E+03  0.7561462E-02  0.1261455E+00
          4   -1    0    0  501    0  0.00000000000E+00  0.00000000000E+00  0.58017266171E+03  0.58017266171E+03  0.00000000000E+00 0. -1.
         -4   -1    0    0    0  501 -0.00000000000E+00 -0.00000000000E+00 -0.22790729346E+02  0.22790729346E+02  0.00000000000E+00 0.  1.
         25    2    1    2    0    0 -0.32795516992E+02  0.27334949270E+01  0.25544276181E+03  0.28632229494E+03  0.12508570696E+03 0.  0.
          5    1    3    3  502    0 -0.75623946327E+02  0.21486404002E+02  0.19105766317E+03  0.20664256549E+03  0.41800000000E+01 0. -1.
         -5    1    3    3    0  502  0.42828429335E+02 -0.18752909075E+02  0.64385098643E+02  0.79679729451E+02  0.41800000000E+01 0. -1.
        -11    1    1    2    0    0  0.27581646417E+02  0.40956512613E+02  0.19139851509E+03  0.19766530986E+03  0.00000000000E+00 0. -1.
         11    1    1    2    0    0  0.52138705744E+01 -0.43690007540E+02  0.11054065546E+03  0.11897578625E+03  0.00000000000E+00 0.  1.
</event>
<event>
 7    1  0.2690635E-009  0.2585621E+03  0.7561462E-02  0.1108010E+00
         -2   -1    0    0    0  501 -0.00000000000E+00  0.00000000000E+00  0.40007324305E+03  0.40007324305E+03  0.00000000000E+00 0. -1.
          2   -1    0    0  501    0  0.00000000000E+00 -0.00000000000E+00 -0.25318291511E+03  0.25318291511E+03  0.00000000000E+00 0.  1.
         25    2    1    2    0    0 -0.22290935150E+03 -0.11047476800E+03  0.24741946745E+03  0.37250186239E+03  0.12509193125E+03 0.  0.
          5    1    3    3  502    0 -0.79717142253E+02  0.10888131587E+02  0.31848181863E+02  0.86632287667E+02  0.41800000000E+01 0. -1.
         -5    1    3    3    0  502 -0.14319220925E+03 -0.12136289959E+03  0.21557128559E+03  0.28586957473E+03  0.41800000000E+01 0. -1.
        -11    1    1    2    0    0  0.17529624346E+03  0.85292788081E+02 -0.38691052286E+02  0.19874765457E+03  0.00000000000E+00 0. -1.
         11    1    1    2    0    0  0.47613108037E+02  0.25181979918E+02 -0.61838087222E+02  0.82006641199E+02  0.00000000000E+00 0.  1.
</event>
<event>
 7    1  0.2730909E-009  0.7640019E+02  0.7561462E-02  0.1339589E+00
          1   -1    0    0  501    0  0.00000000000E+00  0.00000000000E+00  0.98523854900E+02  0.98523854900E+02  0.00000000000E+00 0.  1.
         -1   -1    0    0    0  501 -0.00000000000E+00 -0.00000000000E+00 -0.15019491077E+03  0.15019491077E+03  0.00000000000E+00 0. -1.
         25    2    1    2    0    0 -0.20691225594E+02  0.37306767590E+02  0.68789305046E+01  0.13234333725E+03  0.12509003759E+03 0.  0.
          5    1    3    3  502    0  0.14363317799E+02  0.63789050458E+02  0.40356106315E+02  0.76950864670E+02  0.41800000000E+01 0. -1.
         -5    1    3    3    0  502 -0.35054543393E+02 -0.26482282869E+02 -0.33477175811E+02  0.55392472581E+02  0.41800000000E+01 0. -1.
        -11    1    1    2    0    0  0.14192320781E+02 -0.18946714718E+02  0.22715624106E+02  0.32808528560E+02  0.00000000000E+00 0.  1.
         11    1    1    2    0    0  0.64989048132E+01 -0.18360052872E+02 -0.81265610485E+02  0.83566899863E+02  0.00000000000E+00 0. -1.
</event>
<event>
 7    1  0.2690635E-009  0.1032951E+03  0.7561462E-02  0.1273516E+00
         -2   -1    0    0    0  501 -0.00000000000E+00  0.00000000000E+00  0.26620147697E+03  0.26620147697E+03  0.00000000000E+00 0.  1.
          2   -1    0    0  501    0  0.00000000000E+00 -0.00000000000E+00 -0.52721369903E+02  0.52721369903E+02  0.00000000000E+00 0. -1.
         25    2    1    2    0    0  0.15631842574E+02 -0.10675222385E+02  0.69285431072E+02  0.14424268157E+03  0.12508862998E+03 0.  0.
          5    1    3    3  502    0  0.13671027778E+02 -0.67748473483E+02  0.38941307274E+02  0.79439602668E+02  0.41800000000E+01 0.  1.
         -5    1    3    3    0  502  0.19608147957E+01  0.57073251098E+02  0.30344123798E+02  0.64803078898E+02  0.41800000000E+01 0.  1.
        -11    1    1    2    0    0 -0.44817218534E+02 -0.78813774943E+01  0.27958109762E+02  0.53407444142E+02  0.00000000000E+00 0. -1.
         11    1    1    2    0    0  0.29185375959E+02  0.18556599879E+02  0.11623656624E+03  0.12127272117E+03  0.00000000000E+00 0.  1.
</event>
<event>
 7    1  0.2690635E-009  0.9217413E+02  0.7561462E-02  0.1297671E+00
          2   -1    0    0  501    0  0.00000000000E+00  0.00000000000E+00  0.50775586857E+03  0.50775586857E+03  0.00000000000E+00 0. -1.
         -2   -1    0    0    0  501 -0.00000000000E+00 -0.00000000000E+00 -0.25169672292E+02  0.25169672292E+02  0.00000000000E+00 0.  1.
         25    2    1    2    0    0  0.20191675794E+02 -0.12606719987E+02  0.31197083114E+03  0.33695458901E+03  0.12508382155E+03 0.  0.
          5    1    3    3  502    0  0.65488224764E+02 -0.36126754255E+02  0.20751005117E+03  0.22061673484E+03  0.41800000000E+01 0.  1.
         -5    1    3    3    0  502 -0.45296548971E+02  0.23520034269E+02  0.10446077997E+03  0.11633785417E+03  0.41800000000E+01 0.  1.
        -11    1    1    2    0    0  0.14464211497E+01 -0.19477327708E+02 -0.14716552739E+01  0.19586326813E+02  0.00000000000E+00 0.  1.
         11    1    1    2    0    0 -0.21638096943E+02  0.32084047694E+02  0.17208702041E+03  0.17638462504E+03  0.00000000000E+00 0. -1.
</event>
<event>
 7    1  0.2690635E-009  0.1834073E+03  0.7561462E-02  0.1164546E+00
         -1   -1    0    0    0  501 -0.00000000000E+00  0.00000000000E+00  0.15730641995E+03  0.15730641995E+03  0.00000000000E+00 0.  1.
          1   -1    0    0  501    0  0.00000000000E+00 -0.00000000000E+00 -0.27075716702E+03  0.27075716702E+03  0.00000000000E+00 0. -1.
         25    2    1    2    0    0 -0.17110320302E+03 -0.38432678013E+02 -0.43424995012E+02  0.21974426434E+03  0.12509370367E+03 0.  0.
          5    1    3    3  502    0 -0.15938110019E+03 -0.56567396033E+02  0.20979360039E+01  0.16918652170E+03  0.41800000000E+01 0.  1.
         -5    1    3    3    0  502 -0.11722102831E+02  0.18134718020E+02 -0.45522931016E+02  0.50557742639E+02  0.41800000000E+01 0.  1.
        -11    1    1    2    0    0  0.39065918698E+02  0.13080417806E+02  0.20716882989E+02  0.46113258121E+02  0.00000000000E+00 0.  1.
         11    1    1    2    0    0  0.13203728432E+03  0.25352260207E+02 -0.90742635041E+02  0.16220606451E+03  0.00000000000E+00 0. -1.
</event>
<event>
 7    1  0.2690635E-009  0.9181646E+02  0.7561462E-02  0.1298512E+00
          1   -1    0    0  501    0  0.00000000000E+00  0.00000000000E+00  0.36349805519E+03  0.36349805519E+03  0.00000000000E+00 0. -1.
         -1   -1    0    0    0  501 -0.00000000000E+00 -0.00000000000E+00 -0.35919294842E+02  0.35919294842E+02  0.00000000000E+00 0.  1.
         25    2    1    2    0    0  0.24937680987E+02 -0.20069631771E+01  0.25584180392E+03  0.28588135388E+03  0.12508878460E+03 0.  0.
          5    1    3    3  502    0 -0.37912161102E+02 -0.36812262268E+02  0.13764856528E+03  0.14750279501E+03  0.41800000000E+01 0. -1.
         -5    1    3    3    0  502  0.62849842089E+02  0.34805299091E+02  0.11819323864E+03  0.13837855887E+03  0.41800000000E+01 0. -1.
        -11    1    1    2    0    0  0.38284490614E+01 -0.21296576144E+02  0.73354995793E+02  0.76479778932E+02  0.00000000000E+00 0. -1.
         11    1    1    2    0    0 -0.28766130048E+02  0.23303539321E+02 -0.16180393668E+01  0.37056217214E+02  0.00000000000E+00 0.  1.
</event>
<event>
 7    1  0.2690635E-009  0.2180257E+03  0.7561462E-02  0.1135364E+00
         -1   -1    0    0    0  501 -0.00000000000E+00  0.00000000000E+00  0.24983839091E+03  0.24983839091E+03  0.00000000000E+00 0.  1.
          1   -1    0    0  501    0  0.00000000000E+00 -0.00000000000E+00 -0.23575022321E+03  0.23575022321E+03  0.00000000000E+00 0. -1.
         25    2    1    2    0    0  0.93385724085E+01 -0.21040267850E+03  0.63272840270E+02  0.25299763808E+03  0.12509139261E+03 0.  0.
          5    1    3    3  502    0  0.39922049365E+02 -0.12387191342E+03 -0.16590850312E+02  0.13126595017E+03  0.41800000000E+01 0.  1.
         -5    1    3    3    0  502 -0.30583476957E+02 -0.86530765072E+02  0.79863690583E+02  0.12173168791E+03  0.41800000000E+01 0.  1.
        -11    1    1    2    0    0  0.91373659638E+01  0.14135947713E+02 -0.30162142996E+02  0.34540864851E+02  0.00000000000E+00 0. -1.
         11    1    1    2    0    0 -0.18475938372E+02  0.19626673078E+03 -0.19022529578E+02  0.19805011119E+03  0.00000000000E+00 0.  1.
</event>
<event>
 7    1  0.2690635E-009  0.8201204E+02  0.7561462E-02  0.1323437E+00
         -1   -1    0    0    0  501 -0.00000000000E+00  0.00000000000E+00  0.83933146116E+02  0.83933146116E+02  0.00000000000E+00 0.  1.
          1   -1    0    0  501    0  0.00000000000E+00 -0.00000000000E+00 -0.85788262830E+02  0.85788262830E+02  0.00000000000E+00 0. -1.
         25    2    1    2    0    0 -0.37339984184E+01  0.21134370781E+00  0.83503702684E+01  0.12542441372E+03  0.12509023728E+03 0.  0.
          5    1    3    3  502    0  0.30396202778E+02 -0.51844732451E+02  0.16613397681E+02  0.62492261991E+02  0.41800000000E+01 0. -1.
         -5    1    3    3    0  502 -0.34130201197E+02  0.52056076159E+02 -0.82630274126E+01  0.62932151725E+02  0.41800000000E+01 0. -1.
        -11    1    1    2    0    0  0.22562299132E+02  0.93988555121E-01 -0.11683922821E+02  0.25408270867E+02  0.00000000000E+00 0. -1.
         11    1    1    2    0    0 -0.18828300713E+02 -0.30533226293E+00  0.14784358390E+01  0.18888724363E+02  0.00000000000E+00 0.  1.
</event>
<event>
 7    1  0.2690635E-009  0.8803284E+02  0.7561462E-02  0.1307687E+00
          2   -1    0    0  501    0  0.00000000000E+00  0.00000000000E+00  0.10254453217E+04  0.10254453217E+04  0.00000000000E+00 0.  1.
         -2   -1    0    0    0  501 -0.00000000000E+00 -0.00000000000E+00 -0.15299495434E+02  0.15299495434E+02  0.00000000000E+00 0. -1.
         25    2    1    2    0    0 -0.51116054783E+02 -0.34455889319E+02  0.49467142320E+03  0.51395329817E+03  0.12509243147E+03 0.  0.
          5    1    3    3  502    0 -0.55861550712E+02 -0.29195729984E+02  0.50011555532E+03  0.50408922283E+03  0.41800000000E+01 0. -1.
         -5    1    3    3    0  502  0.47454959289E+01 -0.52601593348E+01 -0.54441321247E+01  0.98640753459E+01  0.41800000000E+01 0. -1.
        -11    1    1    2    0    0  0.72790778370E+02  0.38917696645E+02  0.45430151640E+03  0.46173905220E+03  0.00000000000E+00 0.  1.
         11    1    1    2    0    0 -0.21674723587E+02 -0.44618073262E+01  0.61172886656E+02  0.65052466740E+02  0.00000000000E+00 0. -1.
</event>
<event>
 7    1  0.2690635E-009  0.9785441E+02  0.7561462E-02  0.1284874E+00
          1   -1    0    0  501    0  0.00000000000E+00  0.00000000000E+00  0.18119276041E+03  0.18119276041E+03  0.00000000000E+00 0. -1.
         -1   -1    0    0    0  501 -0.00000000000E+00 -0.00000000000E+00 -0.92268616103E+02  0.92268616103E+02  0.00000000000E+00 0.  1.
         25    2    1    2    0    0 -0.39494171998E+02 -0.36937679361E+02  0.91133092936E+02  0.16394054684E+03  0.12508829079E+03 0.  0.
          5    1    3    3  502    0  0.15848850227E+02 -0.57493164395E+02  0.57627464397E+01  0.60061066027E+02  0.41800000000E+01 0. -1.
         -5    1    3    3    0  502 -0.55343022225E+02  0.20555485034E+02  0.85370346497E+02  0.10387948082E+03  0.41800000000E+01 0. -1.
        -11    1    1    2    0    0  0.25552899166E+02  0.50934406635E+02 -0.38102643516E+02  0.68549805820E+02  0.00000000000E+00 0.  1.
         11    1    1    2    0    0  0.13941272832E+02 -0.13996727274E+02  0.35893694887E+02  0.40971023848E+02  0.00000000000E+00 0. -1.
</event>
<event>
 7    1  0.2690635E-009  0.1213870E+03  0.7561462E-02  0.1240826E+00
          2   -1    0    0  501    0  0.00000000000E+00  0.00000000000E+00  0.73206474063E+02  0.73206474063E+02  0.00000000000E+00 0. -1.
         -2   -1    0    0    0  501 -0.00000000000E+00 -0.00000000000E+00 -0.23934153476E+03  0.23934153476E+03  0.00000000000E+00 0.  1.
         25    2    1    2    0    0 -0.24231157388E+02  0.19169289407E+01 -0.25766932688E+02  0.13000837935E+03  0.12508964896E+03 0.  0.
          5    1    3    3  502    0 -0.67567878157E+02 -0.28650118391E+02 -0.21750317963E+02  0.76660264635E+02  0.41800000000E+01 0. -1.
         -5    1    3    3    0  502  0.43336720769E+02  0.30567047332E+02 -0.40166147247E+01  0.53348114713E+02  0.41800000000E+01 0. -1.
        -11    1    1    2    0    0  0.51669810816E+02  0.40430331125E+02 -0.69879433816E+02  0.95851532565E+02  0.00000000000E+00 0. -1.
         11    1    1    2    0    0 -0.27438653428E+02 -0.42347260065E+02 -0.70488694193E+02  0.86688096911E+02  0.00000000000E+00 0.  1.
</event>
<event>
 7    1  0.3266381E-009  0.2704210E+03  0.7561462E-02  0.1101039E+00
         -2   -1    0    0    0  501 -0.00000000000E+00  0.00000000000E+00  0.42371068730E+02  0.42371068730E+02  0.00000000000E+00 0.  1.
          2   -1    0    0  501    0  0.00000000000E+00 -0.00000000000E+00 -0.19887338333E+04  0.19887338333E+04  0.00000000000E+00 0. -1.
         25    2    1    2    0    0 -0.20368676406E+03  0.17097985828E+03 -0.11291227030E+04  0.11667426143E+04  0.12509132589E+03 0.  0.
          5    1    3    3  502    0  0.17889601721E+01 -0.17420025578E+01  0.11685791707E+01  0.50072875578E+01  0.41800000000E+01 0. -1.
         -5    1    3    3    0  502 -0.20547572424E+03  0.17272186084E+03 -0.11302912822E+04  0.11617353267E+04  0.41800000000E+01 0. -1.
        -11    1    1    2    0    0  0.90130808756E+02 -0.57122730388E+02 -0.46600991592E+03  0.47807092648E+03  0.00000000000E+00 0. -1.
         11    1    1    2    0    0  0.11355595531E+03 -0.11385712789E+03 -0.35123014569E+03  0.38629136128E+03  0.00000000000E+00 0.  1.
</event>
<event>
 7    1  0.2690635E-009  0.1563170E+03  0.7561462E-02  0.1192919E+00
          2   -1    0    0  501    0  0.00000000000E+00  0.00000000000E+00  0.73173491936E+03  0.73173491936E+03  0.00000000000E+00 0. -1.
         -2   -1    0    0    0  501 -0.00000000000E+00 -0.00000000000E+00 -0.49596056078E+02  0.49596056078E+02  0.00000000000E+00 0.  1.
         25    2    1    2    0    0  0.93433163822E+02 -0.81968924245E+02  0.55255201949E+03  0.58000892359E+03  0.12509179251E+03 0.  0.
          5    1    3    3  502    0  0.93721704120E+02 -0.16852598040E+02  0.43730182188E+03  0.44756912729E+03  0.41800000000E+01 0.  1.
         -5    1    3    3    0  502 -0.28854029776E+00 -0.65116326206E+02  0.11525019761E+03  0.13243979630E+03  0.41800000000E+01 0.  1.
        -11    1    1    2    0    0 -0.65434591155E+01  0.62732632624E+02  0.69987532137E+02  0.94214938878E+02  0.00000000000E+00 0.  1.
         11    1    1    2    0    0 -0.86889704707E+02  0.19236291621E+02  0.59599311652E+02  0.10710711297E+03  0.00000000000E+00 0. -1.
</event>
<event>
 7    1  0.2690635E-009  0.1279437E+03  0.7561462E-02  0.1230539E+00
         -1   -1    0    0    0  501 -0.00000000000E+00  0.00000000000E+00  0.29300206980E+03  0.29300206980E+03  0.00000000000E+00 0.  1.
          1   -1    0    0  501    0  0.00000000000E+00 -0.00000000000E+00 -0.68471755395E+02  0.68471755395E+02  0.00000000000E+00 0. -1.
         25    2    1    2    0    0 -0.58356316122E+02  0.66193403448E+02  0.91347170758E+02  0.17826730524E+03  0.12509156734E+03 0.  0.
          5    1    3    3  502    0 -0.94391278801E+02  0.58751881210E+02  0.47775262037E+02  0.12108445450E+03  0.41800000000E+01 0. -1.
         -5    1    3    3    0  502  0.36034962679E+02  0.74415222376E+01  0.43571908721E+02  0.57182850735E+02  0.41800000000E+01 0. -1.
        -11    1    1    2    0    0  0.71479685885E+02 -0.52994410579E+02  0.13779757246E+03  0.16403025338E+03  0.00000000000E+00 0.  1.
         11    1    1    2    0    0 -0.13123369763E+02 -0.13198992868E+02 -0.46144288155E+01  0.19176266581E+02  0.00000000000E+00 0. -1.
</event>
<event>
 7    1  0.2690635E-009  0.1126589E+03  0.7561462E-02  0.1255724E+00
          1   -1    0    0  501    0  0.00000000000E+00  0.00000000000E+00  0.24434525058E+03  0.24434525058E+03  0.00000000000E+00 0. -1.
         -1   -1    0    0    0  501 -0.00000000000E+00 -0.00000000000E+00 -0.65021138598E+02  0.65021138598E+02  0.00000000000E+00 0.  1.
         25    2    1    2    0    0 -0.61877862384E+02  0.18079347474E+02  0.90081336976E+02  0.16709289532E+03  0.12509858407E+03 0.  0.
          5    1    3    3  502    0 -0.18036400563E+02 -0.51202301143E+02  0.16614410090E+02  0.56925375803E+02  0.41800000000E+01 0.  1.
         -5    1    3    3    0  502 -0.43841461821E+02  0.69281648617E+02  0.73466926885E+02  0.11016751951E+03  0.41800000000E+01 0.  1.
        -11    1    1    2    0    0  0.93502734023E+01  0.21210884896E+02 -0.83892224481E+01  0.24651740386E+02  0.00000000000E+00 0.  1.
         11    1    1    2    0    0  0.52527588981E+02 -0.39290232370E+02  0.97631997453E+02  0.11762175348E+03  0.00000000000E+00 0. -1.
</event>
<event>
 7    1  0.2690635E-009  0.9566000E+02  0.7561462E-02  0.1289696E+00
         -4   -1    0    0    0  501 -0.00000000000E+00  0.00000000000E+00  0.22092146546E+03  0.22092146546E+03  0.00000000000E+00 0.  1.
          4   -1    0    0  501    0  0.00000000000E+00 -0.00000000000E+00 -0.82012689913E+02  0.82012689913E+02  0.00000000000E+00 0. -1.
         25    2    1    2    0    0  0.12730318036E+02 -0.52132139939E+02  0.91736891703E+01  0.13642765923E+03  0.12509407907E+03 0.  0.
          5    1    3    3  502    0  0.50371082988E+02  0.50361091442E+01 -0.28440123080E+02  0.58214443204E+02  0.41800000000E+01 0. -1.
         -5    1    3    3    0  502 -0.37640764951E+02 -0.57168249083E+02  0.37613812251E+02  0.78213216028E+02  0.41800000000E+01 0. -1.
        -11    1    1    2    0    0 -0.31099775806E+02  0.30319151310E+02  0.13094815979E+03  0.13796328331E+03  0.00000000000E+00 0.  1.
         11    1    1    2    0    0  0.18369457769E+02  0.21812988629E+02 -0.12130734054E+01  0.28543212831E+02  0.00000000000E+00 0. -1.
</event>
<event>
 7    1  0.2690635E-009  0.9041305E+02  0.7561462E-02  0.1301855E+00
         -3   -1    0    0    0  501 -0.00000000000E+00  0.00000000000E+00  0.33140158075E+03  0.33140158075E+03  0.00000000000E+00 0.  1.
          3   -1    0    0  501    0  0.00000000000E+00 -0.00000000000E+00 -0.76816384319E+02  0.76816384319E+02  0.00000000000E+00 0. -1.
         25    2    1    2    0    0  0.37963830427E+02  0.33064100927E+02  0.27039035487E+03  0.30215050578E+03  0.12509794942E+03 0.  0.
          5    1    3    3  502    0  0.76176724079E+02  0.44298526405E+02  0.22467207515E+03  0.24137163563E+03  0.41800000000E+01 0. -1.
         -5    1    3    3    0  502 -0.38212893652E+02 -0.11234425477E+02  0.45718279715E+02  0.60778870154E+02  0.41800000000E+01 0. -1.
        -11    1    1    2    0    0 -0.34940989554E+02 -0.22474385607E+02 -0.52962389790E+02  0.67312595342E+02  0.00000000000E+00 0. -1.
         11    1    1    2    0    0 -0.30228408730E+01 -0.10589715321E+02  0.37157231357E+02  0.38754863948E+02  0.00000000000E+00 0.  1.
</event>
<event>
 7    1  0.2690635E-009  0.1065456E+03  0.7561462E-02  0.1267104E+00
         -1   -1    0    0    0  501 -0.00000000000E+00  0.00000000000E+00  0.14717203653E+03  0.14717203653E+03  0.00000000000E+00 0.  1.
          1   -1    0    0  501    0  0.00000000000E+00 -0.00000000000E+00 -0.12668106131E+03  0.12668106131E+03  0.00000000000E+00 0. -1.
         25    2    1    2    0    0  0.68879112189E+02  0.45803851092E+02  0.54557691433E+01  0.15006774786E+03  0.12509292011E+03 0.  0.
          5    1    3    3  502    0  0.91759853359E+02  0.52969950089E+02 -0.27079028650E+02  0.10943688818E+03  0.41800000000E+01 0. -1.
         -5    1    3    3    0  502 -0.22880741170E+02 -0.71660989966E+01  0.32534797793E+02  0.40630859686E+02  0.41800000000E+01 0. -1.
        -11    1    1    2    0    0 -0.58655621712E+02 -0.38855195489E+02  0.50252835811E+02  0.86461295861E+02  0.00000000000E+00 0.  1.
         11    1    1    2    0    0 -0.10223490477E+02 -0.69486556030E+01 -0.35217629727E+02  0.37324054118E+02  0.00000000000E+00 0. -1.
</event>
<event>
 7    1  0.2690635E-009  0.6189875E+02  0.7561462E-02  0.1390032E+00
         -1   -1    0    0    0  501 -0.00000000000E+00  0.00000000000E+00  0.25430388720E+02  0.25430388720E+02  0.00000000000E+00 0.  1.
          1   -1    0    0  501    0  0.00000000000E+00 -0.00000000000E+00 -0.74953517874E+03  0.74953517874E+03  0.00000000000E+00 0. -1.
         25    2    1    2    0    0  0.32613774870E+02 -0.42536162326E+02 -0.59783411974E+03  0.61312973569E+03  0.12509778032E+03 0.  0.
          5    1    3    3  502    0  0.26079787959E+02 -0.50325441091E+02 -0.59934494380E+03  0.60203375272E+03  0.41800000000E+01 0. -1.
         -5    1    3    3    0  502  0.65339869109E+01  0.77892787651E+01  0.15108240569E+01  0.11095982965E+02  0.41800000000E+01 0. -1.
        -11    1    1    2    0    0 -0.19632306334E+02  0.12568592648E+02  0.72238574121E+01  0.24404530093E+02  0.00000000000E+00 0.  1.
         11    1    1    2    0    0 -0.12981468536E+02  0.29967569678E+02 -0.13349452769E+03  0.13743130168E+03  0.00000000000E+00 0. -1.
</event>
<event>
 7    1  0.2690635E-009  0.9170670E+02  0.7561462E-02  0.1298771E+00
          1   -1    0    0  501    0  0.00000000000E+00  0.00000000000E+00  0.56154942035E+02  0.56154942035E+02  0.00000000000E+00 0. -1.
         -1   -1    0    0    0  501 -0.00000000000E+00 -0.00000000000E+00 -0.27290010674E+03  0.27290010674E+03  0.00000000000E+00 0.  1.
         25    2    1    2    0    0  0.21611331608E+02  0.24528426385E+02 -0.18923455241E+03  0.22918229509E+03  0.12508443231E+03 0.  0.
          5    1    3    3  502    0  0.23648318964E+02  0.74751535149E+02 -0.10708304633E+03  0.13278285360E+03  0.41800000000E+01 0. -1.
         -5    1    3    3    0  502 -0.20369873555E+01 -0.50223108763E+02 -0.82151506073E+02  0.96399441500E+02  0.41800000000E+01 0. -1.
        -11    1    1    2    0    0 -0.34417370411E+02 -0.23372026761E+02 -0.55329842688E+02  0.69225707022E+02  0.00000000000E+00 0.  1.
         11    1    1    2    0    0  0.12806038803E+02 -0.11563996244E+01  0.27819230384E+02  0.30647046662E+02  0.00000000000E+00 0. -1.
</event>
<event>
 7    1  0.2690635E-009  0.1421590E+03  0.7561462E-02  0.1210453E+00
         -1   -1    0    0    0  501 -0.00000000000E+00  0.00000000000E+00  0.10857212715E+03  0.10857212715E+03  0.00000000000E+00 0.  1.
          1   -1    0    0  501    0  0.00000000000E+00 -0.00000000000E+00 -0.53136174781E+03  0.53136174781E+03  0.00000000000E+00 0. -1.
         25    2    1    2    0    0 -0.70722567471E+02  0.85784548961E+02 -0.46078129671E+03  0.49023254726E+03  0.12509147294E+03 0.  0.
          5    1    3    3  502    0  0.21935597889E+02  0.20735258046E+02 -0.24150419996E+03  0.24341912903E+03  0.41800000000E+01 0.  1.
         -5    1    3    3    0  502 -0.92658165360E+02  0.65049290915E+02 -0.21927709675E+03  0.24681341823E+03  0.41800000000E+01 0.  1.
        -11    1    1    2    0    0  0.40535366247E+02 -0.99469477804E+02  0.43896196586E+02  0.11603520589E+03  0.00000000000E+00 0. -1.
         11    1    1    2    0    0  0.30187201224E+02  0.13684928843E+02 -0.59045205402E+01  0.33666121814E+02  0.00000000000E+00 0.  1.
</event>
<event>
 7    1  0.2690635E-009  0.6330003E+02  0.7561462E-02  0.1384483E+00
         -2   -1    0    0    0  501 -0.00000000000E+00  0.00000000000E+00  0.95073072528E+02  0.95073072528E+02  0.00000000000E+00 0.  1.
          2   -1    0    0  501    0  0.00000000000E+00 -0.00000000000E+00 -0.18101300966E+03  0.18101300966E+03  0.00000000000E+00 0. -1.
         25    2    1    2    0    0 -0.15352888506E+01  0.26375421749E+01 -0.12489311555E+03  0.17678941489E+03  0.12508754200E+03 0.  0.
          5    1    3    3  502    0 -0.16901264511E+01  0.20511242429E+02 -0.14675090157E+03  0.14824596826E+03  0.41800000000E+01 0.  1.
         -5    1    3    3    0  502  0.15483760048E+00 -0.17873700254E+02  0.21857786024E+02  0.28543446627E+02  0.41800000000E+01 0.  1.
        -11    1    1    2    0    0 -0.37903606743E+02 -0.21443985780E+02  0.34146028995E+02  0.55339671362E+02  0.00000000000E+00 0.  1.
         11    1    1    2    0    0  0.39438895594E+02  0.18806443605E+02  0.48071494179E+01  0.43956995942E+02  0.00000000000E+00 0. -1.
</event>
<event>
 7    1  0.2690635E-009  0.9907529E+02  0.7561462E-02  0.1282253E+00
         -1   -1    0    0    0  501 -0.00000000000E+00  0.00000000000E+00  0.43372693039E+02  0.43372693039E+02  0.00000000000E+00 0.  1.
          1   -1    0    0  501    0  0.00000000000E+00 -0.00000000000E+00 -0.67869769769E+03  0.67869769769E+03  0.00000000000E+00 0. -1.
         25    2    1    2    0    0 -0.47155754801E+02 -0.41785108257E+02 -0.57633335567E+03  0.59310868170E+03  0.12509240972E+03 0.  0.
          5    1    3    3  502    0 -0.83343060924E+02 -0.35896413362E+02 -0.50162453035E+03  0.50978354244E+03  0.41800000000E+01 0. -1.
         -5    1    3    3    0  502  0.36187306124E+02 -0.58886948952E+01 -0.74708825322E+02  0.83325139262E+02  0.41800000000E+01 0. -1.
        -11    1    1    2    0    0  0.27094392792E+02  0.42423245613E+02  0.14816950485E+02  0.52472658697E+02  0.00000000000E+00 0.  1.
         11    1    1    2    0    0  0.20061362008E+02 -0.63813735535E+00 -0.73808599463E+02  0.76489050325E+02  0.00000000000E+00 0. -1.
</event>
<event>
 7    1  0.2690635E-009  0.1460553E+03  0.7561462E-02  0.1205406E+00
         -1   -1    0    0    0  501 -0.00000000000E+00  0.00000000000E+00  0.38469546241E+03  0.38469546241E+03  0.00000000000E+00 0.  1.
          1   -1    0    0  501    0  0.00000000000E+00 -0.00000000000E+00 -0.88394394931E+02  0.88394394931E+02  0.00000000000E+00 0. -1.
         25    2    1    2    0    0  0.62096968302E+02  0.81417496771E+02  0.29543885061E+03  0.33677344470E+03  0.12508955334E+03 0.  0.
          5    1    3    3  502    0  0.75282690401E+02  0.22493905068E+01  0.18826025340E+03  0.20281010488E+03  0.41800000000E+01 0.  1.
         -5    1    3    3    0  502 -0.13185722098E+02  0.79168106264E+02  0.10717859721E+03  0.13396333983E+03  0.41800000000E+01 0.  1.
        -11    1    1    2    0    0 -0.66184450920E+02 -0.12601062288E+02  0.39185161450E-02  0.67373350293E+02  0.00000000000E+00 0.  1.
         11    1    1    2    0    0  0.40874826175E+01 -0.68816434483E+02  0.85829835109E+00  0.68943062342E+02  0.00000000000E+00 0. -1.
</event>
<event>
 7    1  0.2690635E-009  0.9250719E+02  0.7561462E-02  0.1296891E+00
         -1   -1    0    0    0  501 -0.00000000000E+00  0.00000000000E+00  0.19883573034E+03  0.19883573034E+03  0.00000000000E+00 0.  1.
          1   -1    0    0  501    0  0.00000000000E+00 -0.00000000000E+00 -0.64780363175E+02  0.64780363175E+02  0.00000000000E+00 0. -1.
         25    2    1    2    0    0  0.26615417434E+02  0.24044292569E+02  0.81296778642E+02  0.15343674485E+03  0.12508860860E+03 0.  0.
          5    1    3    3  502    0 -0.37144613000E+02  0.32827094175E+02  0.73097787716E+02  0.88420016715E+02  0.41800000000E+01 0.  1.
         -5    1    3    3    0  502  0.63760030434E+02 -0.87828016060E+01  0.81989909268E+01  0.65016728134E+02  0.41800000000E+01 0.  1.
        -11    1    1    2    0    0 -0.18779958469E+02  0.19178376533E+02  0.59933791533E+02  0.65670056602E+02  0.00000000000E+00 0.  1.
         11    1    1    2    0    0 -0.78354589653E+01 -0.43222669102E+02 -0.71752030139E+01  0.44509292061E+02  0.00000000000E+00 0. -1.
</event>
<event>
 7    1  0.2690635E-009  0.9755618E+02  0.7561462E-02  0.1285521E+00
          2   -1    0    0  501    0  0.00000000000E+00  0.00000000000E+00  0.28539671782E+03  0.28539671782E+03  0.00000000000E+00 0. -1.
         -2   -1    0    0    0  501 -0.00000000000E+00 -0.00000000000E+00 -0.48106528585E+02  0.48106528585E+02  0.00000000000E+00 0.  1.
         25    2    1    2    0    0  0.52852507974E+01  0.11912433643E+02  0.19770355131E+03  0.23431452749E+03  0.12508702427E+03 0.  0.
          5    1    3    3  502    0 -0.35456990176E+02 -0.38950825983E+02  0.49676471473E+02  0.72523025414E+02  0.41800000000E+01 0.  1.
         -5    1    3    3    0  502  0.40742240974E+02  0.50863259626E+02  0.14802707984E+03  0.16179150208E+03  0.41800000000E+01 0.  1.
        -11    1    1    2    0    0  0.35361036433E+02 -0.43471635948E+01 -0.76237853332E+01  0.36433814400E+02  0.00000000000E+00 0.  1.
         11    1    1    2    0    0 -0.40646287230E+02 -0.75652700481E+01  0.47210423258E+02  0.62754904515E+02  0.00000000000E+00 0. -1.
</event>
<event>
 7    1  0.2690635E-009  0.1272402E+03  0.7561462E-02  0.1231609E+00
          1   -1    0    0  501    0  0.00000000000E+00  0.00000000000E+00  0.21267781707E+03  0.21267781707E+03  0.00000000000E+00 0. -1.
         -1   -1    0    0    0  501 -0.00000000000E+00 -0.00000000000E+00 -0.98994081081E+02  0.98994081081E+02  0.00000000000E+00 0.  1.
         25    2    1    2    0    0  0.60388401845E+01  0.65385699026E+02  0.13356983746E+03  0.19442385776E+03  0.12509187727E+03 0.  0.
          5    1    3    3  502    0 -0.43995557497E+02 -0.13038812590E+02  0.60553410803E+02  0.76090785731E+02  0.41800000000E+01 0.  1.
         -5    1    3    3    0  502  0.50034397681E+02  0.78424511615E+02  0.73016426660E+02  0.11833307203E+03  0.41800000000E+01 0.  1.
        -11    1    1    2    0    0 -0.50230021120E+02 -0.28712907863E+02 -0.60061733477E+01  0.58168378161E+02  0.00000000000E+00 0. -1.
         11    1    1    2    0    0  0.44191180935E+02 -0.36672791163E+02 -0.13879928129E+02  0.59079662228E+02  0.00000000000E+00 0.  1.
</event>
<event>
 7    1  0.2690635E-009  0.1155263E+03  0.7561462E-02  0.1250665E+00
         -1   -1    0    0    0  501 -0.00000000000E+00  0.00000000000E+00  0.45801507815E+02  0.45801507815E+02  0.00000000000E+00 0.  1.
          1   -1    0    0  501    0  0.00000000000E+00 -0.00000000000E+00 -0.71366742510E+03  0.71366742510E+03  0.00000000000E+00 0. -1.
         25    2    1    2    0    0  0.35465817160E+02  0.21167926915E+02 -0.64272275740E+03  0.65608406189E+03  0.12509135892E+03 0.  0.
          5    1    3    3  502    0 -0.42780819927E+01  0.68544568917E+02 -0.37712109153E+03  0.38334638383E+03  0.41800000000E+01 0.  1.
         -5    1    3    3    0  502  0.39743899153E+02 -0.47376642002E+02 -0.26560166587E+03  0.27273767807E+03  0.41800000000E+01 0.  1.
        -11    1    1    2    0    0 -0.65293263652E+02 -0.25559769453E+02 -0.16789839657E+02  0.72100005607E+02  0.00000000000E+00 0.  1.
         11    1    1    2    0    0  0.29827446492E+02  0.43918425376E+01 -0.83533202299E+01  0.31284865414E+02  0.00000000000E+00 0. -1.
</event>
<event>
 7    1  0.2690635E-009  0.3387451E+03  0.7561462E-02  0.1067332E+00
         -2   -1    0    0    0  501 -0.00000000000E+00  0.00000000000E+00  0.11649956423E+03  0.11649956423E+03  0.00000000000E+00 0.  1.
          2   -1    0    0  501    0  0.00000000000E+00 -0.00000000000E+00 -0.10556438239E+04  0.10556438239E+04  0.00000000000E+00 0. -1.
         25    2    1    2    0    0  0.30238845916E+03 -0.13483527058E+03 -0.43039176680E+03  0.55722891988E+03  0.12509063034E+03 0.  0.
          5    1    3    3  502    0  0.17548451107E+03 -0.95433430941E+02 -0.34664859941E+03  0.40010633242E+03  0.41800000000E+01 0.  1.
         -5    1    3    3    0  502  0.12690394809E+03 -0.39401839635E+02 -0.83743167385E+02  0.15712258746E+03  0.41800000000E+01 0.  1.
        -11    1    1    2    0    0 -0.23143552849E+03  0.14494139829E+03 -0.41763564568E+03  0.49898892305E+03  0.00000000000E+00 0. -1.
         11    1    1    2    0    0 -0.70952930671E+02 -0.10106127713E+02 -0.91116847235E+02  0.11592554524E+03  0.00000000000E+00 0.  1.
</event>
<event>
 7    1  0.2690635E-009  0.1222897E+03  0.7561462E-02  0.1239367E+00
         -1   -1    0    0    0  501 -0.00000000000E+00  0.00000000000E+00  0.20255711900E+03  0.20255711900E+03  0.00000000000E+00 0.  1.
          1   -1    0    0  501    0  0.00000000000E+00 -0.00000000000E+00 -0.10064691666E+03  0.10064691666E+03  0.00000000000E+00 0. -1.
         25    2    1    2    0    0  0.39342202823E+02  0.71788528180E+02  0.96262677215E+02  0.17780893501E+03  0.12509241641E+03 0.  0.
          5    1    3    3  502    0  0.84505015944E+02  0.52856720063E+02  0.71770949025E+02  0.12289618423E+03  0.41800000000E+01 0.  1.
         -5    1    3    3    0  502 -0.45162813121E+02  0.18931808117E+02  0.24491728190E+02  0.54912750772E+02  0.41800000000E+01 0.  1.
        -11    1    1    2    0    0 -0.67032689340E+01 -0.60891551105E+02  0.42819750236E+02  0.74741192262E+02  0.00000000000E+00 0.  1.
         11    1    1    2    0    0 -0.32638933889E+02 -0.10896977075E+02 -0.37172225114E+02  0.50653908386E+02  0.00000000000E+00 0. -1.
</event>
<event>
 7    1  0.2690635E-009  0.9488978E+02  0.7561462E-02  0.1291425E+00
          2   -1    0    0  501    0  0.00000000000E+00  0.00000000000E+00  0.13002743690E+04  0.13002743690E+04  0.00000000000E+00 0. -1.
         -2   -1    0    0    0  501 -0.00000000000E+00 -0.00000000000E+00 -0.13499639260E+02  0.13499639260E+02  0.00000000000E+00 0.  1.
         25    2    1    2    0    0  0.10024489515E+01  0.22964903384E+00  0.10073301837E+04  0.10150677575E+04  0.12508955069E+03 0.  0.
          5    1    3    3  502    0  0.11752139205E+02 -0.44491705239E+02  0.16156996393E+03  0.16804746430E+03  0.41800000000E+01 0.  1.
         -5    1    3    3    0  502 -0.10749690254E+02  0.44721354273E+02  0.84576021975E+03  0.84702029319E+03  0.41800000000E+01 0.  1.
        -11    1    1    2    0    0  0.42742944666E+02  0.22268614687E+02  0.19602371216E+03  0.20186170079E+03  0.00000000000E+00 0. -1.
         11    1    1    2    0    0 -0.43745393618E+02 -0.22498263721E+02  0.83420833941E+02  0.96844550020E+02  0.00000000000E+00 0.  1.
</event>
<event>
 7    1  0.2690635E-009  0.1663995E+03  0.7561462E-02  0.1181655E+00
          2   -1    0    0  501    0  0.00000000000E+00  0.00000000000E+00  0.96621193542E+02  0.96621193542E+02  0.00000000000E+00 0. -1.
         -2   -1    0    0    0  501 -0.00000000000E+00 -0.00000000000E+00 -0.37382220794E+03  0.37382220794E+03  0.00000000000E+00 0.  1.
         25    2    1    2    0    0 -0.10372036668E+03 -0.96853236317E+02 -0.64957537209E+02  0.20002021263E+03  0.12510051946E+03 0.  0.
          5    1    3    3  502    0 -0.10263860129E+03 -0.11172921572E+02 -0.38001315421E+02  0.11009581747E+03  0.41800000000E+01 0. -1.
         -5    1    3    3    0  502 -0.10817653915E+01 -0.85680314745E+02 -0.26956221788E+02  0.89924395157E+02  0.41800000000E+01 0. -1.
        -11    1    1    2    0    0  0.30891520175E+02  0.15742918075E+02 -0.33949864519E+01  0.34837500215E+02  0.00000000000E+00 0. -1.
         11    1    1    2    0    0  0.72828846504E+02  0.81110318243E+02 -0.20884849073E+03  0.23558568864E+03  0.00000000000E+00 0.  1.
</event>
<event>
 7    1  0.2690635E-009  0.1411333E+03  0.7561462E-02  0.1211812E+00
         -1   -1    0    0    0  501 -0.00000000000E+00  0.00000000000E+00  0.55284506514E+03  0.55284506514E+03  0.00000000000E+00 0.  1.
          1   -1    0    0  501    0  0.00000000000E+00 -0.00000000000E+00 -0.47920703284E+02  0.47920703284E+02  0.00000000000E+00 0. -1.
         25    2    1    2    0    0 -0.58939530139E+02  0.10938985025E+03  0.29190618504E+03  0.34102342811E+03  0.12509096733E+03 0.  0.
          5    1    3    3  502    0  0.82000477460E+01  0.86251662109E+02  0.81903207489E+02  0.11929877534E+03  0.41800000000E+01 0. -1.
         -5    1    3    3    0  502 -0.67139577885E+02  0.23138188138E+02  0.21000297755E+03  0.22172465278E+03  0.41800000000E+01 0. -1.
        -11    1    1    2    0    0  0.22620500815E+02 -0.36295755534E+02  0.15181624900E+03  0.15772521164E+03  0.00000000000E+00 0.  1.
         11    1    1    2    0    0  0.36319029324E+02 -0.73094094713E+02  0.61201927811E+02  0.10201712866E+03  0.00000000000E+00 0. -1.
</event>
<event>
 7    1  0.2690635E-009  0.7779469E+02  0.7561462E-02  0.1335429E+00
         -2   -1    0    0    0  501 -0.00000000000E+00  0.00000000000E+00  0.14255962123E+03  0.14255962123E+03  0.00000000000E+00 0. -1.
          2   -1    0    0  501    0  0.00000000000E+00 -0.00000000000E+00 -0.17314422842E+03  0.17314422842E+03  0.00000000000E+00 0.  1.
         25    2    1    2    0    0  0.46843847641E+02  0.21593335768E+02 -0.11780103319E+03  0.17940177263E+03  0.12508914577E+03 0.  0.
          5    1    3    3  502    0  0.64761186185E+02 -0.30265727418E+01 -0.80916038433E+01  0.65468449129E+02  0.41800000000E+01 0. -1.
         -5    1    3    3    0  502 -0.17917338544E+02  0.24619908510E+02 -0.10970942935E+03  0.11393332350E+03  0.41800000000E+01 0. -1.
        -11    1    1    2    0    0 -0.87327612673E+01 -0.19908438333E+02 -0.15520413126E+02  0.26711238455E+02  0.00000000000E+00 0.  1.
         11    1    1    2    0    0 -0.38111086374E+02 -0.16848974351E+01  0.10273683912E+03  0.10959083856E+03  0.00000000000E+00 0. -1.
</event>
<event>
 7    1  0.2690635E-009  0.1010772E+03  0.7561462E-02  0.1278047E+00
         -1   -1    0    0    0  501 -0.00000000000E+00  0.00000000000E+00  0.87021832392E+02  0.87021832392E+02  0.00000000000E+00 0.  1.
          1   -1    0    0  501    0  0.00000000000E+00 -0.00000000000E+00 -0.17156790016E+03  0.17156790016E+03  0.00000000000E+00 0. -1.
         25    2    1    2    0    0 -0.34196188713E+02  0.29120204340E+02 -0.91717856654E+01  0.13322496931E+03  0.12508958859E+03 0.  0.
          5    1    3    3  502    0 -0.27235835962E+02 -0.37581509524E+02  0.30023286452E+02  0.55434923541E+02  0.41800000000E+01 0.  1.
         -5    1    3    3    0  502 -0.69603527513E+01  0.66701713864E+02 -0.39195072118E+02  0.77790045772E+02  0.41800000000E+01 0.  1.
        -11    1    1    2    0    0 -0.20163771478E+02  0.88820444125E+01  0.35001970666E+01  0.22309634078E+02  0.00000000000E+00 0. -1.
         11    1    1    2    0    0  0.54359960191E+02 -0.38002248753E+02 -0.78874479169E+02  0.10305512916E+03  0.00000000000E+00 0.  1.
</event>
<event>
 7    1  0.2690635E-009  0.1195083E+03  0.7561462E-02  0.1243910E+00
          1   -1    0    0  501    0  0.00000000000E+00  0.00000000000E+00  0.27000547803E+03  0.27000547803E+03  0.00000000000E+00 0. -1.
         -1   -1    0    0    0  501 -0.00000000000E+00 -0.00000000000E+00 -0.11932343404E+03  0.11932343404E+03  0.00000000000E+00 0.  1.
         25    2    1    2    0    0 -0.77721229028E+01 -0.11710205717E+03 -0.67226303770E+01  0.17165650235E+03  0.12508982114E+03 0.  0.
          5    1    3    3  502    0  0.22116582785E+01 -0.61954811785E+02 -0.65536101002E+02  0.90309152749E+02  0.41800000000E+01 0.  1.
         -5    1    3    3    0  502 -0.99837811813E+01 -0.55147245383E+02  0.58813470625E+02  0.81347349600E+02  0.41800000000E+01 0.  1.
        -11    1    1    2    0    0  0.18462608021E+02  0.71782498015E+02  0.26468255970E+02  0.78703008140E+02  0.00000000000E+00 0. -1.
         11    1    1    2    0    0 -0.10690485118E+02  0.45319559154E+02  0.13093641840E+03  0.13896940158E+03  0.00000000000E+00 0.  1.
</event>
<event>
 7    1  0.2690635E-009  0.1032121E+03  0.7561462E-02  0.1273683E+00
          3   -1    0    0  501    0  0.00000000000E+00  0.00000000000E+00  0.19534446048E+03  0.19534446048E+03  0.00000000000E+00 0. -1.
         -3   -1    0    0    0  501 -0.00000000000E+00 -0.00000000000E+00 -0.94335793442E+02  0.94335793442E+02  0.00000000000E+00 0.  1.
         25    2    1    2    0    0 -0.70165576000E+02 -0.34269583372E+02  0.95116374430E+02  0.17547575231E+03  0.12508797930E+03 0.  0.
          5    1    3    3  502    0  0.13140723879E+02 -0.29109553295E+02  0.85484935766E+02  0.91352018916E+02  0.41800000000E+01 0.  1.
         -5    1    3    3    0  502 -0.83306299880E+02 -0.51600300767E+01  0.96314386644E+01  0.84123733398E+02  0.41800000000E+01 0.  1.
        -11    1    1    2    0    0  0.73954320741E+02  0.21050608030E+02 -0.24619467974E+02  0.80737152897E+02  0.00000000000E+00 0.  1.
         11    1    1    2    0    0 -0.37887447402E+01  0.13218975343E+02  0.30511760578E+02  0.33467348706E+02  0.00000000000E+00 0. -1.
</event>
<event>
 7    1  0.2690635E-009  0.1274371E+03  0.7561462E-02  0.1231309E+00
          1   -1    0    0  501    0  0.00000000000E+00  0.00000000000E+00  0.44024998482E+02  0.44024998482E+02  0.00000000000E+00 0. -1.
         -1   -1    0    0    0  501 -0.00000000000E+00 -0.00000000000E+00 -0.42946708354E+03  0.42946708354E+03  0.00000000000E+00 0.  1.
         25    2    1    2    0    0  0.11266013070E+02  0.73850967530E+02 -0.28418300302E+03  0.31935712722E+03  0.12509239403E+03 0.  0.
          5    1    3    3  502    0 -0.22573102308E+02  0.99622073639E+02 -0.18525950168E+03  0.21159550531E+03  0.41800000000E+01 0. -1.
         -5    1    3    3    0  502  0.33839115378E+02 -0.25771106109E+02 -0.98923501340E+02  0.10776162191E+03  0.41800000000E+01 0. -1.
        -11    1    1    2    0    0 -0.37528589711E+01  0.17674161928E+02 -0.39586257834E+02  0.43514730375E+02  0.00000000000E+00 0.  1.
         11    1    1    2    0    0 -0.75131540987E+01 -0.91525129458E+02 -0.61672824203E+02  0.11062022443E+03  0.00000000000E+00 0. -1.
</event>
<event>
 7    1  0.2690635E-009  0.1714999E+03  0.7561462E-02  0.1176293E+00
          1   -1    0    0  501    0  0.00000000000E+00  0.00000000000E+00  0.14044212976E+03  0.14044212976E+03  0.00000000000E+00 0.  1.
         -1   -1    0    0    0  501 -0.00000000000E+00 -0.00000000000E+00 -0.25663788608E+03  0.25663788608E+03  0.00000000000E+00 0. -1.
         25    2    1    2    0    0 -0.14478914948E+03  0.15419049536E+02 -0.21419230288E+01  0.19197184482E+03  0.12508779506E+03 0.  0.
          5    1    3    3  502    0 -0.14138744886E+03 -0.14510504730E+02  0.32517361626E+02  0.14586232087E+03  0.41800000000E+01 0.  1.
         -5    1    3    3    0  502 -0.34017006205E+01  0.29929554267E+02 -0.34659284654E+02  0.46109523945E+02  0.41800000000E+01 0.  1.
        -11    1    1    2    0    0  0.12028664993E+03  0.25258630006E+02 -0.79504575315E+02  0.14638256056E+03  0.00000000000E+00 0.  1.
         11    1    1    2    0    0  0.24502499552E+02 -0.40677679543E+02 -0.34549257980E+02  0.58725610463E+02  0.00000000000E+00 0. -1.
</event>
<event>
 7    1  0.2690635E-009  0.8328926E+02  0.7561462E-02  0.1319968E+00
         -1   -1    0    0    0  501 -0.00000000000E+00  0.00000000000E+00  0.10394624983E+03  0.10394624983E+03  0.00000000000E+00 0.  1.
          1   -1    0    0  501    0  0.00000000000E+00 -0.00000000000E+00 -0.18820344913E+03  0.18820344913E+03  0.00000000000E+00 0. -1.
         25    2    1    2    0    0  0.63692040655E+02 -0.31281999357E+02 -0.11267652003E+03  0.18270051746E+03  0.12509293100E+03 0.  0.
          5    1    3    3  502    0  0.59446991904E+02 -0.15984869524E+02 -0.13877228122E+03  0.15187060063E+03  0.41800000000E+01 0.  1.
         -5    1    3    3    0  502  0.42450487517E+01 -0.15297129833E+02  0.26095761187E+02  0.30829916833E+02  0.41800000000E+01 0.  1.
        -11    1    1    2    0    0 -0.60327247803E+02  0.44409193438E+02  0.45499798377E+02  0.87645792493E+02  0.00000000000E+00 0.  1.
         11    1    1    2    0    0 -0.33647928524E+01 -0.13127194081E+02 -0.17080477650E+02  0.21803389006E+02  0.00000000000E+00 0. -1.
</event>
<event>
 7    1  0.2690635E-009  0.1654185E+03  0.7561462E-02  0.1182712E+00
          3   -1    0    0  501    0  0.00000000000E+00  0.00000000000E+00  0.11335048742E+03  0.11335048742E+03  0.00000000000E+00 0. -1.
         -3   -1    0    0    0  501 -0.00000000000E+00 -0.00000000000E+00 -0.30055636634E+03  0.30055636634E+03  0.00000000000E+00 0.  1.
         25    2    1    2    0    0  0.77788374581E+02 -0.11967811507E+03 -0.12161543243E+03  0.22541463308E+03  0.12509021128E+03 0.  0.
          5    1    3    3  502    0  0.67146668748E+02 -0.45033158774E+02 -0.12600560757E+03  0.14977164636E+03  0.41800000000E+01 0. -1.
         -5    1    3    3    0  502  0.10641705834E+02 -0.74644956294E+02  0.43901751421E+01  0.75642986727E+02  0.41800000000E+01 0. -1.
        -11    1    1    2    0    0  0.11801337848E+02  0.71838449539E+02 -0.42637949452E+02  0.84368413169E+02  0.00000000000E+00 0. -1.
         11    1    1    2    0    0 -0.89589712429E+02  0.47839665530E+02 -0.22952497041E+02  0.10412380752E+03  0.00000000000E+00 0.  1.
</event>
<event>
 7    1  0.2690635E-009  0.1450800E+03  0.7561462E-02  0.1206652E+00
         -2   -1    0    0    0  501 -0.00000000000E+00  0.00000000000E+00  0.11181556013E+03  0.11181556013E+03  0.00000000000E+00 0. -1.
          2   -1    0    0  501    0  0.00000000000E+00 -0.00000000000E+00 -0.28474662544E+03  0.28474662544E+03  0.00000000000E+00 0.  1.
         25    2    1    2    0    0  0.49752595743E+02 -0.11363165093E+03 -0.16404228231E+02  0.17693383922E+03  0.12509601065E+03 0.  0.
          5    1    3    3  502    0  0.42900106725E+01 -0.11237792873E+03 -0.47003727796E+02  0.12195911562E+03  0.41800000000E+01 0. -1.
         -5    1    3    3    0  502  0.45462585071E+02 -0.12537222009E+01  0.30599499564E+02  0.54974723594E+02  0.41800000000E+01 0. -1.
        -11    1    1    2    0    0  0.82533453802E+01  0.22060572721E+02 -0.88666715054E+02  0.91741882133E+02  0.00000000000E+00 0.  1.
         11    1    1    2    0    0 -0.58005941124E+02  0.91571078208E+02 -0.67860122021E+02  0.12788646422E+03  0.00000000000E+00 0. -1.
</event>
<event>
 7    1  0.4417816E-009  0.8661926E+02  0.7561462E-02  0.1311252E+00
         -1   -1    0    0    0  501 -0.00000000000E+00  0.00000000000E+00  0.14879053123E+02  0.14879053123E+02  0.00000000000E+00 0.  1.
          1   -1    0    0  501    0  0.00000000000E+00 -0.00000000000E+00 -0.98578695400E+03  0.98578695400E+03  0.00000000000E+00 0. -1.
         25    2    1    2    0    0  0.14165832341E+02  0.23938124210E+02 -0.73891082521E+03  0.74994053644E+03  0.12509155042E+03 0.  0.
          5    1    3    3  502    0  0.53066298529E+02 -0.24629211298E+02 -0.23607688576E+03  0.24325377382E+03  0.41800000000E+01 0.  1.
         -5    1    3    3    0  502 -0.38900466188E+02  0.48567335509E+02 -0.50283393945E+03  0.50668676262E+03  0.41800000000E+01 0.  1.
        -11    1    1    2    0    0  0.12272523072E+02  0.47935232309E+01  0.21461387867E+01  0.13349104809E+02  0.00000000000E+00 0.  1.
         11    1    1    2    0    0 -0.26438355413E+02 -0.28731647441E+02 -0.23414321445E+03  0.23737636587E+03  0.00000000000E+00 0. -1.
</event>
<event>
 7    1  0.2690635E-009  0.1016136E+03  0.7561462E-02  0.1276939E+00
         -2   -1    0    0    0  501 -0.00000000000E+00  0.00000000000E+00  0.24244354261E+03  0.24244354261E+03  0.00000000000E+00 0.  1.
          2   -1    0    0  501    0  0.00000000000E+00 -0.00000000000E+00 -0.65350106923E+02  0.65350106923E+02  0.00000000000E+00 0. -1.
         25    2    1    2    0    0  0.72656862427E+02 -0.14051350660E+02  0.87393228847E+02  0.16959538385E+03  0.12509419515E+03 0.  0.
          5    1    3    3  502    0 -0.97335235162E+01 -0.34598941952E+02  0.75536273765E+02  0.83755771852E+02  0.41800000000E+01 0.  1.
         -5    1    3    3    0  502  0.82390385943E+02  0.20547591292E+02  0.11856955082E+02  0.85839611996E+02  0.41800000000E+01 0.  1.
        -11    1    1    2    0    0 -0.15099290078E+02 -0.11571140991E+02 -0.90464601333E+01  0.21064622134E+02  0.00000000000E+00 0. -1.
         11    1    1    2    0    0 -0.57557572348E+02  0.25622491651E+02  0.98746666974E+02  0.11713364355E+03  0.00000000000E+00 0.  1.
</event>
<event>
 7    1  0.2690635E-009  0.1179404E+03  0.7561462E-02  0.1246534E+00
          1   -1    0    0  501    0  0.00000000000E+00  0.00000000000E+00  0.44099823474E+03  0.44099823474E+03  0.00000000000E+00 0. -1.
         -1   -1    0    0    0  501 -0.00000000000E+00 -0.00000000000E+00 -0.44978319747E+02  0.44978319747E+02  0.00000000000E+00 0.  1.
         25    2    1    2    0    0  0.52909449772E+02 -0.81725641793E+01  0.33744271839E+03  0.36384003849E+03  0.12508311131E+03 0.  0.
          5    1    3    3  502    0  0.27316544685E+02 -0.62831161433E+02  0.23548288600E+03  0.24528271537E+03  0.41800000000E+01 0. -1.
         -5    1    3    3    0  502  0.25592905087E+02  0.54658597253E+02  0.10195983239E+03  0.11855732312E+03  0.41800000000E+01 0. -1.
        -11    1    1    2    0    0 -0.10227595393E+02 -0.40636611230E+02  0.28385515458E+02  0.50612996034E+02  0.00000000000E+00 0. -1.
         11    1    1    2    0    0 -0.42681854379E+02  0.48809175409E+02  0.30191681142E+02  0.71523519961E+02  0.00000000000E+00 0.  1.
</event>
<event>
 7    1  0.2690635E-009  0.1046011E+03  0.7561462E-02  0.1270908E+00
         -1   -1    0    0    0  501 -0.00000000000E+00  0.00000000000E+00  0.28702375304E+03  0.28702375304E+03  0.00000000000E+00 0. -1.
          1   -1    0    0  501    0  0.00000000000E+00 -0.00000000000E+00 -0.72359078977E+02  0.72359078977E+02  0.00000000000E+00 0.  1.
         25    2    1    2    0    0 -0.36470178650E+02 -0.31736302392E+02  0.23245500925E+03  0.26836991121E+03  0.12509920501E+03 0.  0.
          5    1    3    3  502    0  0.40077379290E+02 -0.22423662219E+02  0.14269597196E+03  0.14996209445E+03  0.41800000000E+01 0. -1.
         -5    1    3    3    0  502 -0.76547557940E+02 -0.93126401730E+01  0.89759037294E+02  0.11840781676E+03  0.41800000000E+01 0. -1.
        -11    1    1    2    0    0 -0.65911519489E+01 -0.18534043187E+02 -0.15043160740E+02  0.24763899651E+02  0.00000000000E+00 0.  1.
         11    1    1    2    0    0  0.43061330599E+02  0.50270345579E+02 -0.27471744448E+01  0.66249021163E+02  0.00000000000E+00 0. -1.
</event>
<event>
 7    1  0.2690635E-009  0.9056413E+02  0.7561462E-02  0.1301491E+00
         -1   -1    0    0    0  501 -0.00000000000E+00  0.00000000000E+00  0.21929793039E+03  0.21929793039E+03  0.00000000000E+00 0.  1.
          1   -1    0    0  501    0  0.00000000000E+00 -0.00000000000E+00 -0.76704991587E+02  0.76704991587E+02  0.00000000000E+00 0. -1.
         25    2    1    2    0    0 -0.26555193139E+02  0.20380093339E+02  0.10392062197E+02  0.12991014376E+03  0.12509246183E+03 0.  0.
          5    1    3    3  502    0 -0.50224046892E+02  0.36956458209E+02 -0.38182059588E+02  0.73236444234E+02  0.41800000000E+01 0.  1.
         -5    1    3    3    0  502  0.23668853753E+02 -0.16576364870E+02  0.48574121785E+02  0.56673699522E+02  0.41800000000E+01 0.  1.
        -11    1    1    2    0    0  0.40725057311E+02 -0.45209406908E+02  0.49021935088E+02  0.78138152562E+02  0.00000000000E+00 0. -1.
         11    1    1    2    0    0 -0.14169864172E+02  0.24829313569E+02  0.83178941512E+02  0.87954625655E+02  0.00000000000E+00 0.  1.
</event>
<event>
 7    1  0.2690635E-009  0.5864091E+02  0.7561462E-02  0.1403625E+00
          4   -1    0    0  501    0  0.00000000000E+00  0.00000000000E+00  0.16073993223E+03  0.16073993223E+03  0.00000000000E+00 0. -1.
         -4   -1    0    0    0  501 -0.00000000000E+00 -0.00000000000E+00 -0.85235206731E+02  0.85235206731E+02  0.00000000000E+00 0.  1.
         25    2    1    2    0    0  0.62458964124E+01 -0.28101197338E+02  0.64335219140E+02  0.14358703205E+03  0.12509806887E+03 0.  0.
          5    1    3    3  502    0  0.10285582484E+02 -0.37126806832E+02  0.99521312845E+02  0.10679961190E+03  0.41800000000E+01 0. -1.
         -5    1    3    3    0  502 -0.40396860719E+01  0.90256094948E+01 -0.35186093705E+02  0.36787420140E+02  0.41800000000E+01 0. -1.
        -11    1    1    2    0    0  0.53597904374E+00 -0.19603353752E+02  0.41187889212E+02  0.45618208751E+02  0.00000000000E+00 0. -1.
         11    1    1    2    0    0 -0.67818754562E+01  0.47704551090E+02 -0.30018382848E+02  0.56769898170E+02  0.00000000000E+00 0.  1.
</event>
<event>
 7    1  0.2690635E-009  0.1629607E+03  0.7561462E-02  0.1185394E+00
         -2   -1    0    0    0  501 -0.00000000000E+00  0.00000000000E+00  0.41627794184E+02  0.41627794184E+02  0.00000000000E+00 0.  1.
          2   -1    0    0  501    0  0.00000000000E+00 -0.00000000000E+00 -0.87775906694E+03  0.87775906694E+03  0.00000000000E+00 0. -1.
         25    2    1    2    0    0 -0.24554569393E+02 -0.15354358529E+03 -0.40517746110E+03  0.45166086915E+03  0.12510078451E+03 0.  0.
          5    1    3    3  502    0 -0.42434480671E+02 -0.12340238955E+03 -0.17258962998E+03  0.21641046110E+03  0.41800000000E+01 0.  1.
         -5    1    3    3    0  502  0.17879911278E+02 -0.30141195740E+02 -0.23258783111E+03  0.23525040805E+03  0.41800000000E+01 0.  1.
        -11    1    1    2    0    0  0.32164308907E+02  0.81432080112E+02 -0.12070154106E+03  0.14911267033E+03  0.00000000000E+00 0.  1.
         11    1    1    2    0    0 -0.76097395144E+01  0.72111505174E+02 -0.31025227060E+03  0.31861332164E+03  0.00000000000E+00 0. -1.
</event>
<event>
 7    1  0.2690635E-009  0.1447218E+03  0.7561462E-02  0.1207113E+00
          4   -1    0    0  501    0  0.00000000000E+00  0.00000000000E+00  0.23547104608E+03  0.23547104608E+03  0.00000000000E+00 0. -1.
         -4   -1    0    0    0  501 -0.00000000000E+00 -0.00000000000E+00 -0.11653609296E+03  0.11653609296E+03  0.00000000000E+00 0.  1.
         25    2    1    2    0    0 -0.11314118673E+03  0.22632336029E+01  0.11964282253E+03  0.20680511614E+03  0.12509156934E+03 0.  0.
          5    1    3    3  502    0  0.11727541670E+02  0.25541287484E+02 -0.49368444876E+01  0.28839858416E+02  0.41800000000E+01 0. -1.
         -5    1    3    3    0  502 -0.12486872840E+03 -0.23278053881E+02  0.12457966702E+03  0.17796525773E+03  0.41800000000E+01 0. -1.
        -11    1    1    2    0    0  0.27329609315E+02  0.31520240851E+02  0.26040890885E+02  0.49178868701E+02  0.00000000000E+00 0. -1.
         11    1    1    2    0    0  0.85811577411E+02 -0.33783474454E+02 -0.26748760302E+02  0.96023154195E+02  0.00000000000E+00 0.  1.
</event>
<event>
 7    1  0.2690635E-009  0.1687539E+03  0.7561462E-02  0.1179154E+00
         -2   -1    0    0    0  501 -0.00000000000E+00  0.00000000000E+00  0.45661703542E+03  0.45661703542E+03  0.00000000000E+00 0.  1.
          2   -1    0    0  501    0  0.00000000000E+00 -0.00000000000E+00 -0.92794733601E+02  0.92794733601E+02  0.00000000000E+00 0. -1.
         25    2    1    2    0    0 -0.14011462933E+03  0.21506684875E+02  0.29620802221E+03  0.35140019345E+03  0.12509299217E+03 0.  0.
          5    1    3    3  502    0 -0.90896088497E+02 -0.13926678565E+02  0.65912650746E+02  0.11321661189E+03  0.41800000000E+01 0. -1.
         -5    1    3    3    0  502 -0.49218540832E+02  0.35433363440E+02  0.23029537146E+03  0.23818358156E+03  0.41800000000E+01 0. -1.
        -11    1    1    2    0    0  0.62446758605E+02  0.49303500305E+02  0.41397435600E+02  0.89689355427E+02  0.00000000000E+00 0.  1.
         11    1    1    2    0    0  0.77667870724E+02 -0.70810185180E+02  0.26216844014E+02  0.10832222015E+03  0.00000000000E+00 0. -1.
</event>
<event>
 7    1  0.2690635E-009  0.1754288E+03  0.7561462E-02  0.1172302E+00
          2   -1    0    0  501    0  0.00000000000E+00  0.00000000000E+00  0.73204785184E+03  0.73204785184E+03  0.00000000000E+00 0. -1.
         -2   -1    0    0    0  501 -0.00000000000E+00 -0.00000000000E+00 -0.54869140273E+02  0.54869140273E+02  0.00000000000E+00 0.  1.
         25    2    1    2    0    0  0.34339349307E+02 -0.15949517647E+03  0.42699434813E+03  0.47391009080E+03  0.12509475850E+03 0.  0.
          5    1    3    3  502    0  0.47746661560E+02 -0.80679790814E+02  0.99498979000E+02  0.13677167674E+03  0.41800000000E+01 0.  1.
         -5    1    3    3    0  502 -0.13407312253E+02 -0.78815385657E+02  0.32749536913E+03  0.33713841406E+03  0.41800000000E+01 0.  1.
        -11    1    1    2    0    0  0.14067521775E+02  0.96461744300E+02  0.18917442777E+03  0.21281383273E+03  0.00000000000E+00 0.  1.
         11    1    1    2    0    0 -0.48406871083E+02  0.63033432172E+02  0.61009935672E+02  0.10019306857E+03  0.00000000000E+00 0. -1.
</event>
<event>
 7    1  0.2690635E-009  0.1854186E+03  0.7561462E-02  0.1162660E+00
         -4   -1    0    0    0  501 -0.00000000000E+00  0.00000000000E+00  0.26570259275E+03  0.26570259275E+03  0.00000000000E+00 0.  1.
          4   -1    0    0  501    0  0.00000000000E+00 -0.00000000000E+00 -0.13872395210E+03  0.13872395210E+03  0.00000000000E+00 0. -1.
         25    2    1    2    0    0 -0.11634320615E+03 -0.10352467053E+03  0.97780477707E+02  0.22239971305E+03  0.12509001367E+03 0.  0.
          5    1    3    3  502    0 -0.12470185634E+03 -0.46124563683E+02  0.96303485184E+02  0.16422503466E+03  0.41800000000E+01 0.  1.
         -5    1    3    3    0  502  0.83586501957E+01 -0.57400106846E+02  0.14769925228E+01  0.58174678392E+02  0.41800000000E+01 0.  1.
        -11    1    1    2    0    0  0.27314813825E+02  0.84248060047E+02  0.13300299462E+02  0.89558543098E+02  0.00000000000E+00 0.  1.
         11    1    1    2    0    0  0.89028392320E+02  0.19276610482E+02  0.15897863480E+02  0.92468288694E+02  0.00000000000E+00 0. -1.
</event>
<event>
 7    1  0.2690635E-009  0.1126671E+03  0.7561462E-02  0.1255709E+00
         -4   -1    0    0    0  501 -0.00000000000E+00  0.00000000000E+00  0.45119536860E+02  0.45119536860E+02  0.00000000000E+00 0.  1.
          4   -1    0    0  501    0  0.00000000000E+00 -0.00000000000E+00 -0.35248989048E+03  0.35248989048E+03  0.00000000000E+00 0. -1.
         25    2    1    2    0    0  0.15332470390E+02 -0.56628215363E+02 -0.21164692619E+03  0.25275285946E+03  0.12509095562E+03 0.  0.
          5    1    3    3  502    0  0.61833301724E+02  0.23042394839E+00 -0.12151383638E+03  0.13640562719E+03  0.41800000000E+01 0. -1.
         -5    1    3    3    0  502 -0.46500831334E+02 -0.56858639311E+02 -0.90133089814E+02  0.11634723228E+03  0.41800000000E+01 0. -1.
        -11    1    1    2    0    0  0.26120883486E+02  0.11589047949E+02  0.29610596567E+01  0.28729331018E+02  0.00000000000E+00 0.  1.
         11    1    1    2    0    0 -0.41453353876E+02  0.45039167414E+02 -0.98684487086E+02  0.11612723686E+03  0.00000000000E+00 0. -1.
</event>
<event>
 7    1  0.2690635E-009  0.2162517E+03  0.7561462E-02  0.1136709E+00
          1   -1    0    0  501    0  0.00000000000E+00  0.00000000000E+00  0.96366299258E+03  0.96366299258E+03  0.00000000000E+00 0. -1.
         -1   -1    0    0    0  501 -0.00000000000E+00 -0.00000000000E+00 -0.67910895251E+02  0.67910895251E+02  0.00000000000E+00 0.  1.
         25    2    1    2    0    0  0.20417159933E+03  0.68505251636E+02  0.63182426763E+03  0.67913769729E+03  0.12508834973E+03 0.  0.
          5    1    3    3  502    0  0.96095890593E+02  0.18371013679E+02  0.12667326654E+03  0.16011090902E+03  0.41800000000E+01 0.  1.
         -5    1    3    3    0  502  0.10807570874E+03  0.50134237957E+02  0.50515100109E+03  0.51902678827E+03  0.41800000000E+01 0.  1.
        -11    1    1    2    0    0 -0.12033033737E+03 -0.39353357106E+02  0.84379999155E+02  0.15214486868E+03  0.00000000000E+00 0.  1.
         11    1    1    2    0    0 -0.83841261963E+02 -0.29151894530E+02  0.17954783055E+03  0.20029132187E+03  0.00000000000E+00 0. -1.
</event>
<event>
 7    1  0.2690635E-009  0.9104136E+02  0.7561462E-02  0.1300349E+00
         -2   -1    0    0    0  501 -0.00000000000E+00  0.00000000000E+00  0.36575173122E+02  0.36575173122E+02  0.00000000000E+00 0.  1.
          2   -1    0    0  501    0  0.00000000000E+00 -0.00000000000E+00 -0.43814346016E+03  0.43814346016E+03  0.00000000000E+00 0. -1.
         25    2    1    2    0    0  0.46329177531E+01 -0.57938278975E+02 -0.20599493547E+03  0.24790988700E+03  0.12508833095E+03 0.  0.
          5    1    3    3  502    0 -0.23166399526E+02 -0.23132661830E+02 -0.20007571750E+03  0.20277960263E+03  0.41800000000E+01 0.  1.
         -5    1    3    3    0  502  0.27799317280E+02 -0.34805617146E+02 -0.59192179660E+01  0.45130284371E+02  0.41800000000E+01 0.  1.
        -11    1    1    2    0    0 -0.36013701437E+02  0.62985030175E+02 -0.17364803796E+03  0.18819601963E+03  0.00000000000E+00 0. -1.
         11    1    1    2    0    0  0.31380783683E+02 -0.50467511997E+01 -0.21925313613E+02  0.38612726649E+02  0.00000000000E+00 0.  1.
</event>
<event>
 7    1  0.2690635E-009  0.1023564E+03  0.7561462E-02  0.1275417E+00
         -1   -1    0    0    0  501 -0.00000000000E+00  0.00000000000E+00  0.29604728386E+03  0.29604728386E+03  0.00000000000E+00 0.  1.
          1   -1    0    0  501    0  0.00000000000E+00 -0.00000000000E+00 -0.44374598842E+02  0.44374598842E+02  0.00000000000E+00 0. -1.
         25    2    1    2    0    0  0.12210708997E+01 -0.16936596781E+02  0.94487481590E+02  0.15768369473E+03  0.12509166272E+03 0.  0.
          5    1    3    3  502    0  0.55365611813E+02 -0.20304358505E+02  0.14375985120E+02  0.60842084891E+02  0.41800000000E+01 0.  1.
         -5    1    3    3    0  502 -0.54144540913E+02  0.33677617248E+01  0.80111496470E+02  0.96841609840E+02  0.41800000000E+01 0.  1.
        -11    1    1    2    0    0  0.25007657803E+02 -0.28995599763E+02  0.85210095829E+02  0.93417815141E+02  0.00000000000E+00 0.  1.
         11    1    1    2    0    0 -0.26228728703E+02  0.45932196543E+02  0.71975107596E+02  0.89320372828E+02  0.00000000000E+00 0. -1.
</event>
<event>
 7    1  0.2690635E-009  0.1251163E+03  0.7561462E-02  0.1234888E+00
          2   -1    0    0  501    0  0.00000000000E+00  0.00000000000E+00  0.11491307995E+03  0.11491307995E+03  0.00000000000E+00 0. -1.
         -2   -1    0    0    0  501 -0.00000000000E+00 -0.00000000000E+00 -0.21486056342E+03  0.21486056342E+03  0.00000000000E+00 0.  1.
         25    2    1    2    0    0  0.21399858558E+02 -0.70565419315E+02 -0.14495797316E+03  0.20517857730E+03  0.12509197517E+03 0.  0.
          5    1    3    3  502    0  0.68138830251E+02 -0.48927555202E+02 -0.51886320774E+02  0.98724204375E+02  0.41800000000E+01 0. -1.
         -5    1    3    3    0  502 -0.46738971693E+02 -0.21637864113E+02 -0.93071652381E+02  0.10645437293E+03  0.41800000000E+01 0. -1.
        -11    1    1    2    0    0 -0.25194141788E+02 -0.14733294875E+02  0.27193195240E+01  0.29312274852E+02  0.00000000000E+00 0.  1.
         11    1    1    2    0    0  0.37942832296E+01  0.85298714190E+02  0.42291170161E+02  0.95282791212E+02  0.00000000000E+00 0. -1.
</event>
<event>
 7    1  0.2690635E-009  0.1905573E+03  0.7561462E-02  0.1157960E+00
         -4   -1    0    0    0  501 -0.00000000000E+00  0.00000000000E+00  0.13268460818E+03  0.13268460818E+03  0.00000000000E+00 0.  1.
          4   -1    0    0  501    0  0.00000000000E+00 -0.00000000000E+00 -0.39924992483E+03  0.39924992483E+03  0.00000000000E+00 0. -1.
         25    2    1    2    0    0  0.18402141469E+03  0.37036470103E+02 -0.23176806688E+03  0.32341730608E+03  0.12508691323E+03 0.  0.
          5    1    3    3  502    0  0.80207449425E+02  0.25890434822E+02 -0.19183482788E+02  0.86539170151E+02  0.41800000000E+01 0.  1.
         -5    1    3    3    0  502  0.10381396527E+03  0.11146035281E+02 -0.21258458409E+03  0.23687813593E+03  0.41800000000E+01 0.  1.
        -11    1    1    2    0    0 -0.17278998310E+03 -0.23087455247E+02 -0.57834780013E+01  0.17442149371E+03  0.00000000000E+00 0.  1.
         11    1    1    2    0    0 -0.11231431596E+02 -0.13949014856E+02 -0.29013771775E+02  0.34095733219E+02  0.00000000000E+00 0. -1.
</event>
<event>
 7    1  0.2690635E-009  0.9778909E+02  0.7561462E-02  0.1285015E+00
         -1   -1    0    0    0  501 -0.00000000000E+00  0.00000000000E+00  0.27864638305E+03  0.27864638305E+03  0.00000000000E+00 0.  1.
          1   -1    0    0  501    0  0.00000000000E+00 -0.00000000000E+00 -0.55062473053E+02  0.55062473053E+02  0.00000000000E+00 0. -1.
         25    2    1    2    0    0 -0.14516564646E+02 -0.45393662088E+02  0.70110758635E+02  0.15111104733E+03  0.12509082677E+03 0.  0.
          5    1    3    3  502    0 -0.60293791190E+02 -0.33013195152E+02  0.31328096289E+01  0.68938372525E+02  0.41800000000E+01 0.  1.
         -5    1    3    3    0  502  0.45777226545E+02 -0.12380466935E+02  0.66977949006E+02  0.82172674805E+02  0.41800000000E+01 0.  1.
        -11    1    1    2    0    0 -0.14302811632E+02  0.48078778833E+02  0.14345005047E+03  0.15196728719E+03  0.00000000000E+00 0.  1.
         11    1    1    2    0    0  0.28819376278E+02 -0.26851167459E+01  0.10023100888E+02  0.30630521582E+02  0.00000000000E+00 0. -1.
</event>
<event>
 7    1  0.2690635E-009  0.1271481E+03  0.7561462E-02  0.1231750E+00
         -2   -1    0    0    0  501 -0.00000000000E+00  0.00000000000E+00  0.25973363505E+02  0.25973363505E+02  0.00000000000E+00 0.  1.
          2   -1    0    0  501    0  0.00000000000E+00 -0.00000000000E+00 -0.70896084296E+03  0.70896084296E+03  0.00000000000E+00 0. -1.
         25    2    1    2    0    0 -0.67225462349E+02 -0.16107137848E+02 -0.48775210781E+03  0.50826011240E+03  0.12509004960E+03 0.  0.
          5    1    3    3  502    0 -0.92157818951E+02  0.21814421895E+02 -0.28151774238E+03  0.29704990199E+03  0.41800000000E+01 0.  1.
         -5    1    3    3    0  502  0.24932356603E+02 -0.37921559743E+02 -0.20623436542E+03  0.21121021041E+03  0.41800000000E+01 0.  1.
        -11    1    1    2    0    0  0.18201058910E+02  0.50736451878E+02 -0.75878909281E+02  0.93075641111E+02  0.00000000000E+00 0. -1.
         11    1    1    2    0    0  0.49024403439E+02 -0.34629314030E+02 -0.11935646236E+03  0.13359845295E+03  0.00000000000E+00 0.  1.
</event>
<event>
 7    1  0.2696390E-009  0.1264610E+03  0.7561462E-02  0.1232803E+00
         -1   -1    0    0    0  501 -0.00000000000E+00  0.00000000000E+00  0.19207223291E+03  0.19207223291E+03  0.00000000000E+00 0.  1.
          1   -1    0    0  501    0  0.00000000000E+00 -0.00000000000E+00 -0.11446145464E+03  0.11446145464E+03  0.00000000000E+00 0. -1.
         25    2    1    2    0    0  0.85077319264E+02  0.42294335601E+02  0.76836323178E+01  0.15727298636E+03  0.12509513563E+03 0.  0.
          5    1    3    3  502    0 -0.55241105018E+01  0.54216659325E+02 -0.25037257298E+02  0.60119036904E+02  0.41800000000E+01 0.  1.
         -5    1    3    3    0  502  0.90601429766E+02 -0.11922323724E+02  0.32720889615E+02  0.97153949461E+02  0.41800000000E+01 0.  1.
        -11    1    1    2    0    0 -0.41354833399E+02 -0.47241366927E+02  0.82335846857E+02  0.10354303778E+03  0.00000000000E+00 0.  1.
         11    1    1    2    0    0 -0.43722485865E+02  0.49470313261E+01 -0.12408700901E+02  0.45717663405E+02  0.00000000000E+00 0. -1.
</event>
<event>
 7    1  0.2690635E-009  0.1554015E+03  0.7561462E-02  0.1193988E+00
          2   -1    0    0  501    0  0.00000000000E+00  0.00000000000E+00  0.18282487985E+03  0.18282487985E+03  0.00000000000E+00 0. -1.
         -2   -1    0    0    0  501 -0.00000000000E+00 -0.00000000000E+00 -0.14148409697E+03  0.14148409697E+03  0.00000000000E+00 0.  1.
         25    2    1    2    0    0  0.42908583319E+01  0.11298136886E+03 -0.14688806629E+02  0.16925335963E+03  0.12509091706E+03 0.  0.
          5    1    3    3  502    0  0.56097172814E+02  0.17573686110E+02 -0.14137213020E+02  0.60605778876E+02  0.41800000000E+01 0. -1.
         -5    1    3    3    0  502 -0.51806314482E+02  0.95407682754E+02 -0.55159360856E+00  0.10864758076E+03  0.41800000000E+01 0. -1.
        -11    1    1    2    0    0 -0.43508760150E+02 -0.34642322052E+02  0.32202398332E+02  0.64265831866E+02  0.00000000000E+00 0. -1.
         11    1    1    2    0    0  0.39217901819E+02 -0.78339046812E+02  0.23827191178E+02  0.90789785317E+02  0.00000000000E+00 0.  1.
</event>
<event>
 7    1  0.2690635E-009  0.1071433E+03  0.7561462E-02  0.1265953E+00
          2   -1    0    0  501    0  0.00000000000E+00  0.00000000000E+00  0.25715399494E+03  0.25715399494E+03  0.00000000000E+00 0. -1.
         -2   -1    0    0    0  501 -0.00000000000E+00 -0.00000000000E+00 -0.68873900420E+02  0.68873900420E+02  0.00000000000E+00 0.  1.
         25    2    1    2    0    0  0.70623638692E+02 -0.92477716568E+01  0.14250421842E+03  0.20255318058E+03  0.12508844500E+03 0.  0.
          5    1    3    3  502    0  0.72647164801E+02 -0.58565862537E+02  0.81459165338E+02  0.12393804430E+03  0.41800000000E+01 0. -1.
         -5    1    3    3    0  502 -0.20235261094E+01  0.49318090880E+02  0.61045053082E+02  0.78615136276E+02  0.41800000000E+01 0. -1.
        -11    1    1    2    0    0 -0.50884586514E+02  0.48169878435E+01  0.73272312498E+02  0.89337989094E+02  0.00000000000E+00 0. -1.
         11    1    1    2    0    0 -0.19739052177E+02  0.44307838133E+01 -0.27496436397E+02  0.34136725686E+02  0.00000000000E+00 0.  1.
</event>
<event>
 7    1  0.2690635E-009  0.1284928E+03  0.7561462E-02  0.1229709E+00
          1   -1    0    0  501    0  0.00000000000E+00  0.00000000000E+00  0.10450849454E+04  0.10450849454E+04  0.00000000000E+00 0. -1.
         -1   -1    0    0    0  501 -0.00000000000E+00 -0.00000000000E+00 -0.31335535740E+02  0.31335535740E+02  0.00000000000E+00 0.  1.
         25    2    1    2    0    0 -0.65138597162E+02 -0.95666226814E+02  0.80716945689E+03  0.82496409431E+03  0.12509260959E+03 0.  0.
          5    1    3    3  502    0 -0.35647140138E+02 -0.80619527996E+02  0.76988655890E+03  0.77492774687E+03  0.41800000000E+01 0.  1.
         -5    1    3    3    0  502 -0.29491457024E+02 -0.15046698817E+02  0.37282897989E+02  0.50036347441E+02  0.41800000000E+01 0.  1.
        -11    1    1    2    0    0  0.22994756663E+02 -0.72868798649E+01  0.76921908691E+02  0.80615367572E+02  0.00000000000E+00 0. -1.
         11    1    1    2    0    0  0.42143840499E+02  0.10295310668E+03  0.12965804409E+03  0.17084101927E+03  0.00000000000E+00 0.  1.
</event>
<event>
 7    1  0.2690635E-009  0.2153190E+03  0.7561462E-02  0.1137422E+00
          2   -1    0    0  501    0  0.00000000000E+00  0.00000000000E+00  0.83512778059E+03  0.83512778059E+03  0.00000000000E+00 0.  1.
         -2   -1    0    0    0  501 -0.00000000000E+00 -0.00000000000E+00 -0.16775430880E+03  0.16775430880E+03  0.00000000000E+00 0. -1.
         25    2    1    2    0    0  0.16627306286E+03 -0.10307588955E+03 -0.63460577556E+02  0.24071956308E+03  0.12508913904E+03 0.  0.
          5    1    3    3  502    0  0.64730750407E+02  0.64984380552E+01  0.21704033220E+02  0.68708348863E+02  0.41800000000E+01 0. -1.
         -5    1    3    3    0  502  0.10154231245E+03 -0.10957432760E+03 -0.85164610776E+02  0.17201121422E+03  0.41800000000E+01 0. -1.
        -11    1    1    2    0    0  0.10537034223E+02  0.15359669919E+02  0.74544098886E+02  0.76836002166E+02  0.00000000000E+00 0.  1.
         11    1    1    2    0    0 -0.17681009708E+03  0.87716219630E+02  0.65628995047E+03  0.68532652415E+03  0.00000000000E+00 0. -1.
</event>
<event>
 7    1  0.2690635E-009  0.1836402E+03  0.7561462E-02  0.1164326E+00
         -1   -1    0    0    0  501 -0.00000000000E+00  0.00000000000E+00  0.75564489219E+03  0.75564489219E+03  0.00000000000E+00 0.  1.
          1   -1    0    0  501    0  0.00000000000E+00 -0.00000000000E+00 -0.50507436298E+02  0.50507436298E+02  0.00000000000E+00 0. -1.
         25    2    1    2    0    0  0.14854167629E+03  0.66568988700E+00  0.50545280676E+03  0.54147510801E+03  0.12509068706E+03 0.  0.
          5    1    3    3  502    0 -0.14408003950E+02 -0.25008201274E+02  0.78869029465E+02  0.84088030763E+02  0.41800000000E+01 0.  1.
         -5    1    3    3    0  502  0.16294968024E+03  0.25673891161E+02  0.42658377730E+03  0.45738707724E+03  0.41800000000E+01 0.  1.
        -11    1    1    2    0    0  0.34115778579E+01 -0.19673675129E+02  0.30749574419E+02  0.36663724354E+02  0.00000000000E+00 0.  1.
         11    1    1    2    0    0 -0.15195325415E+03  0.19007985242E+02  0.16893507471E+03  0.22801349612E+03  0.00000000000E+00 0. -1.
</event>
<event>
 7    1  0.2690635E-009  0.1344332E+03  0.7561462E-02  0.1221022E+00
          2   -1    0    0  501    0  0.00000000000E+00  0.00000000000E+00  0.96262719630E+03  0.96262719630E+03  0.00000000000E+00 0. -1.
         -2   -1    0    0    0  501 -0.00000000000E+00 -0.00000000000E+00 -0.25494341227E+02  0.25494341227E+02  0.00000000000E+00 0.  1.
         25    2    1    2    0    0  0.92778975518E+02 -0.34378102745E+02  0.67596616660E+03  0.69452751247E+03  0.12509362467E+03 0.  0.
          5    1    3    3  502    0 -0.23189210126E+02 -0.11725033809E+01  0.26918213631E+03  0.27021400619E+03  0.41800000000E+01 0. -1.
         -5    1    3    3    0  502  0.11596818564E+03 -0.33205599365E+02  0.40678403029E+03  0.42431350628E+03  0.41800000000E+01 0. -1.
        -11    1    1    2    0    0 -0.41813424472E+02 -0.23086959913E+02  0.51204492667E+02  0.70023355056E+02  0.00000000000E+00 0.  1.
         11    1    1    2    0    0 -0.50965551046E+02  0.57465062659E+02  0.20996219581E+03  0.22357067001E+03  0.00000000000E+00 0. -1.
</event>
<event>
 7    1  0.2690635E-009  0.1362612E+03  0.7561462E-02  0.1218450E+00
          2   -1    0    0  501    0  0.00000000000E+00  0.00000000000E+00  0.81292185006E+03  0.81292185006E+03  0.00000000000E+00 0. -1.
         -2   -1    0    0    0  501 -0.00000000000E+00 -0.00000000000E+00 -0.30999923167E+02  0.30999923167E+02  0.00000000000E+00 0.  1.
         25    2    1    2    0    0  0.69730183016E+02 -0.92723393936E+02  0.42988665151E+03  0.46250649798E+03  0.12509916596E+03 0.  0.
          5    1    3    3  502    0  0.44957248197E+02 -0.16995705293E+02  0.33534387978E+03  0.33879639648E+03  0.41800000000E+01 0. -1.
         -5    1    3    3    0  502  0.24772934819E+02 -0.75727688644E+02  0.94542771735E+02  0.12371010150E+03  0.41800000000E+01 0. -1.
        -11    1    1    2    0    0  0.15405228897E+02 -0.37196765173E+01  0.64423092366E+02  0.66343740479E+02  0.00000000000E+00 0.  1.
         11    1    1    2    0    0 -0.85135411913E+02  0.96443070454E+02  0.28761218302E+03  0.31507153476E+03  0.00000000000E+00 0. -1.
</event>
<event>
 7    1  0.2690635E-009  0.1074741E+03  0.7561462E-02  0.1265320E+00
          1   -1    0    0  501    0  0.00000000000E+00  0.00000000000E+00  0.63051175893E+03  0.63051175893E+03  0.00000000000E+00 0. -1.
         -1   -1    0    0    0  501 -0.00000000000E+00 -0.00000000000E+00 -0.31625861818E+02  0.31625861818E+02  0.00000000000E+00 0.  1.
         25    2    1    2    0    0  0.74225952157E+02 -0.51434626918E+02  0.32044655020E+03  0.35565024711E+03  0.12508434718E+03 0.  0.
          5    1    3    3  502    0  0.51014114790E+02 -0.44473107405E+02  0.50399818123E+02  0.84486160150E+02  0.41800000000E+01 0. -1.
         -5    1    3    3    0  502  0.23211837367E+02 -0.69615195130E+01  0.27004673208E+03  0.27116408696E+03  0.41800000000E+01 0. -1.
        -11    1    1    2    0    0 -0.21678472588E+02  0.64799595448E+02  0.10959829775E+03  0.12915390282E+03  0.00000000000E+00 0.  1.
         11    1    1    2    0    0 -0.52547479569E+02 -0.13364968530E+02  0.16884104916E+03  0.17733347083E+03  0.00000000000E+00 0. -1.
</event>
<event>
 7    1  0.2690635E-009  0.1985998E+03  0.7561462E-02  0.1150926E+00
         -2   -1    0    0    0  501 -0.00000000000E+00  0.00000000000E+00  0.80463019027E+02  0.80463019027E+02  0.00000000000E+00 0.  1.
          2   -1    0    0  501    0  0.00000000000E+00 -0.00000000000E+00 -0.86517329656E+03  0.86517329656E+03  0.00000000000E+00 0. -1.
         25    2    1    2    0    0 -0.86964770051E+02 -0.15809492797E+03 -0.68778035790E+03  0.72197343660E+03  0.12508774904E+03 0.  0.
          5    1    3    3  502    0 -0.21967862391E+02 -0.12315350224E+03 -0.26867088948E+03  0.29639651034E+03  0.41800000000E+01 0. -1.
         -5    1    3    3    0  502 -0.64996907660E+02 -0.34941425733E+02 -0.41910946842E+03  0.42557692625E+03  0.41800000000E+01 0. -1.
        -11    1    1    2    0    0  0.97580528375E+02  0.10250031313E+03 -0.49856218044E+02  0.15004638012E+03  0.00000000000E+00 0.  1.
         11    1    1    2    0    0 -0.10615758324E+02  0.55594614848E+02 -0.47073701591E+02  0.73616498874E+02  0.00000000000E+00 0. -1.
</event>
<event>
 7    1  0.2690635E-009  0.9286645E+02  0.7561462E-02  0.1296055E+00
          1   -1    0    0  501    0  0.00000000000E+00  0.00000000000E+00  0.46198722304E+03  0.46198722304E+03  0.00000000000E+00 0. -1.
         -1   -1    0    0    0  501 -0.00000000000E+00 -0.00000000000E+00 -0.36569287368E+02  0.36569287368E+02  0.00000000000E+00 0.  1.
         25    2    1    2    0    0  0.28198533920E+01 -0.33425530326E+02  0.36142830404E+03  0.38393041199E+03  0.12508766783E+03 0.  0.
          5    1    3    3  502    0  0.17978873270E+02 -0.59820002455E+02  0.34176925245E+03  0.34745556104E+03  0.41800000000E+01 0.  1.
         -5    1    3    3    0  502 -0.15159019878E+02  0.26394472130E+02  0.19659051589E+02  0.36474850953E+02  0.41800000000E+01 0.  1.
        -11    1    1    2    0    0  0.39642759998E+02  0.30173052780E+02  0.47869845537E+02  0.69090401982E+02  0.00000000000E+00 0.  1.
         11    1    1    2    0    0 -0.42462613390E+02  0.32524775455E+01  0.16119786101E+02  0.45535696437E+02  0.00000000000E+00 0. -1.
</event>
<event>
 7    1  0.2690635E-009  0.1198549E+03  0.7561462E-02  0.1243337E+00
         -1   -1    0    0    0  501 -0.00000000000E+00  0.00000000000E+00  0.32938488202E+02  0.32938488202E+02  0.00000000000E+00 0.  1.
          1   -1    0    0  501    0  0.00000000000E+00 -0.00000000000E+00 -0.66962824920E+03  0.66962824920E+03  0.00000000000E+00 0. -1.
         25    2    1    2    0    0 -0.54664170158E+02  0.48102568671E+02 -0.50803593837E+03  0.52825183352E+03  0.12508979309E+03 0.  0.
          5    1    3    3  502    0  0.30376762793E+02  0.41465974530E+02 -0.11484263267E+03  0.12589073612E+03  0.41800000000E+01 0. -1.
         -5    1    3    3    0  502 -0.85040932952E+02  0.66365941405E+01 -0.39319330570E+03  0.40236109741E+03  0.41800000000E+01 0. -1.
        -11    1    1    2    0    0  0.23323971585E+02  0.18078198738E+02 -0.40487371491E+01  0.29786258453E+02  0.00000000000E+00 0.  1.
         11    1    1    2    0    0  0.31340198574E+02 -0.66180767409E+02 -0.12460508548E+03  0.14452864543E+03  0.00000000000E+00 0. -1.
</event>
<event>
 7    1  0.2690635E-009  0.8971617E+02  0.7561462E-02  0.1303541E+00
          1   -1    0    0  501    0  0.00000000000E+00  0.00000000000E+00  0.32915460004E+03  0.32915460004E+03  0.00000000000E+00 0. -1.
         -1   -1    0    0    0  501 -0.00000000000E+00 -0.00000000000E+00 -0.27657439135E+02  0.27657439135E+02  0.00000000000E+00 0.  1.
         25    2    1    2    0    0 -0.12309621292E+02 -0.34923358134E+02  0.23370570067E+03  0.26765112425E+03  0.12509037561E+03 0.  0.
          5    1    3    3  502    0  0.10843512575E+02  0.40700658345E+02  0.39410314711E+02  0.57833992256E+02  0.41800000000E+01 0. -1.
         -5    1    3    3    0  502 -0.23153133867E+02 -0.75624016478E+02  0.19429538596E+03  0.20981713200E+03  0.41800000000E+01 0. -1.
        -11    1    1    2    0    0 -0.16926030873E+02  0.11849235412E+02  0.23487238527E+02  0.31281708307E+02  0.00000000000E+00 0.  1.
         11    1    1    2    0    0  0.29235652165E+02  0.23074122722E+02  0.44304221714E+02  0.57879206616E+02  0.00000000000E+00 0. -1.
</event>
<event>
 7    1  0.2690635E-009  0.1083593E+03  0.7561462E-02  0.1263639E+00
          2   -1    0    0  501    0  0.00000000000E+00  0.00000000000E+00  0.11097715200E+03  0.11097715200E+03  0.00000000000E+00 0. -1.
         -2   -1    0    0    0  501 -0.00000000000E+00 -0.00000000000E+00 -0.17087632287E+03  0.17087632287E+03  0.00000000000E+00 0.  1.
         25    2    1    2    0    0 -0.65734085234E+02 -0.39286565013E+02  0.37532239730E+01  0.14671939380E+03  0.12509232461E+03 0.  0.
          5    1    3    3  502    0 -0.59160351217E+02 -0.18282316757E+01  0.56249472265E+02  0.81760412898E+02  0.41800000000E+01 0. -1.
         -5    1    3    3    0  502 -0.65737340170E+01 -0.37458333337E+02 -0.52496248292E+02  0.64958980904E+02  0.41800000000E+01 0. -1.
        -11    1    1    2    0    0  0.30772718614E+02 -0.29077670690E+02 -0.20247963078E+02  0.46930279697E+02  0.00000000000E+00 0.  1.
         11    1    1    2    0    0  0.34961366620E+02  0.68364235703E+02 -0.43404431771E+02  0.88203801372E+02  0.00000000000E+00 0. -1.
</event>
<event>
 7    1  0.2949660E-009  0.2172159E+03  0.7561462E-02  0.1135976E+00
          1   -1    0    0  501    0  0.00000000000E+00  0.00000000000E+00  0.44829494247E+03  0.44829494247E+03  0.00000000000E+00 0.  1.
         -1   -1    0    0    0  501 -0.00000000000E+00 -0.00000000000E+00 -0.12538404937E+03  0.12538404937E+03  0.00000000000E+00 0. -1.
         25    2    1    2    0    0  0.11061985132E+03 -0.16838662985E+03  0.23939588808E+03  0.33696667646E+03  0.12508133834E+03 0.  0.
          5    1    3    3  502    0  0.11442762617E+03 -0.12452053913E+03  0.23890845373E+03  0.29273497905E+03  0.41800000000E+01 0.  1.
         -5    1    3    3    0  502 -0.38077748462E+01 -0.43866090717E+02  0.48743435096E+00  0.44231697416E+02  0.41800000000E+01 0.  1.
        -11    1    1    2    0    0 -0.28986730684E+02  0.12554248692E+03  0.41202779649E+02  0.13527311495E+03  0.00000000000E+00 0.  1.
         11    1    1    2    0    0 -0.81633120638E+02  0.42844142931E+02  0.42312225369E+02  0.10143920043E+03  0.00000000000E+00 0. -1.
</event>
<event>
 7    1  0.2690635E-009  0.1383505E+03  0.7561462E-02  0.1215566E+00
         -1   -1    0    0    0  501 -0.00000000000E+00  0.00000000000E+00  0.93579973183E+02  0.93579973183E+02  0.00000000000E+00 0. -1.
          1   -1    0    0  501    0  0.00000000000E+00 -0.00000000000E+00 -0.26199726819E+03  0.26199726819E+03  0.00000000000E+00 0.  1.
         25    2    1    2    0    0  0.93175620316E+02 -0.53613984128E+02 -0.55248150616E+02  0.17394337602E+03  0.12509110440E+03 0.  0.
          5    1    3    3  502    0 -0.15993371333E+02 -0.50264242321E+02 -0.35456138957E+01  0.53031365819E+02  0.41800000000E+01 0.  1.
         -5    1    3    3    0  502  0.10916899165E+03 -0.33497418072E+01 -0.51702536720E+02  0.12091201020E+03  0.41800000000E+01 0.  1.
        -11    1    1    2    0    0 -0.44512284797E+02  0.48063558503E+02 -0.11529803831E+03  0.13260877343E+03  0.00000000000E+00 0.  1.
         11    1    1    2    0    0 -0.48663335519E+02  0.55504256255E+01  0.21288939168E+01  0.49025091920E+02  0.00000000000E+00 0. -1.
</event>
<event>
 7    1  0.2690635E-009  0.1776696E+03  0.7561462E-02  0.1170078E+00
          1   -1    0    0  501    0  0.00000000000E+00  0.00000000000E+00  0.22820407080E+03  0.22820407080E+03  0.00000000000E+00 0. -1.
         -1   -1    0    0    0  501 -0.00000000000E+00 -0.00000000000E+00 -0.17529538253E+03  0.17529538253E+03  0.00000000000E+00 0.  1.
         25    2    1    2    0    0  0.76269201319E+01  0.16033816115E+03  0.74738354294E+02  0.21679424561E+03  0.12508967780E+03 0.  0.
          5    1    3    3  502    0  0.49562112939E+02  0.31856240243E+02  0.53936521292E+02  0.79986522680E+02  0.41800000000E+01 0. -1.
         -5    1    3    3    0  502 -0.41935192807E+02  0.12848192091E+03  0.20801833003E+02  0.13680772293E+03  0.41800000000E+01 0. -1.
        -11    1    1    2    0    0 -0.10299738548E-01 -0.12035183126E+03 -0.56762054615E+02  0.13306575156E+03  0.00000000000E+00 0.  1.
         11    1    1    2    0    0 -0.76166203934E+01 -0.39986329888E+02  0.34932388598E+02  0.53639456161E+02  0.00000000000E+00 0. -1.
</event>
<event>
 7    1  0.2690635E-009  0.1009468E+03  0.7561462E-02  0.1278318E+00
          2   -1    0    0  501    0  0.00000000000E+00  0.00000000000E+00  0.16378904390E+03  0.16378904390E+03  0.00000000000E+00 0. -1.
         -2   -1    0    0    0  501 -0.00000000000E+00 -0.00000000000E+00 -0.81695814773E+02  0.81695814773E+02  0.00000000000E+00 0.  1.
         25    2    1    2    0    0 -0.30073393898E+02 -0.24884360348E+01  0.28675150908E+02  0.13183369197E+03  0.12508899522E+03 0.  0.
          5    1    3    3  502    0 -0.67959306702E+02  0.25199545513E+02 -0.67144380453E+01  0.72911182543E+02  0.41800000000E+01 0.  1.
         -5    1    3    3    0  502  0.37885912805E+02 -0.27687981548E+02  0.35389588953E+02  0.58922509430E+02  0.41800000000E+01 0.  1.
        -11    1    1    2    0    0  0.30146522792E+02 -0.34144381037E+02 -0.38046884231E+01  0.45706971534E+02  0.00000000000E+00 0.  1.
         11    1    1    2    0    0 -0.73128894345E-01  0.36632817072E+02  0.57222766640E+02  0.67944195163E+02  0.00000000000E+00 0. -1.
</event>
<event>
 7    1  0.2690635E-009  0.8621940E+02  0.7561462E-02  0.1312274E+00
         -1   -1    0    0    0  501 -0.00000000000E+00  0.00000000000E+00  0.10571016711E+03  0.10571016711E+03  0.00000000000E+00 0.  1.
          1   -1    0    0  501    0  0.00000000000E+00 -0.00000000000E+00 -0.11608976498E+03  0.11608976498E+03  0.00000000000E+00 0. -1.
         25    2    1    2    0    0 -0.71996800318E+01  0.10436973935E+02  0.19227649534E+02  0.12718985370E+03  0.12508713188E+03 0.  0.
          5    1    3    3  502    0 -0.51295047413E+02 -0.11435950470E+02  0.46904719881E+02  0.70565487310E+02  0.41800000000E+01 0. -1.
         -5    1    3    3    0  502  0.44095367381E+02  0.21872924406E+02 -0.27677070347E+02  0.56624366394E+02  0.41800000000E+01 0. -1.
        -11    1    1    2    0    0  0.37393474591E+02 -0.13973101520E+02 -0.45316225298E+02  0.60391057147E+02  0.00000000000E+00 0. -1.
         11    1    1    2    0    0 -0.30193794559E+02  0.35361275850E+01  0.15708977896E+02  0.34219021241E+02  0.00000000000E+00 0.  1.
</event>
<event>
 7    1  0.4345250E-009  0.1597109E+03  0.7561462E-02  0.1189024E+00
         -1   -1    0    0    0  501 -0.00000000000E+00  0.00000000000E+00  0.47626319803E+02  0.47626319803E+02  0.00000000000E+00 0.  1.
          1   -1    0    0  501    0  0.00000000000E+00 -0.00000000000E+00 -0.63372013989E+03  0.63372013989E+03  0.00000000000E+00 0. -1.
         25    2    1    2    0    0  0.51506345312E+02  0.10778056640E+03 -0.18703023660E+03  0.25475452453E+03  0.12509997708E+03 0.  0.
          5    1    3    3  502    0  0.50012112166E+02 -0.97293843244E+01 -0.32530277426E+02  0.60593428951E+02  0.41800000000E+01 0. -1.
         -5    1    3    3    0  502  0.14942331464E+01  0.11750995073E+03 -0.15449995917E+03  0.19416109558E+03  0.41800000000E+01 0. -1.
        -11    1    1    2    0    0  0.41721221970E+01 -0.93009084676E+02 -0.24094922386E+03  0.25831110103E+03  0.00000000000E+00 0. -1.
         11    1    1    2    0    0 -0.55678467509E+02 -0.14771481725E+02 -0.15811435962E+03  0.16828083413E+03  0.00000000000E+00 0.  1.
</event>
<event>
 7    1  0.2690635E-009  0.1218971E+03  0.7561462E-02  0.1240000E+00
         -1   -1    0    0    0  501 -0.00000000000E+00  0.00000000000E+00  0.28824562103E+02  0.28824562103E+02  0.00000000000E+00 0.  1.
          1   -1    0    0  501    0  0.00000000000E+00 -0.00000000000E+00 -0.91907401909E+03  0.91907401909E+03  0.00000000000E+00 0. -1.
         25    2    1    2    0    0  0.21973822067E+02 -0.10439399575E+03 -0.63917158999E+03  0.65997631309E+03  0.12508979649E+03 0.  0.
          5    1    3    3  502    0  0.40582356258E+02 -0.45477344654E+02 -0.53727693771E+03  0.54073939815E+03  0.41800000000E+01 0.  1.
         -5    1    3    3    0  502 -0.18608534191E+02 -0.58916651099E+02 -0.10189465228E+03  0.11923691494E+03  0.41800000000E+01 0.  1.
        -11    1    1    2    0    0 -0.39533475155E+02  0.50769042281E+02 -0.20564966896E+03  0.21548126984E+03  0.00000000000E+00 0. -1.
         11    1    1    2    0    0  0.17559653088E+02  0.53624953471E+02 -0.45428198040E+02  0.72440998257E+02  0.00000000000E+00 0.  1.
</event>
<event>
 7    1  0.2690635E-009  0.1019008E+03  0.7561462E-02  0.1276349E+00
          4   -1    0    0  501    0  0.00000000000E+00  0.00000000000E+00  0.35258616406E+02  0.35258616406E+02  0.00000000000E+00 0. -1.
         -4   -1    0    0    0  501 -0.00000000000E+00 -0.00000000000E+00 -0.57433346818E+03  0.57433346818E+03  0.00000000000E+00 0.  1.
         25    2    1    2    0    0  0.33091014953E+02  0.36928468972E+02 -0.46301034593E+03  0.48216627061E+03  0.12508798899E+03 0.  0.
          5    1    3    3  502    0  0.37381688620E+02 -0.27524968229E+02 -0.71566556472E+02  0.85406433747E+02  0.41800000000E+01 0. -1.
         -5    1    3    3    0  502 -0.42906736672E+01  0.64453437201E+02 -0.39144378945E+03  0.39675983686E+03  0.41800000000E+01 0. -1.
        -11    1    1    2    0    0 -0.34945813020E+01 -0.56738462046E+02 -0.18584494934E+02  0.59806760703E+02  0.00000000000E+00 0. -1.
         11    1    1    2    0    0 -0.29596433651E+02  0.19809993074E+02 -0.57480010911E+02  0.67619053267E+02  0.00000000000E+00 0.  1.
</event>
<event>
 7    1  0.2690635E-009  0.1487765E+03  0.7561462E-02  0.1201985E+00
         -1   -1    0    0    0  501 -0.00000000000E+00  0.00000000000E+00  0.68080155766E+02  0.68080155766E+02  0.00000000000E+00 0.  1.
          1   -1    0    0  501    0  0.00000000000E+00 -0.00000000000E+00 -0.49835661951E+03  0.49835661951E+03  0.00000000000E+00 0. -1.
         25    2    1    2    0    0  0.11817787288E+03 -0.57537293926E+02 -0.12049836277E+03  0.21781717802E+03  0.12509163754E+03 0.  0.
          5    1    3    3  502    0  0.36197249648E+02 -0.58742109006E+02  0.33763284260E+01  0.69208007096E+02  0.41800000000E+01 0. -1.
         -5    1    3    3    0  502  0.81980623228E+02  0.12048150807E+01 -0.12387469120E+03  0.14860917093E+03  0.41800000000E+01 0. -1.
        -11    1    1    2    0    0 -0.86001428474E+02  0.70931133387E+02 -0.16109218142E+03  0.19590345147E+03  0.00000000000E+00 0.  1.
         11    1    1    2    0    0 -0.32176444402E+02 -0.13393839461E+02 -0.14868591955E+03  0.15271614578E+03  0.00000000000E+00 0. -1.
</event>
<event>
 7    1  0.2690635E-009  0.1506426E+03  0.7561462E-02  0.1199686E+00
         -1   -1    0    0    0  501 -0.00000000000E+00  0.00000000000E+00  0.12976905589E+04  0.12976905589E+04  0.00000000000E+00 0.  1.
          1   -1    0    0  501    0  0.00000000000E+00 -0.00000000000E+00 -0.21514513862E+02  0.21514513862E+02  0.00000000000E+00 0. -1.
         25    2    1    2    0    0  0.98486082113E+02 -0.65775835510E+02  0.86992561625E+03  0.88681706838E+03  0.12509183054E+03 0.  0.
          5    1    3    3  502    0 -0.10650043541E+02  0.20161306160E+02  0.27054214368E+03  0.27153347050E+03  0.41800000000E+01 0.  1.
         -5    1    3    3    0  502  0.10913612565E+03 -0.85937141670E+02  0.59938347257E+03  0.61528359789E+03  0.41800000000E+01 0.  1.
        -11    1    1    2    0    0 -0.65880193804E+02  0.18192185167E+00  0.26744864604E+03  0.27544329961E+03  0.00000000000E+00 0.  1.
         11    1    1    2    0    0 -0.32605888309E+02  0.65593913658E+02  0.13880178279E+03  0.15694470481E+03  0.00000000000E+00 0. -1.
</event>
<event>
 7    1  0.2690635E-009  0.1332806E+03  0.7561462E-02  0.1222668E+00
         -1   -1    0    0    0  501 -0.00000000000E+00  0.00000000000E+00  0.27932972921E+02  0.27932972921E+02  0.00000000000E+00 0.  1.
          1   -1    0    0  501    0  0.00000000000E+00 -0.00000000000E+00 -0.80698226458E+03  0.80698226458E+03  0.00000000000E+00 0. -1.
         25    2    1    2    0    0 -0.94072218331E+02 -0.82076287479E+01 -0.31749093382E+03  0.35406956520E+03  0.12509123274E+03 0.  0.
          5    1    3    3  502    0  0.23883598751E+02 -0.10601153001E+02 -0.17606353137E+02  0.31784694509E+02  0.41800000000E+01 0. -1.
         -5    1    3    3    0  502 -0.11795581708E+03  0.23935242534E+01 -0.29988458069E+03  0.32228487069E+03  0.41800000000E+01 0. -1.
        -11    1    1    2    0    0  0.22600017495E+02 -0.32656891498E+02 -0.67825237882E+02  0.78597049861E+02  0.00000000000E+00 0.  1.
         11    1    1    2    0    0  0.71472200837E+02  0.40864520246E+02 -0.39373311995E+03  0.40224862244E+03  0.00000000000E+00 0. -1.
</event>
<event>
 7    1  0.2690635E-009  0.1476505E+03  0.7561462E-02  0.1203390E+00
         -2   -1    0    0    0  501 -0.00000000000E+00  0.00000000000E+00  0.89934127268E+02  0.89934127268E+02  0.00000000000E+00 0. -1.
          2   -1    0    0  501    0  0.00000000000E+00 -0.00000000000E+00 -0.29492137911E+03  0.29492137911E+03  0.00000000000E+00 0.  1.
         25    2    1    2    0    0 -0.42542796240E+02 -0.10127252898E+03 -0.16642579567E+03  0.23539744087E+03  0.12509354526E+03 0.  0.
          5    1    3    3  502    0 -0.78897433802E+02 -0.86009053817E+02 -0.15511450541E+03  0.19416576575E+03  0.41800000000E+01 0. -1.
         -5    1    3    3    0  502  0.36354637562E+02 -0.15263475158E+02 -0.11311290264E+02  0.41231675125E+02  0.41800000000E+01 0. -1.
        -11    1    1    2    0    0  0.14955272188E+02  0.10915126299E+03 -0.12823680208E+02  0.11091485541E+03  0.00000000000E+00 0. -1.
         11    1    1    2    0    0  0.27587524052E+02 -0.78787340107E+01 -0.25737775962E+02  0.38543210095E+02  0.00000000000E+00 0.  1.
</event>
<event>
 7    1  0.3184037E-009  0.8456958E+02  0.7561462E-02  0.1316562E+00
          1   -1    0    0  501    0  0.00000000000E+00  0.00000000000E+00  0.50771420483E+03  0.50771420483E+03  0.00000000000E+00 0. -1.
         -1   -1    0    0    0  501 -0.00000000000E+00 -0.00000000000E+00 -0.30364209163E+02  0.30364209163E+02  0.00000000000E+00 0.  1.
         25    2    1    2    0    0 -0.36902828955E+02 -0.23312254667E-01  0.16387328274E+03  0.20943519684E+03  0.12508728772E+03 0.  0.
          5    1    3    3  502    0  0.22055795785E+02  0.31707560597E+01  0.14578931370E+03  0.14754154741E+03  0.41800000000E+01 0.  1.
         -5    1    3    3    0  502 -0.58958624740E+02 -0.31940683144E+01  0.18083969038E+02  0.61893649431E+02  0.41800000000E+01 0.  1.
        -11    1    1    2    0    0  0.23813217462E+02 -0.39232757109E+02  0.23969734771E+03  0.24405142297E+03  0.00000000000E+00 0. -1.
         11    1    1    2    0    0  0.13089611494E+02  0.39256069364E+02  0.73779365220E+02  0.84591794183E+02  0.00000000000E+00 0.  1.
</event>
<event>
 7    1  0.2690635E-009  0.1100100E+03  0.7561462E-02  0.1260551E+00
         -1   -1    0    0    0  501 -0.00000000000E+00  0.00000000000E+00  0.21314090408E+03  0.21314090408E+03  0.00000000000E+00 0.  1.
          1   -1    0    0  501    0  0.00000000000E+00 -0.00000000000E+00 -0.84807638958E+02  0.84807638958E+02  0.00000000000E+00 0. -1.
         25    2    1    2    0    0  0.38248691133E+01 -0.68033356166E+02  0.24223429379E+02  0.14449329783E+03  0.12509345071E+03 0.  0.
          5    1    3    3  502    0 -0.25114663988E+02 -0.75461292342E+02  0.58510294850E+02  0.98823478954E+02  0.41800000000E+01 0.  1.
         -5    1    3    3    0  502  0.28939533101E+02  0.74279361762E+01 -0.34286865471E+02  0.45669818872E+02  0.41800000000E+01 0.  1.
        -11    1    1    2    0    0 -0.34389983643E+02  0.71607572887E+02  0.59451874087E+02  0.99221171139E+02  0.00000000000E+00 0. -1.
         11    1    1    2    0    0  0.30565114530E+02 -0.35742167206E+01  0.44657961660E+02  0.54234074077E+02  0.00000000000E+00 0.  1.
</event>
<event>
 7    1  0.2690635E-009  0.1946143E+03  0.7561462E-02  0.1154364E+00
         -2   -1    0    0    0  501 -0.00000000000E+00  0.00000000000E+00  0.11534221178E+03  0.11534221178E+03  0.00000000000E+00 0.  1.
          2   -1    0    0  501    0  0.00000000000E+00 -0.00000000000E+00 -0.54075598830E+03  0.54075598830E+03  0.00000000000E+00 0. -1.
         25    2    1    2    0    0  0.17150316580E+03 -0.41141457615E+02 -0.35574357359E+02  0.21912374941E+03  0.12507488653E+03 0.  0.
          5    1    3    3  502    0  0.17980404183E+03 -0.33731898057E+02 -0.14560924992E+01  0.18299433601E+03  0.41800000000E+01 0.  1.
         -5    1    3    3    0  502 -0.83008760312E+01 -0.74095595581E+01 -0.34118264860E+02  0.36129413402E+02  0.41800000000E+01 0.  1.
        -11    1    1    2    0    0 -0.14827542571E+03  0.13528728038E+01 -0.26149506218E+03  0.30061121017E+03  0.00000000000E+00 0.  1.
         11    1    1    2    0    0 -0.23227740087E+02  0.39788584811E+02 -0.12834435698E+03  0.13636324050E+03  0.00000000000E+00 0. -1.
</event>
<event>
 7    1  0.2690635E-009  0.1333168E+03  0.7561462E-02  0.1222616E+00
         -2   -1    0    0    0  501 -0.00000000000E+00  0.00000000000E+00  0.30456961526E+02  0.30456961526E+02  0.00000000000E+00 0.  1.
          2   -1    0    0  501    0  0.00000000000E+00 -0.00000000000E+00 -0.70760419494E+03  0.70760419494E+03  0.00000000000E+00 0. -1.
         25    2    1    2    0    0 -0.33289857184E+02 -0.87456266235E+02 -0.39675213086E+03  0.42639511212E+03  0.12507487839E+03 0.  0.
          5    1    3    3  502    0  0.25190289366E+02 -0.62368140666E+02 -0.86487045943E+02  0.10964404756E+03  0.41800000000E+01 0.  1.
         -5    1    3    3    0  502 -0.58480146550E+02 -0.25088125570E+02 -0.31026508492E+03  0.31675106457E+03  0.41800000000E+01 0.  1.
        -11    1    1    2    0    0  0.68224959743E+02  0.62610150569E+02 -0.17762435066E+03  0.20031247099E+03  0.00000000000E+00 0. -1.
         11    1    1    2    0    0 -0.34935102558E+02  0.24846115667E+02 -0.10277075189E+03  0.11135357335E+03  0.00000000000E+00 0.  1.
</event>
<event>
 7    1  0.2690635E-009  0.1026185E+03  0.7561462E-02  0.1274884E+00
          1   -1    0    0  501    0  0.00000000000E+00  0.00000000000E+00  0.41094060502E+03  0.41094060502E+03  0.00000000000E+00 0. -1.
         -1   -1    0    0    0  501 -0.00000000000E+00 -0.00000000000E+00 -0.32999283703E+02  0.32999283703E+02  0.00000000000E+00 0.  1.
         25    2    1    2    0    0 -0.40371286390E+02 -0.71074522318E+01  0.21168752770E+03  0.24927693089E+03  0.12508805797E+03 0.  0.
          5    1    3    3  502    0 -0.59956458054E+02  0.34003128088E+02  0.18224637962E+03  0.19489023800E+03  0.41800000000E+01 0.  1.
         -5    1    3    3    0  502  0.19585171664E+02 -0.41110580320E+02  0.29441148087E+02  0.54386692894E+02  0.41800000000E+01 0.  1.
        -11    1    1    2    0    0 -0.25354274334E+01 -0.32178840338E+02  0.21843217390E+02  0.38974764960E+02  0.00000000000E+00 0.  1.
         11    1    1    2    0    0  0.42906713823E+02  0.39286292570E+02  0.14441057622E+03  0.15568819287E+03  0.00000000000E+00 0. -1.
</event>
<event>
 7    1  0.2778743E-009  0.1372893E+03  0.7561462E-02  0.1217024E+00
          2   -1    0    0  501    0  0.00000000000E+00  0.00000000000E+00  0.62473083674E+03  0.62473083674E+03  0.00000000000E+00 0. -1.
         -2   -1    0    0    0  501 -0.00000000000E+00 -0.00000000000E+00 -0.49071503745E+02  0.49071503745E+02  0.00000000000E+00 0.  1.
         25    2    1    2    0    0  0.71146023535E+02  0.11685199701E+03  0.32414230830E+03  0.37340672222E+03  0.12509275878E+03 0.  0.
          5    1    3    3  502    0  0.34161495944E+02  0.68622431377E+02  0.29691283486E+03  0.30667694696E+03  0.41800000000E+01 0. -1.
         -5    1    3    3    0  502  0.36984527592E+02  0.48229565634E+02  0.27229473444E+02  0.66729775262E+02  0.41800000000E+01 0. -1.
        -11    1    1    2    0    0 -0.38357051083E+02 -0.67483725784E+02  0.54991033930E+02  0.95127968685E+02  0.00000000000E+00 0.  1.
         11    1    1    2    0    0 -0.32788972453E+02 -0.49368271228E+02  0.19652599077E+03  0.20526764958E+03  0.00000000000E+00 0. -1.
</event>
<event>
 7    1  0.2690635E-009  0.6973797E+02  0.7561462E-02  0.1360986E+00
         -3   -1    0    0    0  501 -0.00000000000E+00  0.00000000000E+00  0.35757967263E+03  0.35757967263E+03  0.00000000000E+00 0.  1.
          3   -1    0    0  501    0  0.00000000000E+00 -0.00000000000E+00 -0.36494147963E+02  0.36494147963E+02  0.00000000000E+00 0. -1.
         25    2    1    2    0    0  0.13560342138E+02 -0.42759073002E+02  0.24523706126E+03  0.27892818920E+03  0.12508995689E+03 0.  0.
          5    1    3    3  502    0 -0.20472538539E+01  0.23097425882E+01  0.22797427360E+03  0.22803347996E+03  0.41800000000E+01 0. -1.
         -5    1    3    3    0  502  0.15607595992E+02 -0.45068815590E+02  0.17262787660E+02  0.50894709245E+02  0.41800000000E+01 0. -1.
        -11    1    1    2    0    0 -0.21794302269E+02 -0.16020389497E+02  0.27728923279E+02  0.38736774224E+02  0.00000000000E+00 0.  1.
         11    1    1    2    0    0  0.82339601309E+01  0.58779462499E+02  0.48119540129E+02  0.76408857166E+02  0.00000000000E+00 0. -1.
</event>
<event>
 7    1  0.2690635E-009  0.9685590E+02  0.7561462E-02  0.1287050E+00
         -2   -1    0    0    0  501 -0.00000000000E+00  0.00000000000E+00  0.27305186436E+02  0.27305186436E+02  0.00000000000E+00 0.  1.
          2   -1    0    0  501    0  0.00000000000E+00 -0.00000000000E+00 -0.96707574897E+03  0.96707574897E+03  0.00000000000E+00 0. -1.
         25    2    1    2    0    0 -0.62431748929E+02  0.30227748164E+02 -0.79802653574E+03  0.81074329572E+03  0.12508756843E+03 0.  0.
          5    1    3    3  502    0 -0.78203160363E+02 -0.11311965031E+02 -0.67952310869E+03  0.68411462672E+03  0.41800000000E+01 0.  1.
         -5    1    3    3    0  502  0.15771411434E+02  0.41539713195E+02 -0.11850342705E+03  0.12662866900E+03  0.41800000000E+01 0.  1.
        -11    1    1    2    0    0  0.24710078419E+02 -0.71079427467E+01 -0.13671250231E+03  0.13910937824E+03  0.00000000000E+00 0. -1.
         11    1    1    2    0    0  0.37721670510E+02 -0.23119805417E+02 -0.50315244765E+01  0.44528261443E+02  0.00000000000E+00 0.  1.
</event>
<event>
 7    1  0.2841372E-009  0.1104338E+03  0.7561462E-02  0.1259769E+00
          1   -1    0    0  501    0  0.00000000000E+00  0.00000000000E+00  0.94983918271E+03  0.94983918271E+03  0.00000000000E+00 0. -1.
         -1   -1    0    0    0  501 -0.00000000000E+00 -0.00000000000E+00 -0.15468071937E+02  0.15468071937E+02  0.00000000000E+00 0.  1.
         25    2    1    2    0    0  0.36945731726E+02  0.14021489323E+02  0.66792669112E+03  0.68068841170E+03  0.12509620243E+03 0.  0.
          5    1    3    3  502    0  0.64707507764E+02 -0.35438789899E+02  0.40419692916E+03  0.41089609311E+03  0.41800000000E+01 0. -1.
         -5    1    3    3    0  502 -0.27761776038E+02  0.49460279221E+02  0.26372976196E+03  0.26979231859E+03  0.41800000000E+01 0. -1.
        -11    1    1    2    0    0  0.12694915165E+02  0.24281498611E+02  0.32956898715E+02  0.42859178932E+02  0.00000000000E+00 0.  1.
         11    1    1    2    0    0 -0.49640646891E+02 -0.38302987934E+02  0.23348752094E+03  0.24175966401E+03  0.00000000000E+00 0. -1.
</event>
<event>
 7    1  0.2690635E-009  0.1165701E+03  0.7561462E-02  0.1248865E+00
          1   -1    0    0  501    0  0.00000000000E+00  0.00000000000E+00  0.64030289446E+03  0.64030289446E+03  0.00000000000E+00 0. -1.
         -1   -1    0    0    0  501 -0.00000000000E+00 -0.00000000000E+00 -0.35630620252E+02  0.35630620252E+02  0.00000000000E+00 0.  1.
         25    2    1    2    0    0  0.46318874879E+02  0.73805808427E+02  0.45600236410E+03  0.48080994848E+03  0.12508922801E+03 0.  0.
          5    1    3    3  502    0  0.29984274778E+02 -0.17880045621E+01  0.16479664254E+02  0.34515292672E+02  0.41800000000E+01 0. -1.
         -5    1    3    3    0  502  0.16334600102E+02  0.75593812989E+02  0.43952269984E+03  0.44629465580E+03  0.41800000000E+01 0. -1.
        -11    1    1    2    0    0 -0.35678061084E+02  0.12950162294E+02  0.34137928642E+02  0.51049279310E+02  0.00000000000E+00 0.  1.
         11    1    1    2    0    0 -0.10640813796E+02 -0.86755970721E+02  0.11453198146E+03  0.14407428692E+03  0.00000000000E+00 0. -1.
</event>
<event>
 7    1  0.2690635E-009  0.1026880E+03  0.7561462E-02  0.1274743E+00
         -2   -1    0    0    0  501 -0.00000000000E+00  0.00000000000E+00  0.42704813358E+02  0.42704813358E+02  0.00000000000E+00 0.  1.
          2   -1    0    0  501    0  0.00000000000E+00 -0.00000000000E+00 -0.42001303341E+03  0.42001303341E+03  0.00000000000E+00 0. -1.
         25    2    1    2    0    0  0.78454083999E+02  0.97071866844E+01 -0.19803096568E+03  0.24720575256E+03  0.12508056588E+03 0.  0.
          5    1    3    3  502    0  0.35356067894E+02  0.26933322976E+02 -0.91025556657E+00  0.44651499288E+02  0.41800000000E+01 0. -1.
         -5    1    3    3    0  502  0.43098016105E+02 -0.17226136291E+02 -0.19712071011E+03  0.20255425327E+03  0.41800000000E+01 0. -1.
        -11    1    1    2    0    0 -0.62555138785E+02 -0.43901527606E+02 -0.14780915036E+03  0.16639721886E+03  0.00000000000E+00 0. -1.
         11    1    1    2    0    0 -0.15898945214E+02  0.34194340922E+02 -0.31468104009E+02  0.49114875342E+02  0.00000000000E+00 0.  1.
</event>
<event>
 7    1  0.3551436E-009  0.1727173E+03  0.7561462E-02  0.1175043E+00
         -1   -1    0    0    0  501 -0.00000000000E+00  0.00000000000E+00  0.10015201377E+03  0.10015201377E+03  0.00000000000E+00 0.  1.
          1   -1    0    0  501    0  0.00000000000E+00 -0.00000000000E+00 -0.45214500271E+03  0.45214500271E+03  0.00000000000E+00 0. -1.
         25    2    1    2    0    0  0.16401849354E+03 -0.50460289660E+02 -0.10206120918E+03  0.23561055464E+03  0.12509011145E+03 0.  0.
          5    1    3    3  502    0  0.12791768732E+03 -0.33405909447E+02 -0.13096727040E+03  0.18614184868E+03  0.41800000000E+01 0. -1.
         -5    1    3    3    0  502  0.36100806217E+02 -0.17054380213E+02  0.28906061215E+02  0.49468705955E+02  0.41800000000E+01 0. -1.
        -11    1    1    2    0    0 -0.95200208343E+02  0.17836867761E+02 -0.20870443981E+03  0.23008428176E+03  0.00000000000E+00 0. -1.
         11    1    1    2    0    0 -0.68818285196E+02  0.32623421899E+02 -0.41227339948E+02  0.86602180070E+02  0.00000000000E+00 0.  1.
</event>
<event>
 7    1  0.2690635E-009  0.3472298E+03  0.7561462E-02  0.1063758E+00
         -1   -1    0    0    0  501 -0.00000000000E+00  0.00000000000E+00  0.15382354854E+03  0.15382354854E+03  0.00000000000E+00 0.  1.
          1   -1    0    0  501    0  0.00000000000E+00 -0.00000000000E+00 -0.97071807547E+03  0.97071807547E+03  0.00000000000E+00 0. -1.
         25    2    1    2    0    0  0.33542826713E+03 -0.53320151052E+02 -0.19716632452E+03  0.41216067676E+03  0.12508678206E+03 0.  0.
          5    1    3    3  502    0  0.26267891468E+03 -0.78920703875E+02 -0.10958884510E+03  0.29539105790E+03  0.41800000000E+01 0.  1.
         -5    1    3    3    0  502  0.72749352445E+02  0.25600552823E+02 -0.87577479420E+02  0.11676961886E+03  0.41800000000E+01 0.  1.
        -11    1    1    2    0    0 -0.17551404675E+03  0.39739195167E+01 -0.23951005793E+03  0.29696134511E+03  0.00000000000E+00 0.  1.
         11    1    1    2    0    0 -0.15991422038E+03  0.49346231535E+02 -0.38021814449E+03  0.41541960214E+03  0.00000000000E+00 0. -1.
</event>
<event>
 7    1  0.2690635E-009  0.1174512E+03  0.7561462E-02  0.1247362E+00
          1   -1    0    0  501    0  0.00000000000E+00  0.00000000000E+00  0.77755694133E+03  0.77755694133E+03  0.00000000000E+00 0. -1.
         -1   -1    0    0    0  501 -0.00000000000E+00 -0.00000000000E+00 -0.19820027586E+02  0.19820027586E+02  0.00000000000E+00 0.  1.
         25    2    1    2    0    0  0.45119416552E+02  0.31577604994E+02  0.34406590518E+03  0.37021897116E+03  0.12509129713E+03 0.  0.
          5    1    3    3  502    0  0.46699589469E+02  0.73086941412E+02  0.28466484782E+03  0.29761401285E+03  0.41800000000E+01 0.  1.
         -5    1    3    3    0  502 -0.15801729176E+01 -0.41509336418E+02  0.59401057364E+02  0.72604958317E+02  0.41800000000E+01 0.  1.
        -11    1    1    2    0    0 -0.37146967826E+02 -0.63417982336E+02  0.29688272353E+03  0.30584487773E+03  0.00000000000E+00 0. -1.
         11    1    1    2    0    0 -0.79724487257E+01  0.31840377343E+02  0.11678828503E+03  0.12131312002E+03  0.00000000000E+00 0.  1.
</event>
<event>
 7    1  0.2690635E-009  0.1030533E+03  0.7561462E-02  0.1274003E+00
         -2   -1    0    0    0  501 -0.00000000000E+00  0.00000000000E+00  0.17941551339E+03  0.17941551339E+03  0.00000000000E+00 0.  1.
          2   -1    0    0  501    0  0.00000000000E+00 -0.00000000000E+00 -0.10773337267E+03  0.10773337267E+03  0.00000000000E+00 0. -1.
         25    2    1    2    0    0  0.39856372079E+02  0.66039426577E+02 -0.17873498456E+01  0.14697859052E+03  0.12509906152E+03 0.  0.
          5    1    3    3  502    0  0.64865139384E+01  0.57158559792E+02  0.55445161581E+02  0.80005088359E+02  0.41800000000E+01 0.  1.
         -5    1    3    3    0  502  0.33369858140E+02  0.88808667847E+01 -0.57232511427E+02  0.66973502159E+02  0.41800000000E+01 0.  1.
        -11    1    1    2    0    0 -0.22425436418E+02  0.17413291521E+02  0.38934597701E+02  0.48187403108E+02  0.00000000000E+00 0.  1.
         11    1    1    2    0    0 -0.17430935661E+02 -0.83452718098E+02  0.34534892869E+02  0.91982892439E+02  0.00000000000E+00 0. -1.
</event>
<event>
 7    1  0.2690635E-009  0.9165489E+02  0.7561462E-02  0.1298893E+00
          1   -1    0    0  501    0  0.00000000000E+00  0.00000000000E+00  0.11260527646E+03  0.11260527646E+03  0.00000000000E+00 0. -1.
         -1   -1    0    0    0  501 -0.00000000000E+00 -0.00000000000E+00 -0.13038241052E+03  0.13038241052E+03  0.00000000000E+00 0.  1.
         25    2    1    2    0    0 -0.21061416987E+02 -0.54993021312E+02 -0.19840491781E+02  0.13967095596E+03  0.12508603098E+03 0.  0.
          5    1    3    3  502    0 -0.50984558712E+02 -0.49179713995E+02 -0.57291294706E+02  0.91202161952E+02  0.41800000000E+01 0.  1.
         -5    1    3    3    0  502  0.29923141725E+02 -0.58133073168E+01  0.37450802925E+02  0.48468794006E+02  0.41800000000E+01 0.  1.
        -11    1    1    2    0    0 -0.15167175763E+02  0.39250899863E+02 -0.30625395200E+02  0.52044127352E+02  0.00000000000E+00 0.  1.
         11    1    1    2    0    0  0.36228592750E+02  0.15742121449E+02  0.32688752915E+02  0.51272603674E+02  0.00000000000E+00 0. -1.
</event>
<event>
 7    1  0.2690635E-009  0.1323027E+03  0.7561462E-02  0.1224078E+00
         -1   -1    0    0    0  501 -0.00000000000E+00  0.00000000000E+00  0.90142541177E+02  0.90142541177E+02  0.00000000000E+00 0.  1.
          1   -1    0    0  501    0  0.00000000000E+00 -0.00000000000E+00 -0.34425374587E+03  0.34425374587E+03  0.00000000000E+00 0. -1.
         25    2    1    2    0    0 -0.12198137546E+01  0.78569320143E+02  0.59718699300E+01  0.14784280184E+03  0.12508878771E+03 0.  0.
          5    1    3    3  502    0 -0.60276713047E+02  0.20152735257E+02  0.10470590688E+02  0.64548590561E+02  0.41800000000E+01 0. -1.
         -5    1    3    3    0  502  0.59056899292E+02  0.58416584887E+02 -0.44987207576E+01  0.83294211277E+02  0.41800000000E+01 0. -1.
        -11    1    1    2    0    0 -0.42869039017E+02 -0.31158157989E+02 -0.14682222989E+03  0.15609405019E+03  0.00000000000E+00 0.  1.
         11    1    1    2    0    0  0.44088852772E+02 -0.47411162154E+02 -0.11326084474E+03  0.13045943503E+03  0.00000000000E+00 0. -1.
</event>
<event>
 7    1  0.2690635E-009  0.1082078E+03  0.7561462E-02  0.1263925E+00
         -1   -1    0    0    0  501 -0.00000000000E+00  0.00000000000E+00  0.14036081260E+03  0.14036081260E+03  0.00000000000E+00 0.  1.
          1   -1    0    0  501    0  0.00000000000E+00 -0.00000000000E+00 -0.97846529136E+02  0.97846529136E+02  0.00000000000E+00 0. -1.
         25    2    1    2    0    0 -0.38153045059E+02 -0.71223099586E+01  0.10514209222E+01  0.13097923428E+03  0.12509225468E+03 0.  0.
          5    1    3    3  502    0  0.44492006991E+02 -0.15799632548E+02 -0.43613249926E+01  0.47598956190E+02  0.41800000000E+01 0.  1.
         -5    1    3    3    0  502 -0.82645052050E+02  0.86773225895E+01  0.54127459149E+01  0.83380278088E+02  0.41800000000E+01 0.  1.
        -11    1    1    2    0    0  0.21653129289E+02 -0.34672681610E+02 -0.66272624105E+01  0.41412238107E+02  0.00000000000E+00 0. -1.
         11    1    1    2    0    0  0.16499915770E+02  0.41794991568E+02  0.48090124955E+02  0.65815869354E+02  0.00000000000E+00 0.  1.
</event>
<event>
 7    1  0.2690635E-009  0.1301714E+03  0.7561462E-02  0.1227202E+00
          1   -1    0    0  501    0  0.00000000000E+00  0.00000000000E+00  0.69194693300E+03  0.69194693300E+03  0.00000000000E+00 0. -1.
         -1   -1    0    0    0  501 -0.00000000000E+00 -0.00000000000E+00 -0.41114082751E+02  0.41114082751E+02  0.00000000000E+00 0.  1.
         25    2    1    2    0    0 -0.95905015485E+02  0.73490022062E+02  0.43674152668E+03  0.47009520715E+03  0.12509111606E+03 0.  0.
          5    1    3    3  502    0 -0.12601804694E+02  0.40598663894E+02  0.32029583760E+03  0.32313147939E+03  0.41800000000E+01 0. -1.
         -5    1    3    3    0  502 -0.83303210790E+02  0.32891358168E+02  0.11644568909E+03  0.14696372776E+03  0.41800000000E+01 0. -1.
        -11    1    1    2    0    0  0.12010510653E+02 -0.32396271457E+02  0.62724786078E+01  0.35115733772E+02  0.00000000000E+00 0.  1.
         11    1    1    2    0    0  0.83894504832E+02 -0.41093750605E+02  0.20781884495E+03  0.22785007483E+03  0.00000000000E+00 0. -1.
</event>
<event>
 7    1  0.2690635E-009  0.1403280E+03  0.7561462E-02  0.1212888E+00
          1   -1    0    0  501    0  0.00000000000E+00  0.00000000000E+00  0.68984421898E+03  0.68984421898E+03  0.00000000000E+00 0. -1.
         -1   -1    0    0    0  501 -0.00000000000E+00 -0.00000000000E+00 -0.67193350710E+02  0.67193350710E+02  0.00000000000E+00 0.  1.
         25    2    1    2    0    0 -0.16574486917E+02 -0.11302330594E+03  0.59015995756E+03  0.61399157108E+03  0.12509153667E+03 0.  0.
          5    1    3    3  502    0 -0.17419513271E+02  0.21257917693E+02  0.48339190889E+02  0.55762785825E+02  0.41800000000E+01 0. -1.
         -5    1    3    3    0  502  0.84502635339E+00 -0.13428122363E+03  0.54182076667E+03  0.55822878525E+03  0.41800000000E+01 0. -1.
        -11    1    1    2    0    0  0.22826612255E+02  0.47642256310E+02  0.52407235998E+02  0.74413420821E+02  0.00000000000E+00 0. -1.
         11    1    1    2    0    0 -0.62521253382E+01  0.65381049629E+02 -0.19916325285E+02  0.68632577794E+02  0.00000000000E+00 0.  1.
</event>
<event>
 7    1  0.2690635E-009  0.1108837E+03  0.7561462E-02  0.1258942E+00
          2   -1    0    0  501    0  0.00000000000E+00  0.00000000000E+00  0.69058924399E+03  0.69058924399E+03  0.00000000000E+00 0. -1.
         -2   -1    0    0    0  501 -0.00000000000E+00 -0.00000000000E+00 -0.18519124527E+02  0.18519124527E+02  0.00000000000E+00 0.  1.
         25    2    1    2    0    0 -0.29609986515E+02  0.15978438142E+02  0.36240301618E+03  0.38485815488E+03  0.12509113261E+03 0.  0.
          5    1    3    3  502    0 -0.62036238066E+02 -0.31192612166E+02  0.15983352820E+03  0.17431495353E+03  0.41800000000E+01 0.  1.
         -5    1    3    3    0  502  0.32426251551E+02  0.47171050308E+02  0.20256948797E+03  0.21054320135E+03  0.41800000000E+01 0.  1.
        -11    1    1    2    0    0  0.26471906400E+02  0.34917921865E+02  0.11657042119E+03  0.12453387568E+03  0.00000000000E+00 0.  1.
         11    1    1    2    0    0  0.31380801155E+01 -0.50896360007E+02  0.19309668210E+03  0.19971633795E+03  0.00000000000E+00 0. -1.
</event>
<event>
 7    1  0.3688658E-009  0.2139960E+03  0.7561462E-02  0.1138440E+00
         -1   -1    0    0    0  501 -0.00000000000E+00  0.00000000000E+00  0.28418991926E+02  0.28418991926E+02  0.00000000000E+00 0.  1.
          1   -1    0    0  501    0  0.00000000000E+00 -0.00000000000E+00 -0.18859869131E+04  0.18859869131E+04  0.00000000000E+00 0. -1.
         25    2    1    2    0    0  0.11104186948E+03 -0.16903807596E+03 -0.10773801325E+04  0.11033130151E+04  0.12508993327E+03 0.  0.
          5    1    3    3  502    0  0.10049054888E+03 -0.12299463220E+03 -0.51534827468E+03  0.53928410563E+03  0.41800000000E+01 0. -1.
         -5    1    3    3    0  502  0.10551320602E+02 -0.46043443760E+02 -0.56203185785E+03  0.56402890947E+03  0.41800000000E+01 0. -1.
        -11    1    1    2    0    0 -0.10241781415E+03  0.74230552771E+02 -0.43472696975E+03  0.45275503514E+03  0.00000000000E+00 0.  1.
         11    1    1    2    0    0 -0.86240553293E+01  0.94807523187E+02 -0.34546081892E+03  0.35833785482E+03  0.00000000000E+00 0. -1.
</event>
<event>
 7    1  0.2690635E-009  0.1012407E+03  0.7561462E-02  0.1277708E+00
          2   -1    0    0  501    0  0.00000000000E+00  0.00000000000E+00  0.53890738929E+03  0.53890738929E+03  0.00000000000E+00 0. -1.
         -2   -1    0    0    0  501 -0.00000000000E+00 -0.00000000000E+00 -0.30008316255E+02  0.30008316255E+02  0.00000000000E+00 0.  1.
         25    2    1    2    0    0  0.60385148792E+01 -0.60833724226E+02  0.22465887164E+03  0.26430595097E+03  0.12509524948E+03 0.  0.
          5    1    3    3  502    0 -0.16308093983E+02 -0.80148728748E+02  0.72901377663E+02  0.10964422426E+03  0.41800000000E+01 0. -1.
         -5    1    3    3    0  502  0.22346608863E+02  0.19315004522E+02  0.15175749398E+03  0.15466172670E+03  0.41800000000E+01 0. -1.
        -11    1    1    2    0    0 -0.28156988022E+02  0.23843278850E+01  0.24320323279E+02  0.37282423718E+02  0.00000000000E+00 0.  1.
         11    1    1    2    0    0  0.22118473143E+02  0.58449396341E+02  0.25991987811E+03  0.26732733086E+03  0.00000000000E+00 0. -1.
</event>
<event>
 7    1  0.2690635E-009  0.9196380E+02  0.7561462E-02  0.1298165E+00
         -2   -1    0    0    0  501 -0.00000000000E+00  0.00000000000E+00  0.38012700710E+02  0.38012700710E+02  0.00000000000E+00 0.  1.
          2   -1    0    0  501    0  0.00000000000E+00 -0.00000000000E+00 -0.40146169988E+03  0.40146169988E+03  0.00000000000E+00 0. -1.
         25    2    1    2    0    0  0.53170652189E+02  0.14017636804E+02 -0.16893628863E+03  0.21727940102E+03  0.12508899271E+03 0.  0.
          5    1    3    3  502    0 -0.14649158568E+02 -0.36155668662E+01 -0.14077368095E+03  0.14164170226E+03  0.41800000000E+01 0. -1.
         -5    1    3    3    0  502  0.67819810757E+02  0.17633203670E+02 -0.28162607676E+02  0.75637698761E+02  0.41800000000E+01 0. -1.
        -11    1    1    2    0    0 -0.40481819612E+02 -0.47414564314E+02 -0.16314778464E+03  0.17465428211E+03  0.00000000000E+00 0. -1.
         11    1    1    2    0    0 -0.12688832577E+02  0.33396927510E+02 -0.31364925909E+02  0.47540717460E+02  0.00000000000E+00 0.  1.
</event>
<event>
 7    1  0.2690635E-009  0.1035762E+03  0.7561462E-02  0.1272951E+00
          2   -1    0    0  501    0  0.00000000000E+00  0.00000000000E+00  0.21611731828E+03  0.21611731828E+03  0.00000000000E+00 0. -1.
         -2   -1    0    0    0  501 -0.00000000000E+00 -0.00000000000E+00 -0.10526051833E+03  0.10526051833E+03  0.00000000000E+00 0.  1.
         25    2    1    2    0    0 -0.34526620065E+00 -0.74487041253E+02  0.13135020029E+03  0.19608762653E+03  0.12509613758E+03 0.  0.
          5    1    3    3  502    0  0.59258428370E+01  0.20651228224E+02 -0.11163616593E+02  0.24570054455E+02  0.41800000000E+01 0. -1.
         -5    1    3    3    0  502 -0.62711090376E+01 -0.95138269477E+02  0.14251381689E+03  0.17151757208E+03  0.41800000000E+01 0. -1.
        -11    1    1    2    0    0 -0.11404141314E+02  0.76977894087E+02  0.22213600268E+02  0.80926476841E+02  0.00000000000E+00 0. -1.
         11    1    1    2    0    0  0.11749407514E+02 -0.24908528338E+01 -0.42707000616E+02  0.44363733233E+02  0.00000000000E+00 0.  1.
</event>
<event>
 7    1  0.2690635E-009  0.2294900E+03  0.7561462E-02  0.1126999E+00
         -2   -1    0    0    0  501 -0.00000000000E+00  0.00000000000E+00  0.36720994772E+03  0.36720994772E+03  0.00000000000E+00 0.  1.
          2   -1    0    0  501    0  0.00000000000E+00 -0.00000000000E+00 -0.16227234007E+03  0.16227234007E+03  0.00000000000E+00 0. -1.
         25    2    1    2    0    0  0.19245625387E+03 -0.68608727345E+02  0.22099017611E+02  0.24058943785E+03  0.12509334076E+03 0.  0.
          5    1    3    3  502    0  0.32786065555E+02 -0.68050991423E+02 -0.13744675776E+02  0.76891170107E+02  0.41800000000E+01 0.  1.
         -5    1    3    3    0  502  0.15967018831E+03 -0.55773592213E+00  0.35843693387E+02  0.16369826774E+03  0.41800000000E+01 0.  1.
        -11    1    1    2    0    0 -0.17614346906E+03  0.89110879470E+02  0.15903643051E+03  0.25349527957E+03  0.00000000000E+00 0.  1.
         11    1    1    2    0    0 -0.16312784807E+02 -0.20502152125E+02  0.23802159529E+02  0.35397570370E+02  0.00000000000E+00 0. -1.
</event>
<event>
 7    1  0.2690635E-009  0.1445946E+03  0.7561462E-02  0.1207277E+00
          2   -1    0    0  501    0  0.00000000000E+00  0.00000000000E+00  0.13593393186E+04  0.13593393186E+04  0.00000000000E+00 0. -1.
         -2   -1    0    0    0  501 -0.00000000000E+00 -0.00000000000E+00 -0.16772676168E+02  0.16772676168E+02  0.00000000000E+00 0.  1.
         25    2    1    2    0    0 -0.89378624351E+02  0.48351996337E+02  0.84547377057E+03  0.86069618684E+03  0.12508227406E+03 0.  0.
          5    1    3    3  502    0 -0.31535390284E+02  0.85265537589E+02  0.53681187537E+03  0.54447144524E+03  0.41800000000E+01 0. -1.
         -5    1    3    3    0  502 -0.57843234067E+02 -0.36913541252E+02  0.30866189519E+03  0.31622474160E+03  0.41800000000E+01 0. -1.
        -11    1    1    2    0    0  0.24404108182E+01 -0.42212284509E+02  0.94983377347E+02  0.10396958469E+03  0.00000000000E+00 0.  1.
         11    1    1    2    0    0  0.86938213533E+02 -0.61397118288E+01  0.40210949447E+03  0.41144622319E+03  0.00000000000E+00 0. -1.
</event>
<event>
 7    1  0.2690635E-009  0.1655390E+03  0.7561462E-02  0.1182581E+00
          2   -1    0    0  501    0  0.00000000000E+00  0.00000000000E+00  0.88226087243E+02  0.88226087243E+02  0.00000000000E+00 0. -1.
         -2   -1    0    0    0  501 -0.00000000000E+00 -0.00000000000E+00 -0.42259848175E+03  0.42259848175E+03  0.00000000000E+00 0.  1.
         25    2    1    2    0    0  0.77317056801E+02 -0.12440977685E+03 -0.93844539877E+02  0.21426662751E+03  0.12509064774E+03 0.  0.
          5    1    3    3  502    0  0.54128821143E+01 -0.63308516945E+02 -0.10115965204E+03  0.11953248601E+03  0.41800000000E+01 0. -1.
         -5    1    3    3    0  502  0.71904174687E+02 -0.61101259906E+02  0.73151121653E+01  0.94734141499E+02  0.41800000000E+01 0. -1.
        -11    1    1    2    0    0 -0.38949520377E+02 -0.37884104643E+01 -0.64465653361E+02  0.75413776292E+02  0.00000000000E+00 0.  1.
         11    1    1    2    0    0 -0.38367536425E+02  0.12819818732E+03 -0.17606220127E+03  0.22114416519E+03  0.00000000000E+00 0. -1.
</event>
<event>
 7    1  0.2690635E-009  0.1012370E+03  0.7561462E-02  0.1277716E+00
         -2   -1    0    0    0  501 -0.00000000000E+00  0.00000000000E+00  0.75450056319E+02  0.75450056319E+02  0.00000000000E+00 0.  1.
          2   -1    0    0  501    0  0.00000000000E+00 -0.00000000000E+00 -0.18788682237E+03  0.18788682237E+03  0.00000000000E+00 0. -1.
         25    2    1    2    0    0 -0.18456122327E+02 -0.30133225610E+02 -0.10237460585E+03  0.16545384441E+03  0.12508307228E+03 0.  0.
          5    1    3    3  502    0  0.42318420961E+02  0.11657669285E+02 -0.67345092392E+01  0.44604663663E+02  0.41800000000E+01 0.  1.
         -5    1    3    3    0  502 -0.60774543289E+02 -0.41790894895E+02 -0.95640096612E+02  0.12084918075E+03  0.41800000000E+01 0.  1.
        -11    1    1    2    0    0 -0.28599234681E+02  0.23438259253E+02 -0.28722956912E+02  0.46821752156E+02  0.00000000000E+00 0. -1.
         11    1    1    2    0    0  0.47055357009E+02  0.66949663573E+01  0.18660796713E+02  0.51061282120E+02  0.00000000000E+00 0.  1.
</event>
<event>
 7    1  0.2690635E-009  0.1182188E+03  0.7561462E-02  0.1246065E+00
         -1   -1    0    0    0  501 -0.00000000000E+00  0.00000000000E+00  0.44773558610E+03  0.44773558610E+03  0.00000000000E+00 0.  1.
          1   -1    0    0  501    0  0.00000000000E+00 -0.00000000000E+00 -0.46717953935E+02  0.46717953935E+02  0.00000000000E+00 0. -1.
         25    2    1    2    0    0  0.82324889205E+02  0.32230037174E+02  0.15818115430E+03  0.22020125538E+03  0.12510456673E+03 0.  0.
          5    1    3    3  502    0  0.92545616410E+02  0.41427552711E+02  0.53847260968E+02  0.11488225779E+03  0.41800000000E+01 0. -1.
         -5    1    3    3    0  502 -0.10220727204E+02 -0.91975155370E+01  0.10433389333E+03  0.10531899760E+03  0.41800000000E+01 0. -1.
        -11    1    1    2    0    0 -0.95537126637E+02 -0.11810790401E+02  0.22291962755E+03  0.24281679860E+03  0.00000000000E+00 0.  1.
         11    1    1    2    0    0  0.13212237432E+02 -0.20419246774E+02  0.19916850312E+02  0.31435486049E+02  0.00000000000E+00 0. -1.
</event>
<event>
 7    1  0.2690635E-009  0.1375268E+03  0.7561462E-02  0.1216696E+00
          2   -1    0    0  501    0  0.00000000000E+00  0.00000000000E+00  0.64722238399E+03  0.64722238399E+03  0.00000000000E+00 0. -1.
         -2   -1    0    0    0  501 -0.00000000000E+00 -0.00000000000E+00 -0.33989370975E+02  0.33989370975E+02  0.00000000000E+00 0.  1.
         25    2    1    2    0    0 -0.94581849604E+02  0.43442598137E+02  0.36106705798E+03  0.39604308885E+03  0.12509085602E+03 0.  0.
          5    1    3    3  502    0 -0.77128061755E+02 -0.17599559077E+02  0.10130728413E+03  0.12860451239E+03  0.41800000000E+01 0.  1.
         -5    1    3    3    0  502 -0.17453787849E+02  0.61042157214E+02  0.25975977385E+03  0.26743857646E+03  0.41800000000E+01 0.  1.
        -11    1    1    2    0    0  0.51891530234E+02  0.20105909347E+02  0.12331283150E+03  0.13528870209E+03  0.00000000000E+00 0. -1.
         11    1    1    2    0    0  0.42690319370E+02 -0.63548507484E+02  0.12885312354E+03  0.14987996403E+03  0.00000000000E+00 0.  1.
</event>
<event>
 7    1  0.2690635E-009  0.1359647E+03  0.7561462E-02  0.1218864E+00
         -1   -1    0    0    0  501 -0.00000000000E+00  0.00000000000E+00  0.13055032041E+03  0.13055032041E+03  0.00000000000E+00 0.  1.
          1   -1    0    0  501    0  0.00000000000E+00 -0.00000000000E+00 -0.18807627594E+03  0.18807627594E+03  0.00000000000E+00 0. -1.
         25    2    1    2    0    0 -0.25217748671E+02  0.10495557111E+03  0.37702610229E+01  0.16527022652E+03  0.12509366950E+03 0.  0.
          5    1    3    3  502    0 -0.54886152492E+02  0.96664722060E+00  0.13284416246E+02  0.56633667170E+02  0.41800000000E+01 0.  1.
         -5    1    3    3    0  502  0.29668403820E+02  0.10398892389E+03 -0.95141552227E+01  0.10863655935E+03  0.41800000000E+01 0.  1.
        -11    1    1    2    0    0  0.11305081785E+02 -0.72038188405E+02  0.10002662107E+02  0.73602708592E+02  0.00000000000E+00 0.  1.
         11    1    1    2    0    0  0.13912666887E+02 -0.32917382705E+02 -0.71298878657E+02  0.79753661244E+02  0.00000000000E+00 0. -1.
</event>
<event>
 7    1  0.2690635E-009  0.1092435E+03  0.7561462E-02  0.1261977E+00
         -2   -1    0    0    0  501 -0.00000000000E+00  0.00000000000E+00  0.49087055726E+02  0.49087055726E+02  0.00000000000E+00 0.  1.
          2   -1    0    0  501    0  0.00000000000E+00 -0.00000000000E+00 -0.33784424121E+03  0.33784424121E+03  0.00000000000E+00 0. -1.
         25    2    1    2    0    0 -0.63481647677E+02  0.26494164491E+02 -0.16069510425E+03  0.21495574970E+03  0.12510474594E+03 0.  0.
          5    1    3    3  502    0 -0.96613605369E+02 -0.42259658555E+01 -0.10000092764E+03  0.13917508921E+03  0.41800000000E+01 0. -1.
         -5    1    3    3    0  502  0.33131957692E+02  0.30720130347E+02 -0.60694176615E+02  0.75780660488E+02  0.41800000000E+01 0. -1.
        -11    1    1    2    0    0  0.22488403743E+02  0.68117287596E+01  0.89431509380E+01  0.25141756110E+02  0.00000000000E+00 0.  1.
         11    1    1    2    0    0  0.40993243934E+02 -0.33305893251E+02 -0.13700523217E+03  0.14683379112E+03  0.00000000000E+00 0. -1.
</event>
<event>
 7    1  0.2690635E-009  0.1890757E+03  0.7561462E-02  0.1159298E+00
         -1   -1    0    0    0  501 -0.00000000000E+00  0.00000000000E+00  0.53093320871E+02  0.53093320871E+02  0.00000000000E+00 0.  1.
          1   -1    0    0  501    0  0.00000000000E+00 -0.00000000000E+00 -0.81445557338E+03  0.81445557338E+03  0.00000000000E+00 0. -1.
         25    2    1    2    0    0  0.14302772335E+02 -0.16766171984E+03 -0.51941624231E+03  0.56013809556E+03  0.12508569755E+03 0.  0.
          5    1    3    3  502    0  0.61867518173E+02 -0.41238805726E+02 -0.17810950015E+03  0.19305101747E+03  0.41800000000E+01 0. -1.
         -5    1    3    3    0  502 -0.47564745838E+02 -0.12642291412E+03 -0.34130674216E+03  0.36708707809E+03  0.41800000000E+01 0. -1.
        -11    1    1    2    0    0 -0.48943498737E+01  0.11078226568E+03 -0.83531123320E+02  0.13883124149E+03  0.00000000000E+00 0.  1.
         11    1    1    2    0    0 -0.94084224615E+01  0.56879454159E+02 -0.15841488688E+03  0.16857955720E+03  0.00000000000E+00 0. -1.
</event>
<event>
 7    1  0.2690635E-009  0.1948885E+03  0.7561462E-02  0.1154125E+00
         -1   -1    0    0    0  501 -0.00000000000E+00  0.00000000000E+00  0.23561067967E+03  0.23561067967E+03  0.00000000000E+00 0.  1.
          1   -1    0    0  501    0  0.00000000000E+00 -0.00000000000E+00 -0.17724102346E+03  0.17724102346E+03  0.00000000000E+00 0. -1.
         25    2    1    2    0    0 -0.36535758604E+02  0.16155509046E+03 -0.19955915992E+02  0.20852044762E+03  0.12509048557E+03 0.  0.
          5    1    3    3  502    0  0.20121169632E+02 -0.89566209651E+01 -0.18053795446E+02  0.28783579633E+02  0.41800000000E+01 0. -1.
         -5    1    3    3    0  502 -0.56656928236E+02  0.17051171143E+03 -0.19021205466E+01  0.17973686799E+03  0.41800000000E+01 0. -1.
        -11    1    1    2    0    0 -0.11330702379E+02 -0.12956669133E+03  0.64244341758E+02  0.14506290968E+03  0.00000000000E+00 0. -1.
         11    1    1    2    0    0  0.47866460982E+02 -0.31988399137E+02  0.14081230439E+02  0.59268345826E+02  0.00000000000E+00 0.  1.
</event>
<event>
 7    1  0.2690635E-009  0.1024060E+03  0.7561462E-02  0.1275316E+00
         -3   -1    0    0    0  501 -0.00000000000E+00  0.00000000000E+00  0.13094023992E+03  0.13094023992E+03  0.00000000000E+00 0.  1.
          3   -1    0    0  501    0  0.00000000000E+00 -0.00000000000E+00 -0.11956725659E+03  0.11956725659E+03  0.00000000000E+00 0. -1.
         25    2    1    2    0    0 -0.47313922819E+02 -0.25420279102E+02 -0.98804667569E+01  0.13649248338E+03  0.12509107288E+03 0.  0.
          5    1    3    3  502    0 -0.56291501200E+02  0.22539843606E+02 -0.45510500306E+02  0.75930597886E+02  0.41800000000E+01 0.  1.
         -5    1    3    3    0  502  0.89775783818E+01 -0.47960122708E+02  0.35630033549E+02  0.60561885493E+02  0.41800000000E+01 0.  1.
        -11    1    1    2    0    0  0.12830226163E+02  0.50702739464E+02  0.41442172776E+02  0.66729574979E+02  0.00000000000E+00 0.  1.
         11    1    1    2    0    0  0.34483696656E+02 -0.25282460361E+02 -0.20188722695E+02  0.47285438150E+02  0.00000000000E+00 0. -1.
</event>
<event>
 7    1  0.2690635E-009  0.6831394E+02  0.7561462E-02  0.1365922E+00
         -1   -1    0    0    0  501 -0.00000000000E+00  0.00000000000E+00  0.17816985211E+03  0.17816985211E+03  0.00000000000E+00 0.  1.
          1   -1    0    0  501    0  0.00000000000E+00 -0.00000000000E+00 -0.12841958710E+03  0.12841958710E+03  0.00000000000E+00 0. -1.
         25    2    1    2    0    0  0.87266868160E+01  0.61692149094E+01  0.13293833105E+03  0.18285196323E+03  0.12509207137E+03 0.  0.
          5    1    3    3  502    0 -0.23073520640E+02  0.21057820530E+02 -0.11953780469E+02  0.33707334924E+02  0.41800000000E+01 0. -1.
         -5    1    3    3    0  502  0.31800207456E+02 -0.14888605620E+02  0.14489211152E+03  0.14914462831E+03  0.41800000000E+01 0. -1.
        -11    1    1    2    0    0 -0.60298444957E+00 -0.37438367498E+02 -0.83410803096E+02  0.91429519437E+02  0.00000000000E+00 0. -1.
         11    1    1    2    0    0 -0.81237023665E+01  0.31269152589E+02  0.22273705637E+00  0.32307956537E+02  0.00000000000E+00 0.  1.
</event>
<event>
 7    1  0.2690635E-009  0.1519472E+03  0.7561462E-02  0.1198101E+00
          2   -1    0    0  501    0  0.00000000000E+00  0.00000000000E+00  0.10502429177E+04  0.10502429177E+04  0.00000000000E+00 0. -1.
         -2   -1    0    0    0  501 -0.00000000000E+00 -0.00000000000E+00 -0.22738958601E+02  0.22738958601E+02  0.00000000000E+00 0.  1.
         25    2    1    2    0    0  0.93326819898E+02 -0.24876503607E+02  0.52904740664E+03  0.55215019764E+03  0.12509974636E+03 0.  0.
          5    1    3    3  502    0  0.12024800993E+03 -0.38647402313E+01  0.45225516802E+03  0.46800291613E+03  0.41800000000E+01 0. -1.
         -5    1    3    3    0  502 -0.26921190032E+02 -0.21011763376E+02  0.76792238626E+02  0.84147281513E+02  0.41800000000E+01 0. -1.
        -11    1    1    2    0    0  0.21261083757E+02  0.27164732378E+02  0.15370739579E+03  0.15753069507E+03  0.00000000000E+00 0. -1.
         11    1    1    2    0    0 -0.11458790366E+03 -0.22882287707E+01  0.34474915667E+03  0.36330098359E+03  0.00000000000E+00 0.  1.
</event>
<event>
 7    1  0.2690635E-009  0.6661139E+02  0.7561462E-02  0.1372011E+00
         -4   -1    0    0    0  501 -0.00000000000E+00  0.00000000000E+00  0.28440109552E+03  0.28440109552E+03  0.00000000000E+00 0.  1.
          4   -1    0    0  501    0  0.00000000000E+00 -0.00000000000E+00 -0.61555141883E+02  0.61555141883E+02  0.00000000000E+00 0. -1.
         25    2    1    2    0    0 -0.38615334406E+02 -0.23761319165E+02  0.44637766895E+02  0.14035948540E+03  0.12510999388E+03 0.  0.
          5    1    3    3  502    0 -0.25193015797E+02 -0.31654198365E+02  0.86454010683E+02  0.95542894462E+02  0.41800000000E+01 0. -1.
         -5    1    3    3    0  502 -0.13422318609E+02  0.78928791993E+01 -0.41816243788E+02  0.44816590939E+02  0.41800000000E+01 0. -1.
        -11    1    1    2    0    0  0.59039212777E+01 -0.20533284723E+02  0.25579140839E+01  0.21517783168E+02  0.00000000000E+00 0. -1.
         11    1    1    2    0    0  0.32711413129E+02  0.44294603889E+02  0.17565027266E+03  0.18407896884E+03  0.00000000000E+00 0.  1.
</event>
<event>
 7    1  0.2690635E-009  0.1766655E+03  0.7561462E-02  0.1171070E+00
          2   -1    0    0  501    0  0.00000000000E+00  0.00000000000E+00  0.23790340446E+03  0.23790340446E+03  0.00000000000E+00 0. -1.
         -2   -1    0    0    0  501 -0.00000000000E+00 -0.00000000000E+00 -0.16636558802E+03  0.16636558802E+03  0.00000000000E+00 0.  1.
         25    2    1    2    0    0  0.95184296893E+02 -0.11269880932E+03 -0.40554422510E+02  0.19761862980E+03  0.12508952658E+03 0.  0.
          5    1    3    3  502    0 -0.64139757012E+01 -0.74078423897E+02 -0.47985593989E+02  0.88593688274E+02  0.41800000000E+01 0. -1.
         -5    1    3    3    0  502  0.10159827259E+03 -0.38620385424E+02  0.74311714797E+01  0.10902494152E+03  0.41800000000E+01 0. -1.
        -11    1    1    2    0    0 -0.29733206956E+02  0.98798697024E+02  0.47268021929E+02  0.11348793780E+03  0.00000000000E+00 0.  1.
         11    1    1    2    0    0 -0.65451089937E+02  0.13900112297E+02  0.64824217020E+02  0.93162424872E+02  0.00000000000E+00 0. -1.
</event>
<event>
 7    1  0.2690635E-009  0.1562825E+03  0.7561462E-02  0.1192959E+00
         -2   -1    0    0    0  501 -0.00000000000E+00  0.00000000000E+00  0.49885939844E+03  0.49885939844E+03  0.00000000000E+00 0. -1.
          2   -1    0    0  501    0  0.00000000000E+00 -0.00000000000E+00 -0.55853986340E+02  0.55853986340E+02  0.00000000000E+00 0.  1.
         25    2    1    2    0    0 -0.97821416259E+02 -0.60001708446E+02  0.14410375696E+03  0.22266601140E+03  0.12508007581E+03 0.  0.
          5    1    3    3  502    0 -0.32965993058E+02 -0.90495141108E+02  0.67522937465E+02  0.11769854182E+03  0.41800000000E+01 0.  1.
         -5    1    3    3    0  502 -0.64855423201E+02  0.30493432662E+02  0.76580819499E+02  0.10496746958E+03  0.41800000000E+01 0.  1.
        -11    1    1    2    0    0  0.10591312157E+03  0.25505325904E+02  0.23353534827E+03  0.25769530430E+03  0.00000000000E+00 0. -1.
         11    1    1    2    0    0 -0.80917053067E+01  0.34496382542E+02  0.65366306869E+02  0.74352069083E+02  0.00000000000E+00 0.  1.
</event>
<event>
 7    1  0.2690635E-009  0.1325247E+03  0.7561462E-02  0.1223757E+00
          1   -1    0    0  501    0  0.00000000000E+00  0.00000000000E+00  0.24698137816E+03  0.24698137816E+03  0.00000000000E+00 0. -1.
         -1   -1    0    0    0  501 -0.00000000000E+00 -0.00000000000E+00 -0.79357253873E+02  0.79357253873E+02  0.00000000000E+00 0.  1.
         25    2    1    2    0    0  0.15413282237E+02 -0.78322086295E+02  0.73291455756E+02  0.16550311484E+03  0.12509086723E+03 0.  0.
          5    1    3    3  502    0  0.21401955262E+02  0.26517169919E+02 -0.46724110642E+01  0.34648345050E+02  0.41800000000E+01 0.  1.
         -5    1    3    3    0  502 -0.59886730252E+01 -0.10483925621E+03  0.77963866820E+02  0.13085476979E+03  0.41800000000E+01 0.  1.
        -11    1    1    2    0    0 -0.47069332031E+02  0.69927192947E+01  0.15845383161E+02  0.50154723691E+02  0.00000000000E+00 0.  1.
         11    1    1    2    0    0  0.31656049794E+02  0.71329367000E+02  0.78487285375E+02  0.11068079350E+03  0.00000000000E+00 0. -1.
</event>
<event>
 7    1  0.2690635E-009  0.1016676E+03  0.7561462E-02  0.1276828E+00
         -2   -1    0    0    0  501 -0.00000000000E+00  0.00000000000E+00  0.87524738254E+02  0.87524738254E+02  0.00000000000E+00 0.  1.
          2   -1    0    0  501    0  0.00000000000E+00 -0.00000000000E+00 -0.22887843248E+03  0.22887843248E+03  0.00000000000E+00 0. -1.
         25    2    1    2    0    0  0.66484283833E+02  0.91191782010E+01 -0.16800597046E+03  0.21994803121E+03  0.12509121039E+03 0.  0.
          5    1    3    3  502    0  0.74082828174E+02  0.42177690243E+02 -0.16483853126E+03  0.18562445090E+03  0.41800000000E+01 0. -1.
         -5    1    3    3    0  502 -0.75985443410E+01 -0.33058512042E+02 -0.31674391999E+01  0.34323580314E+02  0.41800000000E+01 0. -1.
        -11    1    1    2    0    0 -0.35376500709E+02  0.20472510433E+02  0.33664294680E+02  0.52951914244E+02  0.00000000000E+00 0.  1.
         11    1    1    2    0    0 -0.31107783124E+02 -0.29591688634E+02 -0.70120184536E+01  0.43503225282E+02  0.00000000000E+00 0. -1.
</event>
<event>
 7    1  0.2690635E-009  0.1537425E+03  0.7561462E-02  0.1195948E+00
         -1   -1    0    0    0  501 -0.00000000000E+00  0.00000000000E+00  0.24030040287E+02  0.24030040287E+02  0.00000000000E+00 0.  1.
          1   -1    0    0  501    0  0.00000000000E+00 -0.00000000000E+00 -0.10293089434E+04  0.10293089434E+04  0.00000000000E+00 0. -1.
         25    2    1    2    0    0 -0.74937805018E+02  0.81710324200E+02 -0.63692920365E+03  0.65849717692E+03  0.12508984709E+03 0.  0.
          5    1    3    3  502    0 -0.59788185675E+02  0.11535750866E+03 -0.49932357713E+03  0.51596849616E+03  0.41800000000E+01 0. -1.
         -5    1    3    3    0  502 -0.15149619342E+02 -0.33647184464E+02 -0.13760562652E+03  0.14252868076E+03  0.41800000000E+01 0. -1.
        -11    1    1    2    0    0  0.86674459697E+01 -0.72997268423E+02 -0.16106888008E+03  0.17705058584E+03  0.00000000000E+00 0. -1.
         11    1    1    2    0    0  0.66270359048E+02 -0.87130557769E+01 -0.20728081939E+03  0.21779122094E+03  0.00000000000E+00 0.  1.
</event>
<event>
 7    1  0.2690635E-009  0.1818493E+03  0.7561462E-02  0.1166025E+00
          2   -1    0    0  501    0  0.00000000000E+00  0.00000000000E+00  0.50392804324E+02  0.50392804324E+02  0.00000000000E+00 0. -1.
         -2   -1    0    0    0  501 -0.00000000000E+00 -0.00000000000E+00 -0.77117492590E+03  0.77117492590E+03  0.00000000000E+00 0.  1.
         25    2    1    2    0    0 -0.14465064015E+03 -0.64263197284E+02 -0.47003985322E+03  0.51150599645E+03  0.12508938629E+03 0.  0.
          5    1    3    3  502    0 -0.32248869031E+01 -0.59933827423E+02 -0.14390800509E+03  0.15597900466E+03  0.41800000000E+01 0.  1.
         -5    1    3    3    0  502 -0.14142575324E+03 -0.43293698608E+01 -0.32613184813E+03  0.35552699178E+03  0.41800000000E+01 0.  1.
        -11    1    1    2    0    0  0.98319939265E+02  0.25504898662E+02 -0.21992819764E+03  0.24225136208E+03  0.00000000000E+00 0.  1.
         11    1    1    2    0    0  0.46330700880E+02  0.38758298623E+02 -0.30814070720E+02  0.67810371703E+02  0.00000000000E+00 0. -1.
</event>
<event>
 7    1  0.2690635E-009  0.8312593E+02  0.7561462E-02  0.1320407E+00
          2   -1    0    0  501    0  0.00000000000E+00  0.00000000000E+00  0.46548321283E+03  0.46548321283E+03  0.00000000000E+00 0. -1.
         -2   -1    0    0    0  501 -0.00000000000E+00 -0.00000000000E+00 -0.31861023646E+02  0.31861023646E+02  0.00000000000E+00 0.  1.
         25    2    1    2    0    0 -0.45029875543E+02 -0.60778092120E-01  0.30925698356E+03  0.33662338299E+03  0.12509087381E+03 0.  0.
          5    1    3    3  502    0  0.63619009135E+01  0.16351439236E+02 -0.42092420555E+01  0.18521162679E+02  0.41800000000E+01 0.  1.
         -5    1    3    3    0  502 -0.51391776457E+02 -0.16412217328E+02  0.31346622561E+03  0.31810222031E+03  0.41800000000E+01 0.  1.
        -11    1    1    2    0    0 -0.11424147188E+02 -0.28596295904E+02  0.72878225794E+02  0.79116970830E+02  0.00000000000E+00 0.  1.
         11    1    1    2    0    0  0.56454022731E+02  0.28657073996E+02  0.51486979828E+02  0.81603882655E+02  0.00000000000E+00 0. -1.
</event>
<event>
 7    1  0.2690635E-009  0.9799279E+02  0.7561462E-02  0.1284574E+00
          1   -1    0    0  501    0  0.00000000000E+00  0.00000000000E+00  0.36866211000E+03  0.36866211000E+03  0.00000000000E+00 0. -1.
         -1   -1    0    0    0  501 -0.00000000000E+00 -0.00000000000E+00 -0.49422501676E+02  0.49422501676E+02  0.00000000000E+00 0.  1.
         25    2    1    2    0    0 -0.72727966374E+02 -0.28974911705E+02  0.13539737376E+03  0.20027606433E+03  0.12509656480E+03 0.  0.
          5    1    3    3  502    0 -0.33298780180E+02 -0.23374427343E+02 -0.15816586321E+02  0.43849850831E+02  0.41800000000E+01 0. -1.
         -5    1    3    3    0  502 -0.39429186194E+02 -0.56004843628E+01  0.15121396008E+03  0.15642621350E+03  0.41800000000E+01 0. -1.
        -11    1    1    2    0    0 -0.11266972563E+02  0.28932548851E+02  0.34103492711E+02  0.46120334657E+02  0.00000000000E+00 0.  1.
         11    1    1    2    0    0  0.83994938937E+02  0.42362854039E-01  0.14973874186E+03  0.17168821269E+03  0.00000000000E+00 0. -1.
</event>
<event>
 7    1  0.2690635E-009  0.6895675E+02  0.7561462E-02  0.1363677E+00
         -2   -1    0    0    0  501 -0.00000000000E+00  0.00000000000E+00  0.24145353139E+03  0.24145353139E+03  0.00000000000E+00 0.  1.
          2   -1    0    0  501    0  0.00000000000E+00 -0.00000000000E+00 -0.55587707885E+02  0.55587707885E+02  0.00000000000E+00 0. -1.
         25    2    1    2    0    0 -0.96782909306E+01 -0.32532058827E+02  0.13374493119E+03  0.18624599594E+03  0.12509140745E+03 0.  0.
          5    1    3    3  502    0  0.91857192016E+01 -0.17570202520E+02 -0.21235090947E+02  0.29351165929E+02  0.41800000000E+01 0. -1.
         -5    1    3    3    0  502 -0.18864010132E+02 -0.14961856307E+02  0.15498002213E+03  0.15689483001E+03  0.41800000000E+01 0. -1.
        -11    1    1    2    0    0  0.45074495547E+02  0.35947142780E+02  0.47956711783E+02  0.74991689059E+02  0.00000000000E+00 0.  1.
         11    1    1    2    0    0 -0.35396204616E+02 -0.34150839528E+01  0.41641805362E+01  0.35803554281E+02  0.00000000000E+00 0. -1.
</event>
<event>
 7    1  0.2690635E-009  0.1186331E+03  0.7561462E-02  0.1245369E+00
          2   -1    0    0  501    0  0.00000000000E+00  0.00000000000E+00  0.27451474843E+04  0.27451474843E+04  0.00000000000E+00 0.  1.
         -2   -1    0    0    0  501 -0.00000000000E+00 -0.00000000000E+00 -0.18667064100E+02  0.18667064100E+02  0.00000000000E+00 0. -1.
         25    2    1    2    0    0  0.61952037872E+02  0.66670551383E+02  0.25001401177E+04  0.25049214382E+04  0.12509111261E+03 0.  0.
          5    1    3    3  502    0  0.41060881435E+02 -0.36723824057E+00  0.22884817460E+03  0.23254051318E+03  0.41800000000E+01 0. -1.
         -5    1    3    3    0  502  0.20891156437E+02  0.67037789624E+02  0.22712919430E+04  0.22723809251E+04  0.41800000000E+01 0. -1.
        -11    1    1    2    0    0 -0.89485865699E+01  0.21211062895E+02  0.39267849279E+02  0.45518681634E+02  0.00000000000E+00 0. -1.
         11    1    1    2    0    0 -0.53003451302E+02 -0.87881614278E+02  0.18707245331E+03  0.21337442857E+03  0.00000000000E+00 0.  1.
</event>
<event>
 7    1  0.2690635E-009  0.9631900E+02  0.7561462E-02  0.1288233E+00
         -2   -1    0    0    0  501 -0.00000000000E+00  0.00000000000E+00  0.47197048409E+02  0.47197048409E+02  0.00000000000E+00 0.  1.
          2   -1    0    0  501    0  0.00000000000E+00 -0.00000000000E+00 -0.73260237478E+03  0.73260237478E+03  0.00000000000E+00 0. -1.
         25    2    1    2    0    0  0.68227379919E+02  0.38554779936E+02 -0.62975900953E+03  0.64682714215E+03  0.12508994889E+03 0.  0.
          5    1    3    3  502    0  0.39673622298E+02 -0.14569897489E+02 -0.51821848482E+03  0.51995591027E+03  0.41800000000E+01 0.  1.
         -5    1    3    3    0  502  0.28553757622E+02  0.53124677425E+02 -0.11154052472E+03  0.12687123188E+03  0.41800000000E+01 0.  1.
        -11    1    1    2    0    0 -0.46597023605E+02 -0.12801630197E+01  0.16066986253E+02  0.49305876662E+02  0.00000000000E+00 0.  1.
         11    1    1    2    0    0 -0.21630356315E+02 -0.37274616917E+02 -0.71713303095E+02  0.83666404377E+02  0.00000000000E+00 0. -1.
</event>
<event>
 7    1  0.2690635E-009  0.9688044E+02  0.7561462E-02  0.1286996E+00
         -2   -1    0    0    0  501 -0.00000000000E+00  0.00000000000E+00  0.19816361113E+02  0.19816361113E+02  0.00000000000E+00 0.  1.
          2   -1    0    0  501    0  0.00000000000E+00 -0.00000000000E+00 -0.62271935484E+03  0.62271935484E+03  0.00000000000E+00 0. -1.
         25    2    1    2    0    0  0.18077713101E+02 -0.16036874390E+02 -0.37004572776E+03  0.39136597059E+03  0.12509795063E+03 0.  0.
          5    1    3    3  502    0 -0.13238549852E+02 -0.51445285714E+02 -0.72038651608E+02  0.89604220603E+02  0.41800000000E+01 0.  1.
         -5    1    3    3    0  502  0.31316262953E+02  0.35408411325E+02 -0.29800707615E+03  0.30176174999E+03  0.41800000000E+01 0.  1.
        -11    1    1    2    0    0 -0.54181748293E+02  0.17352930820E+02 -0.16069365287E+03  0.17046769819E+03  0.00000000000E+00 0. -1.
         11    1    1    2    0    0  0.36104035192E+02 -0.13160564297E+01 -0.72163613097E+02  0.80702047167E+02  0.00000000000E+00 0.  1.
</event>
<event>
 7    1  0.2690635E-009  0.1151957E+03  0.7561462E-02  0.1251240E+00
          2   -1    0    0  501    0  0.00000000000E+00  0.00000000000E+00  0.79545942575E+03  0.79545942575E+03  0.00000000000E+00 0. -1.
         -2   -1    0    0    0  501 -0.00000000000E+00 -0.00000000000E+00 -0.19326510801E+02  0.19326510801E+02  0.00000000000E+00 0.  1.
         25    2    1    2    0    0  0.46160862319E+01  0.52323261650E+02  0.58247871776E+03  0.59807017892E+03  0.12508976900E+03 0.  0.
          5    1    3    3  502    0  0.20132426126E+02 -0.37189111021E+02  0.23940784294E+03  0.24315001999E+03  0.41800000000E+01 0.  1.
         -5    1    3    3    0  502 -0.15516339894E+02  0.89512372671E+02  0.34307087482E+03  0.35492015893E+03  0.41800000000E+01 0.  1.
        -11    1    1    2    0    0 -0.30696649497E+02  0.75799532951E+01  0.71732033847E+02  0.78391483352E+02  0.00000000000E+00 0.  1.
         11    1    1    2    0    0  0.26080563265E+02 -0.59903214945E+02  0.12192216335E+03  0.13832427428E+03  0.00000000000E+00 0. -1.
</event>
<event>
 7    1  0.2690635E-009  0.2186396E+03  0.7561462E-02  0.1134901E+00
         -4   -1    0    0    0  501 -0.00000000000E+00  0.00000000000E+00  0.38883189031E+03  0.38883189031E+03  0.00000000000E+00 0.  1.
          4   -1    0    0  501    0  0.00000000000E+00 -0.00000000000E+00 -0.13612135933E+03  0.13612135933E+03  0.00000000000E+00 0. -1.
         25    2    1    2    0    0  0.62856015515E+02  0.19047237797E+03  0.15949247552E+03  0.28515877104E+03  0.12508824684E+03 0.  0.
          5    1    3    3  502    0  0.89055902520E+02  0.16115142626E+03  0.89490188539E+02  0.20476010892E+03  0.41800000000E+01 0. -1.
         -5    1    3    3    0  502 -0.26199887006E+02  0.29320951711E+02  0.70002286985E+02  0.80398662125E+02  0.41800000000E+01 0. -1.
        -11    1    1    2    0    0 -0.58357497046E+02 -0.62474821766E+02  0.68050985248E+02  0.10926864788E+03  0.00000000000E+00 0.  1.
         11    1    1    2    0    0 -0.44985184684E+01 -0.12799755621E+03  0.25167070206E+02  0.13052583072E+03  0.00000000000E+00 0. -1.
</event>
<event>
 7    1  0.2690635E-009  0.1702878E+03  0.7561462E-02  0.1177548E+00
          1   -1    0    0  501    0  0.00000000000E+00  0.00000000000E+00  0.10598451930E+03  0.10598451930E+03  0.00000000000E+00 0. -1.
         -1   -1    0    0    0  501 -0.00000000000E+00 -0.00000000000E+00 -0.45954035140E+03  0.45954035140E+03  0.00000000000E+00 0.  1.
         25    2    1    2    0    0 -0.13747534660E+03 -0.52135099900E+02 -0.23334795752E+02  0.19444681046E+03  0.12509000696E+03 0.  0.
          5    1    3    3  502    0 -0.11498297130E+03 -0.83064196138E+02  0.11730700601E+02  0.14239320948E+03  0.41800000000E+01 0. -1.
         -5    1    3    3    0  502 -0.22492375298E+02  0.30929096238E+02 -0.35065496353E+02  0.52053600981E+02  0.41800000000E+01 0. -1.
        -11    1    1    2    0    0  0.55991181447E+02  0.55237716352E+02 -0.22237231648E+03  0.23587213664E+03  0.00000000000E+00 0.  1.
         11    1    1    2    0    0  0.81484165155E+02 -0.31026164515E+01 -0.10784871986E+03  0.13520592360E+03  0.00000000000E+00 0. -1.
</event>
<event>
 7    1  0.2690635E-009  0.9130569E+02  0.7561462E-02  0.1299720E+00
         -1   -1    0    0    0  501 -0.00000000000E+00  0.00000000000E+00  0.33347426375E+03  0.33347426375E+03  0.00000000000E+00 0.  1.
          1   -1    0    0  501    0  0.00000000000E+00 -0.00000000000E+00 -0.48853948727E+02  0.48853948727E+02  0.00000000000E+00 0. -1.
         25    2    1    2    0    0  0.52769680721E+02  0.27825677930E+02  0.10985407360E+03  0.17684464654E+03  0.12508878434E+03 0.  0.
          5    1    3    3  502    0 -0.13388363536E+01  0.56882279668E+02  0.76894439353E+01  0.57567231748E+02  0.41800000000E+01 0. -1.
         -5    1    3    3    0  502  0.54108517074E+02 -0.29056601739E+02  0.10216462966E+03  0.11927741479E+03  0.41800000000E+01 0. -1.
        -11    1    1    2    0    0 -0.36062998265E+02 -0.60690837296E+01  0.92664363083E+01  0.37725859341E+02  0.00000000000E+00 0. -1.
         11    1    1    2    0    0 -0.16706682456E+02 -0.21756594200E+02  0.16549980512E+03  0.16775770660E+03  0.00000000000E+00 0.  1.
</event>
<event>
 7    1  0.2690635E-009  0.1234387E+03  0.7561462E-02  0.1237530E+00
         -1   -1    0    0    0  501 -0.00000000000E+00  0.00000000000E+00  0.98859425883E+02  0.98859425883E+02  0.00000000000E+00 0.  1.
          1   -1    0    0  501    0  0.00000000000E+00 -0.00000000000E+00 -0.16998440895E+03  0.16998440895E+03  0.00000000000E+00 0. -1.
         25    2    1    2    0    0  0.57047447732E+02  0.44834161989E+02 -0.50525218764E+02  0.15318637093E+03  0.12509497646E+03 0.  0.
          5    1    3    3  502    0  0.61937498765E+02 -0.28726764821E+02 -0.10529100322E+02  0.69208490259E+02  0.41800000000E+01 0.  1.
         -5    1    3    3    0  502 -0.48900510330E+01  0.73560926809E+02 -0.39996118442E+02  0.83977880674E+02  0.41800000000E+01 0.  1.
        -11    1    1    2    0    0  0.18696958227E+02 -0.69940601569E+01 -0.23629340281E+02  0.30932811812E+02  0.00000000000E+00 0. -1.
         11    1    1    2    0    0 -0.75744405960E+02 -0.37840101832E+02  0.30295759785E+01  0.84724652088E+02  0.00000000000E+00 0.  1.
</event>
<event>
 7    1  0.2690635E-009  0.1005521E+03  0.7561462E-02  0.1279139E+00
         -2   -1    0    0    0  501 -0.00000000000E+00  0.00000000000E+00  0.10144471011E+03  0.10144471011E+03  0.00000000000E+00 0.  1.
          2   -1    0    0  501    0  0.00000000000E+00 -0.00000000000E+00 -0.14218866376E+03  0.14218866376E+03  0.00000000000E+00 0. -1.
         25    2    1    2    0    0 -0.35637478054E+02 -0.24940102030E+02 -0.50523127158E+02  0.14174184092E+03  0.12508446969E+03 0.  0.
          5    1    3    3  502    0 -0.40575399423E+01  0.33636753033E+02  0.24010301149E+02  0.41735617238E+02  0.41800000000E+01 0. -1.
         -5    1    3    3    0  502 -0.31579938112E+02 -0.58576855064E+02 -0.74533428307E+02  0.10000622368E+03  0.41800000000E+01 0. -1.
        -11    1    1    2    0    0 -0.29101894707E+01  0.52703140274E+02 -0.24419314763E+01  0.52839882918E+02  0.00000000000E+00 0. -1.
         11    1    1    2    0    0  0.38547667525E+02 -0.27763038243E+02  0.12221104984E+02  0.49051650035E+02  0.00000000000E+00 0.  1.
</event>
<event>
 7    1  0.2690635E-009  0.9782535E+02  0.7561462E-02  0.1284937E+00
         -1   -1    0    0    0  501 -0.00000000000E+00  0.00000000000E+00  0.13046207232E+03  0.13046207232E+03  0.00000000000E+00 0.  1.
          1   -1    0    0  501    0  0.00000000000E+00 -0.00000000000E+00 -0.11404243083E+03  0.11404243083E+03  0.00000000000E+00 0. -1.
         25    2    1    2    0    0  0.51888006960E+02  0.13194277343E+02  0.82438561640E+01  0.13631536982E+03  0.12508982638E+03 0.  0.
          5    1    3    3  502    0  0.29772420599E+02 -0.36602791488E+02  0.48994003268E+02  0.68147238604E+02  0.41800000000E+01 0.  1.
         -5    1    3    3    0  502  0.22115586361E+02  0.49797068832E+02 -0.40750147105E+02  0.68168131215E+02  0.41800000000E+01 0.  1.
        -11    1    1    2    0    0 -0.70720481500E+02 -0.13770419930E+00  0.29742810618E+02  0.76720533428E+02  0.00000000000E+00 0.  1.
         11    1    1    2    0    0  0.18832474541E+02 -0.13056573144E+02 -0.21567025299E+02  0.31468599903E+02  0.00000000000E+00 0. -1.
</event>
<event>
 7    1  0.2690635E-009  0.1138012E+03  0.7561462E-02  0.1253688E+00
          2   -1    0    0  501    0  0.00000000000E+00  0.00000000000E+00  0.40374146304E+03  0.40374146304E+03  0.00000000000E+00 0. -1.
         -2   -1    0    0    0  501 -0.00000000000E+00 -0.00000000000E+00 -0.56767644270E+02  0.56767644270E+02  0.00000000000E+00 0.  1.
         25    2    1    2    0    0  0.50602339215E+01 -0.95967807548E+02  0.25120108323E+03  0.29662177784E+03  0.12508824414E+03 0.  0.
          5    1    3    3  502    0  0.71662596235E+01 -0.33313217765E+02  0.22653920618E+03  0.22912575170E+03  0.41800000000E+01 0.  1.
         -5    1    3    3    0  502 -0.21060257019E+01 -0.62654589783E+02  0.24661877046E+02  0.67496026139E+02  0.41800000000E+01 0.  1.
        -11    1    1    2    0    0 -0.38142994572E+02  0.88724528804E+02  0.55954346545E+02  0.11161460005E+03  0.00000000000E+00 0.  1.
         11    1    1    2    0    0  0.33082760650E+02  0.72432787437E+01  0.39818389001E+02  0.52272729428E+02  0.00000000000E+00 0. -1.
</event>
<event>
 7    1  0.2690635E-009  0.1568862E+03  0.7561462E-02  0.1192258E+00
         -2   -1    0    0    0  501 -0.00000000000E+00  0.00000000000E+00  0.25904305548E+03  0.25904305548E+03  0.00000000000E+00 0. -1.
          2   -1    0    0  501    0  0.00000000000E+00 -0.00000000000E+00 -0.21982260923E+03  0.21982260923E+03  0.00000000000E+00 0.  1.
         25    2    1    2    0    0 -0.12934785168E+03  0.25265553702E+02 -0.14679890450E+03  0.23359450246E+03  0.12508900141E+03 0.  0.
          5    1    3    3  502    0 -0.31867266132E+02 -0.49132135015E+02 -0.41368046793E+02  0.71821146171E+02  0.41800000000E+01 0. -1.
         -5    1    3    3    0  502 -0.97480585552E+02  0.74397688717E+02 -0.10543085771E+03  0.16177335628E+03  0.41800000000E+01 0. -1.
        -11    1    1    2    0    0  0.26061642631E+02 -0.10186726325E+02  0.11660787229E+03  0.11991819916E+03  0.00000000000E+00 0. -1.
         11    1    1    2    0    0  0.10328620905E+03 -0.15078827377E+02  0.69411478461E+02  0.12535296310E+03  0.00000000000E+00 0.  1.
</event>
<event>
 7    1  0.2690635E-009  0.1588401E+03  0.7561462E-02  0.1190013E+00
         -1   -1    0    0    0  501 -0.00000000000E+00  0.00000000000E+00  0.26171935448E+02  0.26171935448E+02  0.00000000000E+00 0.  1.
          1   -1    0    0  501    0  0.00000000000E+00 -0.00000000000E+00 -0.11238747747E+04  0.11238747747E+04  0.00000000000E+00 0. -1.
         25    2    1    2    0    0  0.86757121219E+02 -0.10067722983E+03 -0.52865790028E+03  0.55927550396E+03  0.12508881290E+03 0.  0.
          5    1    3    3  502    0  0.61238840307E+02  0.15628161403E+02 -0.18793513714E+03  0.19832176674E+03  0.41800000000E+01 0. -1.
         -5    1    3    3    0  502  0.25518280911E+02 -0.11630539123E+03 -0.34072276314E+03  0.36095373722E+03  0.41800000000E+01 0. -1.
        -11    1    1    2    0    0 -0.41650940673E+02  0.67050761302E+02 -0.47234882052E+03  0.47889875099E+03  0.00000000000E+00 0. -1.
         11    1    1    2    0    0 -0.45106180546E+02  0.33626468528E+02 -0.96696118440E+02  0.11187245519E+03  0.00000000000E+00 0.  1.
</event>
<event>
 7    1  0.2690635E-009  0.1256469E+03  0.7561462E-02  0.1234062E+00
         -2   -1    0    0    0  501 -0.00000000000E+00  0.00000000000E+00  0.47052564739E+02  0.47052564739E+02  0.00000000000E+00 0.  1.
          2   -1    0    0  501    0  0.00000000000E+00 -0.00000000000E+00 -0.61573458154E+03  0.61573458154E+03  0.00000000000E+00 0. -1.
         25    2    1    2    0    0 -0.98594324907E+02 -0.30984291063E+02 -0.14621401062E+03  0.21842061043E+03  0.12509260155E+03 0.  0.
          5    1    3    3  502    0  0.38915708131E+01 -0.72745562851E+01 -0.10493417998E+03  0.10534096079E+03  0.41800000000E+01 0. -1.
         -5    1    3    3    0  502 -0.10248589572E+03 -0.23709734778E+02 -0.41279830641E+02  0.11307964964E+03  0.41800000000E+01 0. -1.
        -11    1    1    2    0    0 -0.65981513421E+01  0.30879982133E+02 -0.76528182290E+02  0.82786904655E+02  0.00000000000E+00 0.  1.
         11    1    1    2    0    0  0.10519247625E+03  0.10430893004E+00 -0.34593982389E+03  0.36157963120E+03  0.00000000000E+00 0. -1.
</event>
<event>
 7    1  0.2690635E-009  0.1812837E+03  0.7561462E-02  0.1166566E+00
         -2   -1    0    0    0  501 -0.00000000000E+00  0.00000000000E+00  0.65188193364E+03  0.65188193364E+03  0.00000000000E+00 0.  1.
          2   -1    0    0  501    0  0.00000000000E+00 -0.00000000000E+00 -0.57963830657E+02  0.57963830657E+02  0.00000000000E+00 0. -1.
         25    2    1    2    0    0 -0.12632410260E+03  0.81671874290E+02  0.20861316671E+03  0.28599725811E+03  0.12508758682E+03 0.  0.
          5    1    3    3  502    0 -0.40391695375E+02 -0.30511989960E+02  0.80638751216E+02  0.95302419614E+02  0.41800000000E+01 0. -1.
         -5    1    3    3    0  502 -0.85932407227E+02  0.11218386425E+03  0.12797441549E+03  0.19069483850E+03  0.41800000000E+01 0. -1.
        -11    1    1    2    0    0  0.12998541248E+03 -0.51196709485E+02  0.35119189646E+03  0.37795907009E+03  0.00000000000E+00 0. -1.
         11    1    1    2    0    0 -0.36613098810E+01 -0.30475164806E+02  0.34113039813E+02  0.45889436097E+02  0.00000000000E+00 0.  1.
</event>
<event>
 7    1  0.2690635E-009  0.1345579E+03  0.7561462E-02  0.1220845E+00
          1   -1    0    0  501    0  0.00000000000E+00  0.00000000000E+00  0.75727469747E+02  0.75727469747E+02  0.00000000000E+00 0. -1.
         -1   -1    0    0    0  501 -0.00000000000E+00 -0.00000000000E+00 -0.27181216037E+03  0.27181216037E+03  0.00000000000E+00 0.  1.
         25    2    1    2    0    0 -0.88707321112E+02  0.49767968326E+01 -0.14067181811E+03  0.20816125873E+03  0.12509513140E+03 0.  0.
          5    1    3    3  502    0  0.19318382856E+02  0.27599173455E+02 -0.68215832404E+01  0.34625434141E+02  0.41800000000E+01 0. -1.
         -5    1    3    3    0  502 -0.10802570397E+03 -0.22622376622E+02 -0.13385023487E+03  0.17353582459E+03  0.41800000000E+01 0. -1.
        -11    1    1    2    0    0 -0.88550409392E+00  0.28917486786E+02 -0.26723085556E+02  0.39384368233E+02  0.00000000000E+00 0.  1.
         11    1    1    2    0    0  0.89592825206E+02 -0.33894283619E+02 -0.28689786958E+02  0.99994003151E+02  0.00000000000E+00 0. -1.
</event>
<event>
 7    1  0.2690635E-009  0.1369072E+03  0.7561462E-02  0.1217552E+00
         -2   -1    0    0    0  501 -0.00000000000E+00  0.00000000000E+00  0.46117177762E+02  0.46117177762E+02  0.00000000000E+00 0.  1.
          2   -1    0    0  501    0  0.00000000000E+00 -0.00000000000E+00 -0.62926710687E+03  0.62926710687E+03  0.00000000000E+00 0. -1.
         25    2    1    2    0    0 -0.10238829404E+02  0.92908000258E+02 -0.49214174192E+03  0.51632080670E+03  0.12508777377E+03 0.  0.
          5    1    3    3  502    0  0.56224719778E+02  0.46763908150E+02 -0.27389987613E+03  0.28352547815E+03  0.41800000000E+01 0.  1.
         -5    1    3    3    0  502 -0.66463549182E+02  0.46144092109E+02 -0.21824186579E+03  0.23279532854E+03  0.41800000000E+01 0.  1.
        -11    1    1    2    0    0 -0.21931354070E+02 -0.83052118392E+02 -0.33031680496E+02  0.92031139171E+02  0.00000000000E+00 0.  1.
         11    1    1    2    0    0  0.32170183474E+02 -0.98558818662E+01 -0.57976506689E+02  0.67032338762E+02  0.00000000000E+00 0. -1.
</event>
<event>
 7    1  0.2690635E-009  0.1022919E+03  0.7561462E-02  0.1275549E+00
         -3   -1    0    0    0  501 -0.00000000000E+00  0.00000000000E+00  0.10176180801E+03  0.10176180801E+03  0.00000000000E+00 0.  1.
          3   -1    0    0  501    0  0.00000000000E+00 -0.00000000000E+00 -0.20594848426E+03  0.20594848426E+03  0.00000000000E+00 0. -1.
         25    2    1    2    0    0 -0.53725806198E+02 -0.51723696434E+02  0.91052978656E+01  0.14591822398E+03  0.12508964233E+03 0.  0.
          5    1    3    3  502    0 -0.46759946561E+02 -0.71238180619E+02  0.50712003811E+02  0.99249940609E+02  0.41800000000E+01 0.  1.
         -5    1    3    3    0  502 -0.69658596374E+01  0.19514484186E+02 -0.41606705946E+02  0.46668283375E+02  0.41800000000E+01 0.  1.
        -11    1    1    2    0    0  0.24012026748E+02  0.62159864040E+02 -0.30639800431E+02  0.73343189844E+02  0.00000000000E+00 0.  1.
         11    1    1    2    0    0  0.29713779449E+02 -0.10436167606E+02 -0.82652173679E+02  0.88448878440E+02  0.00000000000E+00 0. -1.
</event>
<event>
 7    1  0.2690635E-009  0.7161789E+02  0.7561462E-02  0.1354676E+00
          2   -1    0    0  501    0  0.00000000000E+00  0.00000000000E+00  0.29710949927E+03  0.29710949927E+03  0.00000000000E+00 0. -1.
         -2   -1    0    0    0  501 -0.00000000000E+00 -0.00000000000E+00 -0.42388054500E+02  0.42388054500E+02  0.00000000000E+00 0.  1.
         25    2    1    2    0    0 -0.26648964181E+01  0.23711867790E+01  0.17961758461E+03  0.21891221767E+03  0.12508940061E+03 0.  0.
          5    1    3    3  502    0 -0.18860634916E+02  0.46736551211E+02  0.15964509415E+03  0.16746359979E+03  0.41800000000E+01 0.  1.
         -5    1    3    3    0  502  0.16195738498E+02 -0.44365364432E+02  0.19972490459E+02  0.51448617880E+02  0.41800000000E+01 0.  1.
        -11    1    1    2    0    0 -0.64176017487E+01  0.20053917352E+02 -0.15922564166E+02  0.26398357202E+02  0.00000000000E+00 0.  1.
         11    1    1    2    0    0  0.90824981668E+01 -0.22425104131E+02  0.91026424323E+02  0.94186978895E+02  0.00000000000E+00 0. -1.
</event>
<event>
 7    1  0.2690635E-009  0.8383466E+02  0.7561462E-02  0.1318508E+00
          3   -1    0    0  501    0  0.00000000000E+00  0.00000000000E+00  0.53978899809E+02  0.53978899809E+02  0.00000000000E+00 0. -1.
         -3   -1    0    0    0  501 -0.00000000000E+00 -0.00000000000E+00 -0.19817334262E+03  0.19817334262E+03  0.00000000000E+00 0.  1.
         25    2    1    2    0    0 -0.31824596034E+01  0.28429488908E+02 -0.95954751866E+02  0.16022538558E+03  0.12508595400E+03 0.  0.
          5    1    3    3  502    0 -0.44271837323E+02  0.75871447570E+01 -0.10391378440E+03  0.11328330563E+03  0.41800000000E+01 0. -1.
         -5    1    3    3    0  502  0.41089377719E+02  0.20842344151E+02  0.79590325336E+01  0.46942079949E+02  0.41800000000E+01 0. -1.
        -11    1    1    2    0    0 -0.33370418872E+02 -0.76018734425E+01 -0.31926201594E+02  0.46804440855E+02  0.00000000000E+00 0.  1.
         11    1    1    2    0    0  0.36552878476E+02 -0.20827615465E+02 -0.16313489353E+02  0.45122416000E+02  0.00000000000E+00 0. -1.
</event>
<event>
 7    1  0.2690635E-009  0.1119113E+03  0.7561462E-02  0.1257071E+00
          4   -1    0    0  501    0  0.00000000000E+00  0.00000000000E+00  0.13634529394E+03  0.13634529394E+03  0.00000000000E+00 0. -1.
         -4   -1    0    0    0  501 -0.00000000000E+00 -0.00000000000E+00 -0.10418554950E+03  0.10418554950E+03  0.00000000000E+00 0.  1.
         25    2    1    2    0    0 -0.20525155845E+02  0.43029101319E+02 -0.17187359578E+01  0.13387796346E+03  0.12509024528E+03 0.  0.
          5    1    3    3  502    0 -0.21595180144E+02  0.84828670804E+02  0.14518052259E+02  0.88828494512E+02  0.41800000000E+01 0. -1.
         -5    1    3    3    0  502  0.10700242985E+01 -0.41799569485E+02 -0.16236788217E+02  0.45049468951E+02  0.41800000000E+01 0. -1.
        -11    1    1    2    0    0 -0.30402577528E+02 -0.54786642232E+01  0.30308880367E+02  0.43277716103E+02  0.00000000000E+00 0. -1.
         11    1    1    2    0    0  0.50927733373E+02 -0.37550437095E+02  0.35696000324E+01  0.63375163881E+02  0.00000000000E+00 0.  1.
</event>
<event>
 7    1  0.2690635E-009  0.1371797E+03  0.7561462E-02  0.1217175E+00
          1   -1    0    0  501    0  0.00000000000E+00  0.00000000000E+00  0.17778618430E+03  0.17778618430E+03  0.00000000000E+00 0. -1.
         -1   -1    0    0    0  501 -0.00000000000E+00 -0.00000000000E+00 -0.12897604990E+03  0.12897604990E+03  0.00000000000E+00 0.  1.
         25    2    1    2    0    0 -0.63497817392E+02  0.70312389588E+02  0.73156674538E+02  0.17313229485E+03  0.12508831900E+03 0.  0.
          5    1    3    3  502    0  0.25711837827E+02 -0.71372733326E+01 -0.97819543506E+01  0.28726265089E+02  0.41800000000E+01 0.  1.
         -5    1    3    3    0  502 -0.89209655219E+02  0.77449662921E+02  0.82938628889E+02  0.14440602977E+03  0.41800000000E+01 0.  1.
        -11    1    1    2    0    0  0.63843669500E+02 -0.89504831392E+02 -0.29352549393E+02  0.11379235973E+03  0.00000000000E+00 0.  1.
         11    1    1    2    0    0 -0.34585210832E+00  0.19192441804E+02  0.50060092588E+01  0.19837579610E+02  0.00000000000E+00 0. -1.
</event>
<event>
 7    1  0.2690635E-009  0.9621739E+02  0.7561462E-02  0.1288458E+00
         -1   -1    0    0    0  501 -0.00000000000E+00  0.00000000000E+00  0.95327595483E+02  0.95327595483E+02  0.00000000000E+00 0.  1.
          1   -1    0    0  501    0  0.00000000000E+00 -0.00000000000E+00 -0.15957942299E+03  0.15957942299E+03  0.00000000000E+00 0. -1.
         25    2    1    2    0    0  0.52514197647E+02 -0.14157538597E+02 -0.11003302766E+02  0.13685657937E+03  0.12510185367E+03 0.  0.
          5    1    3    3  502    0  0.18715420662E+02  0.47304572991E+02  0.26171411080E+02  0.57362049774E+02  0.41800000000E+01 0. -1.
         -5    1    3    3    0  502  0.33798776984E+02 -0.61462111587E+02 -0.37174713845E+02  0.79494529597E+02  0.41800000000E+01 0. -1.
        -11    1    1    2    0    0 -0.28860953128E+02  0.30795342659E+02  0.14307747820E+02  0.44564777489E+02  0.00000000000E+00 0.  1.
         11    1    1    2    0    0 -0.23653244519E+02 -0.16637804063E+02 -0.67556272566E+02  0.73485661617E+02  0.00000000000E+00 0. -1.
</event>
<event>
 7    1  0.2690635E-009  0.7845451E+02  0.7561462E-02  0.1333495E+00
         -2   -1    0    0    0  501 -0.00000000000E+00  0.00000000000E+00  0.22730084637E+02  0.22730084637E+02  0.00000000000E+00 0.  1.
          2   -1    0    0  501    0  0.00000000000E+00 -0.00000000000E+00 -0.71388991267E+03  0.71388991267E+03  0.00000000000E+00 0. -1.
         25    2    1    2    0    0 -0.14803833584E+02  0.31813666249E+01 -0.57223841136E+03  0.58594826239E+03  0.12509713095E+03 0.  0.
          5    1    3    3  502    0 -0.35236660276E+02 -0.25215350196E+02 -0.52608947477E+03  0.52788734023E+03  0.41800000000E+01 0.  1.
         -5    1    3    3    0  502  0.20432826692E+02  0.28396716821E+02 -0.46148936593E+02  0.58060922155E+02  0.41800000000E+01 0.  1.
        -11    1    1    2    0    0 -0.28143195229E+02  0.14550507891E+02 -0.11625920664E+02  0.33747870286E+02  0.00000000000E+00 0.  1.
         11    1    1    2    0    0  0.42947028813E+02 -0.17731874516E+02 -0.10729549600E+03  0.11692386463E+03  0.00000000000E+00 0. -1.
</event>
<event>
 7    1  0.2690635E-009  0.1174276E+03  0.7561462E-02  0.1247402E+00
          1   -1    0    0  501    0  0.00000000000E+00  0.00000000000E+00  0.76875449381E+03  0.76875449381E+03  0.00000000000E+00 0. -1.
         -1   -1    0    0    0  501 -0.00000000000E+00 -0.00000000000E+00 -0.23986470810E+02  0.23986470810E+02  0.00000000000E+00 0.  1.
         25    2    1    2    0    0 -0.87734656438E+02  0.20201110434E+02  0.52328269078E+03  0.54550395142E+03  0.12507730307E+03 0.  0.
          5    1    3    3  502    0 -0.10947111761E+03 -0.62844230601E+01  0.46495697521E+03  0.47772992449E+03  0.41800000000E+01 0.  1.
         -5    1    3    3    0  502  0.21736461172E+02  0.26485533494E+02  0.58325715570E+02  0.67774026924E+02  0.41800000000E+01 0.  1.
        -11    1    1    2    0    0  0.50606499396E+02 -0.64573375774E+01  0.18977538079E+03  0.19651312970E+03  0.00000000000E+00 0. -1.
         11    1    1    2    0    0  0.37128157042E+02 -0.13743772856E+02  0.31709951427E+02  0.50723883498E+02  0.00000000000E+00 0.  1.
</event>
<event>
 7    1  0.2690635E-009  0.1122980E+03  0.7561462E-02  0.1256373E+00
          3   -1    0    0  501    0  0.00000000000E+00  0.00000000000E+00  0.32330238225E+03  0.32330238225E+03  0.00000000000E+00 0. -1.
         -3   -1    0    0    0  501 -0.00000000000E+00 -0.00000000000E+00 -0.96686088948E+02  0.96686088948E+02  0.00000000000E+00 0.  1.
         25    2    1    2    0    0  0.78738270193E+02  0.24538152621E+02 -0.13690659632E+02  0.15045421545E+03  0.12508877111E+03 0.  0.
          5    1    3    3  502    0 -0.19030731273E+02 -0.25478831983E+02  0.17064898822E+02  0.36332117800E+02  0.41800000000E+01 0. -1.
         -5    1    3    3    0  502  0.97769001466E+02  0.50016984604E+02 -0.30755558454E+02  0.11412209765E+03  0.41800000000E+01 0. -1.
        -11    1    1    2    0    0 -0.36931863068E+02 -0.14095538997E+02  0.18616279998E+02  0.43694537534E+02  0.00000000000E+00 0.  1.
         11    1    1    2    0    0 -0.41806407125E+02 -0.10442613624E+02  0.22169067293E+03  0.22583971821E+03  0.00000000000E+00 0. -1.
</event>
<event>
 7    1  0.2690635E-009  0.7744751E+02  0.7561462E-02  0.1336455E+00
         -1   -1    0    0    0  501 -0.00000000000E+00  0.00000000000E+00  0.15660403177E+03  0.15660403177E+03  0.00000000000E+00 0.  1.
          1   -1    0    0  501    0  0.00000000000E+00 -0.00000000000E+00 -0.15431242434E+03  0.15431242434E+03  0.00000000000E+00 0. -1.
         25    2    1    2    0    0 -0.34706608994E+02 -0.63355491969E+02  0.95369353509E+02  0.17309277257E+03  0.12508927714E+03 0.  0.
          5    1    3    3  502    0  0.81493125509E+01 -0.17478259783E+02  0.10725991487E+03  0.10905990371E+03  0.41800000000E+01 0.  1.
         -5    1    3    3    0  502 -0.42855921545E+02 -0.45877232186E+02 -0.11890561358E+02  0.64032868856E+02  0.41800000000E+01 0.  1.
        -11    1    1    2    0    0  0.15631906405E+02  0.27717211144E+02  0.45627436725E+01  0.32146833768E+02  0.00000000000E+00 0.  1.
         11    1    1    2    0    0  0.19074702589E+02  0.35638280825E+02 -0.97640489748E+02  0.10567684977E+03  0.00000000000E+00 0. -1.
</event>
<event>
 7    1  0.2690635E-009  0.1020598E+03  0.7561462E-02  0.1276023E+00
         -2   -1    0    0    0  501 -0.00000000000E+00  0.00000000000E+00  0.39819887669E+02  0.39819887669E+02  0.00000000000E+00 0. -1.
          2   -1    0    0  501    0  0.00000000000E+00 -0.00000000000E+00 -0.44115929828E+03  0.44115929828E+03  0.00000000000E+00 0.  1.
         25    2    1    2    0    0  0.74082552769E+02  0.12294058549E+01 -0.24814351625E+03  0.28759884796E+03  0.12509259221E+03 0.  0.
          5    1    3    3  502    0  0.45882646211E+02 -0.22756104249E+02 -0.24486513926E+03  0.25019885357E+03  0.41800000000E+01 0.  1.
         -5    1    3    3    0  502  0.28199906558E+02  0.23985510104E+02 -0.32783769963E+01  0.37399994392E+02  0.41800000000E+01 0.  1.
        -11    1    1    2    0    0 -0.94772704697E+02 -0.48658124015E+00 -0.13916019729E+03  0.16836764187E+03  0.00000000000E+00 0.  1.
         11    1    1    2    0    0  0.20690151928E+02 -0.74282461471E+00 -0.14035697065E+02  0.25012696122E+02  0.00000000000E+00 0. -1.
</event>
<event>
 7    1  0.2690635E-009  0.6651052E+02  0.7561462E-02  0.1372378E+00
          2   -1    0    0  501    0  0.00000000000E+00  0.00000000000E+00  0.15780301144E+03  0.15780301144E+03  0.00000000000E+00 0. -1.
         -2   -1    0    0    0  501 -0.00000000000E+00 -0.00000000000E+00 -0.11948166118E+03  0.11948166118E+03  0.00000000000E+00 0.  1.
         25    2    1    2    0    0  0.40911716431E+02  0.12156721347E+01  0.96658993998E+02  0.16329368661E+03  0.12508645236E+03 0.  0.
          5    1    3    3  502    0 -0.17454427213E+02 -0.19301819104E+02 -0.18705713059E+02  0.32320169417E+02  0.41800000000E+01 0. -1.
         -5    1    3    3    0  502  0.58366143644E+02  0.20517491239E+02  0.11536470706E+03  0.13097351719E+03  0.41800000000E+01 0. -1.
        -11    1    1    2    0    0 -0.75754092425E+01  0.70081566884E+01  0.23269212551E+02  0.25455006150E+02  0.00000000000E+00 0. -1.
         11    1    1    2    0    0 -0.33336307188E+02 -0.82238288230E+01 -0.81606856283E+02  0.88535979860E+02  0.00000000000E+00 0.  1.
</event>
<event>
 7    1  0.2749101E-009  0.1003356E+03  0.7561462E-02  0.1279592E+00
         -2   -1    0    0    0  501 -0.00000000000E+00  0.00000000000E+00  0.31305401355E+02  0.31305401355E+02  0.00000000000E+00 0.  1.
          2   -1    0    0  501    0  0.00000000000E+00 -0.00000000000E+00 -0.45839732762E+03  0.45839732762E+03  0.00000000000E+00 0. -1.
         25    2    1    2    0    0  0.98562650926E+01  0.64633912162E-01 -0.13846406487E+03  0.18686133376E+03  0.12509080964E+03 0.  0.
          5    1    3    3  502    0  0.64005796523E+02  0.94543297258E+01 -0.10169968250E+03  0.12060855758E+03  0.41800000000E+01 0. -1.
         -5    1    3    3    0  502 -0.54149531430E+02 -0.93896958136E+01 -0.36764382362E+02  0.66252776183E+02  0.41800000000E+01 0. -1.
        -11    1    1    2    0    0 -0.20989704445E+02  0.36715282381E+02 -0.77912563513E+02  0.88650703360E+02  0.00000000000E+00 0.  1.
         11    1    1    2    0    0  0.11133439353E+02 -0.36779916293E+02 -0.21071529789E+03  0.21419069186E+03  0.00000000000E+00 0. -1.
</event>
<event>
 7    1  0.2690635E-009  0.1055034E+03  0.7561462E-02  0.1269131E+00
          1   -1    0    0  501    0  0.00000000000E+00  0.00000000000E+00  0.22115984775E+03  0.22115984775E+03  0.00000000000E+00 0. -1.
         -1   -1    0    0    0  501 -0.00000000000E+00 -0.00000000000E+00 -0.58237954579E+02  0.58237954579E+02  0.00000000000E+00 0.  1.
         25    2    1    2    0    0  0.31573742922E+02  0.23234882028E+02  0.87123650680E+02  0.15739811520E+03  0.12508747010E+03 0.  0.
          5    1    3    3  502    0 -0.48548293366E+02  0.69905541904E+01  0.32949379936E+02  0.59236295249E+02  0.41800000000E+01 0.  1.
         -5    1    3    3    0  502  0.80122036288E+02  0.16244327838E+02  0.54174270744E+02  0.98161819953E+02  0.41800000000E+01 0.  1.
        -11    1    1    2    0    0  0.80775075499E+01 -0.37059032291E+02  0.31133049803E+01  0.38056677082E+02  0.00000000000E+00 0.  1.
         11    1    1    2    0    0 -0.39651250472E+02  0.13824150263E+02  0.72684937512E+02  0.83943010046E+02  0.00000000000E+00 0. -1.
</event>
<event>
 7    1  0.2690635E-009  0.1630744E+03  0.7561462E-02  0.1185269E+00
          1   -1    0    0  501    0  0.00000000000E+00  0.00000000000E+00  0.14048176946E+03  0.14048176946E+03  0.00000000000E+00 0. -1.
         -1   -1    0    0    0  501 -0.00000000000E+00 -0.00000000000E+00 -0.23456910309E+03  0.23456910309E+03  0.00000000000E+00 0.  1.
         25    2    1    2    0    0  0.14020489173E+03 -0.14749325878E+02 -0.16261352056E+02  0.18916933108E+03  0.12508257261E+03 0.  0.
          5    1    3    3  502    0  0.74718332633E+01 -0.47035853465E+02  0.12700664280E+02  0.49466949336E+02  0.41800000000E+01 0.  1.
         -5    1    3    3    0  502  0.13273305847E+03  0.32286527587E+02 -0.28962016336E+02  0.13970238174E+03  0.41800000000E+01 0.  1.
        -11    1    1    2    0    0 -0.49091863642E+02 -0.15353173713E+01  0.18322864057E+02  0.52422281737E+02  0.00000000000E+00 0. -1.
         11    1    1    2    0    0 -0.91113028089E+02  0.16284643249E+02 -0.96148845632E+02  0.13345925974E+03  0.00000000000E+00 0.  1.
</event>
<event>
 7    1  0.2690635E-009  0.1141298E+03  0.7561462E-02  0.1253108E+00
          1   -1    0    0  501    0  0.00000000000E+00  0.00000000000E+00  0.13393222602E+04  0.13393222602E+04  0.00000000000E+00 0. -1.
         -1   -1    0    0    0  501 -0.00000000000E+00 -0.00000000000E+00 -0.20732192752E+02  0.20732192752E+02  0.00000000000E+00 0.  1.
         25    2    1    2    0    0  0.38912443634E+02  0.56646059304E+02  0.11356183665E+04  0.11445524222E+04  0.12509283883E+03 0.  0.
          5    1    3    3  502    0  0.64256812497E+02 -0.15189649432E+02  0.56317192097E+03  0.56704474989E+03  0.41800000000E+01 0.  1.
         -5    1    3    3    0  502 -0.25344368863E+02  0.71835708737E+02  0.57244644557E+03  0.57750767227E+03  0.41800000000E+01 0.  1.
        -11    1    1    2    0    0 -0.23313139084E+02  0.35885842366E+01  0.14725847869E+01  0.23633639092E+02  0.00000000000E+00 0.  1.
         11    1    1    2    0    0 -0.15599304550E+02 -0.60234643541E+02  0.18149911615E+03  0.19186839174E+03  0.00000000000E+00 0. -1.
</event>
<event>
 7    1  0.2690635E-009  0.2087451E+03  0.7561462E-02  0.1142564E+00
         -1   -1    0    0    0  501 -0.00000000000E+00  0.00000000000E+00  0.14890087599E+03  0.14890087599E+03  0.00000000000E+00 0.  1.
          1   -1    0    0  501    0  0.00000000000E+00 -0.00000000000E+00 -0.31217251548E+03  0.31217251548E+03  0.00000000000E+00 0. -1.
         25    2    1    2    0    0 -0.13910765056E+03  0.12120683114E+03 -0.11656545854E+03  0.25154822973E+03  0.12508785471E+03 0.  0.
          5    1    3    3  502    0 -0.89546398476E+02  0.14265499198E+03 -0.93378460863E+02  0.19262921266E+03  0.41800000000E+01 0. -1.
         -5    1    3    3    0  502 -0.49561252083E+02 -0.21448160838E+02 -0.23186997680E+02  0.58919017073E+02  0.41800000000E+01 0. -1.
        -11    1    1    2    0    0 -0.32788095968E+01 -0.19717981423E+02  0.14032208873E+02  0.24422372318E+02  0.00000000000E+00 0.  1.
         11    1    1    2    0    0  0.14238646016E+03 -0.10148884972E+03 -0.60738389822E+02  0.18510278942E+03  0.00000000000E+00 0. -1.
</event>
<event>
 7    1  0.2690635E-009  0.2921463E+03  0.7561462E-02  0.1089234E+00
          1   -1    0    0  501    0  0.00000000000E+00  0.00000000000E+00  0.10029622180E+04  0.10029622180E+04  0.00000000000E+00 0. -1.
         -1   -1    0    0    0  501 -0.00000000000E+00 -0.00000000000E+00 -0.13891330174E+03  0.13891330174E+03  0.00000000000E+00 0.  1.
         25    2    1    2    0    0 -0.30898005873E+02  0.27381608521E+03  0.90844675467E+02  0.31595870654E+03  0.12508882401E+03 0.  0.
          5    1    3    3  502    0  0.79858442686E+00  0.26944232494E+03  0.88367551318E+02  0.28359495893E+03  0.41800000000E+01 0. -1.
         -5    1    3    3    0  502 -0.31696590300E+02  0.43737602746E+01  0.24771241493E+01  0.32363747614E+02  0.41800000000E+01 0. -1.
        -11    1    1    2    0    0  0.47973938599E+02 -0.14807151844E+03  0.51838653619E+03  0.54124973373E+03  0.00000000000E+00 0.  1.
         11    1    1    2    0    0 -0.17075932726E+02 -0.12574456677E+03  0.25481770456E+03  0.28466707943E+03  0.00000000000E+00 0. -1.
</event>
<event>
 7    1  0.2690635E-009  0.1030767E+03  0.7561462E-02  0.1273956E+00
         -1   -1    0    0    0  501 -0.00000000000E+00  0.00000000000E+00  0.31707354548E+03  0.31707354548E+03  0.00000000000E+00 0.  1.
          1   -1    0    0  501    0  0.00000000000E+00 -0.00000000000E+00 -0.88357861942E+02  0.88357861942E+02  0.00000000000E+00 0. -1.
         25    2    1    2    0    0  0.34146440011E+00  0.25648161636E+02 -0.28772387521E+02  0.13089383682E+03  0.12508957367E+03 0.  0.
          5    1    3    3  502    0  0.37152042751E+02  0.53609200695E+02 -0.47549685304E+02  0.80824907375E+02  0.41800000000E+01 0.  1.
         -5    1    3    3    0  502 -0.36810578351E+02 -0.27961039058E+02  0.18777297783E+02  0.50068929445E+02  0.41800000000E+01 0.  1.
        -11    1    1    2    0    0  0.11115151296E+02 -0.58521720522E+02  0.14413323181E+03  0.15595745213E+03  0.00000000000E+00 0.  1.
         11    1    1    2    0    0 -0.11456615696E+02  0.32873558886E+02  0.11335483924E+03  0.11858011847E+03  0.00000000000E+00 0. -1.
</event>
<event>
 7    1  0.3930118E-009  0.1176719E+03  0.7561462E-02  0.1246988E+00
          1   -1    0    0  501    0  0.00000000000E+00  0.00000000000E+00  0.53822421758E+03  0.53822421758E+03  0.00000000000E+00 0. -1.
         -1   -1    0    0    0  501 -0.00000000000E+00 -0.00000000000E+00 -0.35016697331E+02  0.35016697331E+02  0.00000000000E+00 0.  1.
         25    2    1    2    0    0  0.82440758872E+02  0.18825382635E+02  0.27915233050E+03  0.31737100564E+03  0.12508979913E+03 0.  0.
          5    1    3    3  502    0  0.51330505100E+02 -0.52039011904E+02  0.14512246066E+03  0.16254501069E+03  0.41800000000E+01 0. -1.
         -5    1    3    3    0  502  0.31110253771E+02  0.70864394539E+02  0.13402986984E+03  0.15482599495E+03  0.41800000000E+01 0. -1.
        -11    1    1    2    0    0 -0.47944923080E+02 -0.12573991691E+02  0.28456110342E+02  0.57153924905E+02  0.00000000000E+00 0.  1.
         11    1    1    2    0    0 -0.34495835791E+02 -0.62513909440E+01  0.19559907941E+03  0.19871598437E+03  0.00000000000E+00 0. -1.
</event>
<event>
 7    1  0.2690635E-009  0.9684096E+02  0.7561462E-02  0.1287083E+00
         -1   -1    0    0    0  501 -0.00000000000E+00  0.00000000000E+00  0.33588233743E+02  0.33588233743E+02  0.00000000000E+00 0.  1.
          1   -1    0    0  501    0  0.00000000000E+00 -0.00000000000E+00 -0.40117888072E+03  0.40117888072E+03  0.00000000000E+00 0. -1.
         25    2    1    2    0    0 -0.41515596713E+02  0.92247253432E+01 -0.19660580753E+03  0.23687554290E+03  0.12509012329E+03 0.  0.
          5    1    3    3  502    0 -0.66549957360E+02  0.15820810483E+02 -0.42688383135E+02  0.80740109757E+02  0.41800000000E+01 0. -1.
         -5    1    3    3    0  502  0.25034360646E+02 -0.65960851398E+01 -0.15391742439E+03  0.15613543315E+03  0.41800000000E+01 0. -1.
        -11    1    1    2    0    0  0.63717492602E+02 -0.28238637862E+02 -0.13067089469E+03  0.14809531475E+03  0.00000000000E+00 0.  1.
         11    1    1    2    0    0 -0.22201895888E+02  0.19013912518E+02 -0.40313944762E+02  0.49796256813E+02  0.00000000000E+00 0. -1.
</event>
<event>
 7    1  0.3021577E-009  0.1218992E+03  0.7561462E-02  0.1239996E+00
          2   -1    0    0  501    0  0.00000000000E+00  0.00000000000E+00  0.63926747067E+03  0.63926747067E+03  0.00000000000E+00 0. -1.
         -2   -1    0    0    0  501 -0.00000000000E+00 -0.00000000000E+00 -0.32430463428E+02  0.32430463428E+02  0.00000000000E+00 0.  1.
         25    2    1    2    0    0  0.19672860868E+02  0.92310420928E+02  0.31035470727E+03  0.34767094957E+03  0.12508720792E+03 0.  0.
          5    1    3    3  502    0  0.37324377914E+02 -0.90924025786E+01  0.29788692909E+02  0.48791593503E+02  0.41800000000E+01 0. -1.
         -5    1    3    3    0  502 -0.17651517046E+02  0.10140282351E+03  0.28056601436E+03  0.29887935607E+03  0.41800000000E+01 0. -1.
        -11    1    1    2    0    0 -0.30138203532E+02 -0.48509578496E+02  0.58249357251E+02  0.81574984757E+02  0.00000000000E+00 0.  1.
         11    1    1    2    0    0  0.10465342663E+02 -0.43800842432E+02  0.23823294272E+03  0.24245199976E+03  0.00000000000E+00 0. -1.
</event>
<event>
 7    1  0.2690635E-009  0.1077290E+03  0.7561462E-02  0.1264834E+00
          2   -1    0    0  501    0  0.00000000000E+00  0.00000000000E+00  0.10220920761E+03  0.10220920761E+03  0.00000000000E+00 0. -1.
         -2   -1    0    0    0  501 -0.00000000000E+00 -0.00000000000E+00 -0.11594676634E+03  0.11594676634E+03  0.00000000000E+00 0.  1.
         25    2    1    2    0    0 -0.13573845389E+02 -0.66951966257E+01 -0.86900315363E+01  0.12630157575E+03  0.12508995345E+03 0.  0.
          5    1    3    3  502    0 -0.51151350723E+02 -0.47080391884E+02  0.31900477162E+01  0.69718525409E+02  0.41800000000E+01 0. -1.
         -5    1    3    3    0  502  0.37577505334E+02  0.40385195258E+02 -0.11880079253E+02  0.56583050344E+02  0.41800000000E+01 0. -1.
        -11    1    1    2    0    0 -0.38049860305E+02 -0.21680908431E+01  0.52537453728E+01  0.38471994068E+02  0.00000000000E+00 0.  1.
         11    1    1    2    0    0  0.51623705693E+02  0.88632874688E+01 -0.10301272559E+02  0.53382404129E+02  0.00000000000E+00 0. -1.
</event>
<event>
 7    1  0.2690635E-009  0.1212568E+03  0.7561462E-02  0.1241038E+00
          1   -1    0    0  501    0  0.00000000000E+00  0.00000000000E+00  0.22468572940E+03  0.22468572940E+03  0.00000000000E+00 0. -1.
         -1   -1    0    0    0  501 -0.00000000000E+00 -0.00000000000E+00 -0.94175873568E+02  0.94175873568E+02  0.00000000000E+00 0.  1.
         25    2    1    2    0    0 -0.38227560894E+02 -0.70526505577E+02  0.12380940772E+02  0.14911786694E+03  0.12509003216E+03 0.  0.
          5    1    3    3  502    0  0.41820212907E+02 -0.50332789944E+02  0.10695209718E+02  0.66439294563E+02  0.41800000000E+01 0. -1.
         -5    1    3    3    0  502 -0.80047773801E+02 -0.20193715632E+02  0.16857310537E+01  0.82678572379E+02  0.41800000000E+01 0. -1.
        -11    1    1    2    0    0  0.42993112524E+02  0.27601303614E+02  0.11570976262E+03  0.12648710943E+03  0.00000000000E+00 0. -1.
         11    1    1    2    0    0 -0.47655516304E+01  0.42925201963E+02  0.24191524378E+01  0.43256626595E+02  0.00000000000E+00 0.  1.
</event>
<event>
 7    1  0.2690635E-009  0.9918701E+02  0.7561462E-02  0.1282015E+00
         -1   -1    0    0    0  501 -0.00000000000E+00  0.00000000000E+00  0.47515461373E+03  0.47515461373E+03  0.00000000000E+00 0.  1.
          1   -1    0    0  501    0  0.00000000000E+00 -0.00000000000E+00 -0.34475962864E+02  0.34475962864E+02  0.00000000000E+00 0. -1.
         25    2    1    2    0    0  0.18390304684E+02  0.62744001587E+02  0.28215908752E+03  0.31549328433E+03  0.12508896333E+03 0.  0.
          5    1    3    3  502    0 -0.21912193775E+01 -0.10214628006E+02  0.21143526973E+03  0.21173446993E+03  0.41800000000E+01 0. -1.
         -5    1    3    3    0  502  0.20581524062E+02  0.72958629593E+02  0.70723817787E+02  0.10375881441E+03  0.41800000000E+01 0. -1.
        -11    1    1    2    0    0  0.36527875116E+02 -0.29946548781E+02  0.79486530290E+02  0.92461829648E+02  0.00000000000E+00 0.  1.
         11    1    1    2    0    0 -0.54918179801E+02 -0.32797452806E+02  0.79033033053E+02  0.10167546261E+03  0.00000000000E+00 0. -1.
</event>
<event>
 7    1  0.2690635E-009  0.1644391E+03  0.7561462E-02  0.1183774E+00
          1   -1    0    0  501    0  0.00000000000E+00  0.00000000000E+00  0.19621475226E+04  0.19621475226E+04  0.00000000000E+00 0. -1.
         -1   -1    0    0    0  501 -0.00000000000E+00 -0.00000000000E+00 -0.23647085025E+02  0.23647085025E+02  0.00000000000E+00 0.  1.
         25    2    1    2    0    0  0.10164398573E+03 -0.12786852667E+03  0.14185628067E+04  0.14334045941E+04  0.12508570720E+03 0.  0.
          5    1    3    3  502    0  0.69596770294E+02 -0.70066505585E+02  0.12218917076E+04  0.12258832910E+04  0.41800000000E+01 0.  1.
         -5    1    3    3    0  502  0.32047215434E+02 -0.57802021083E+02  0.19667109910E+03  0.20752130319E+03  0.41800000000E+01 0.  1.
        -11    1    1    2    0    0 -0.65061932224E+02  0.72134139137E+02  0.16688812265E+03  0.19310109926E+03  0.00000000000E+00 0.  1.
         11    1    1    2    0    0 -0.36582053503E+02  0.55734387531E+02  0.35304950826E+03  0.35928891421E+03  0.00000000000E+00 0. -1.
</event>
<event>
 7    1  0.2690635E-009  0.1436767E+03  0.7561462E-02  0.1208466E+00
         -2   -1    0    0    0  501 -0.00000000000E+00  0.00000000000E+00  0.90639758796E+02  0.90639758796E+02  0.00000000000E+00 0.  1.
          2   -1    0    0  501    0  0.00000000000E+00 -0.00000000000E+00 -0.25441305191E+03  0.25441305191E+03  0.00000000000E+00 0. -1.
         25    2    1    2    0    0  0.75749472523E+02 -0.71641226775E+02 -0.65505591839E+02  0.17552414728E+03  0.12508915123E+03 0.  0.
          5    1    3    3  502    0  0.72283626946E+02 -0.98253675922E+02 -0.21673944272E+02  0.12395942811E+03  0.41800000000E+01 0. -1.
         -5    1    3    3    0  502  0.34658455770E+01  0.26612449147E+02 -0.43831647567E+02  0.51564719175E+02  0.41800000000E+01 0. -1.
        -11    1    1    2    0    0 -0.69116975523E+02  0.30002222897E+01 -0.49257282300E+02  0.84926070784E+02  0.00000000000E+00 0. -1.
         11    1    1    2    0    0 -0.66324970004E+01  0.68641004485E+02 -0.49010418979E+02  0.84602592642E+02  0.00000000000E+00 0.  1.
</event>
<event>
 7    1  0.2690635E-009  0.2681095E+03  0.7561462E-02  0.1102367E+00
         -1   -1    0    0    0  501 -0.00000000000E+00  0.00000000000E+00  0.69538571240E+02  0.69538571240E+02  0.00000000000E+00 0.  1.
          1   -1    0    0  501    0  0.00000000000E+00 -0.00000000000E+00 -0.11872849979E+04  0.11872849979E+04  0.00000000000E+00 0. -1.
         25    2    1    2    0    0 -0.11794517290E+03 -0.22179327345E+03 -0.76694414570E+03  0.81667176856E+03  0.12508451132E+03 0.  0.
          5    1    3    3  502    0 -0.11288580065E+03 -0.10510439264E+03 -0.53704126133E+03  0.55876732735E+03  0.41800000000E+01 0. -1.
         -5    1    3    3    0  502 -0.50593722494E+01 -0.11668888081E+03 -0.22990288437E+03  0.25790444121E+03  0.41800000000E+01 0. -1.
        -11    1    1    2    0    0  0.10846449388E+03  0.11591908178E+03 -0.22655151830E+03  0.27663580823E+03  0.00000000000E+00 0.  1.
         11    1    1    2    0    0  0.94806790212E+01  0.10587419167E+03 -0.12425076270E+03  0.16351599239E+03  0.00000000000E+00 0. -1.
</event>
<event>
 7    1  0.2690635E-009  0.1691666E+03  0.7561462E-02  0.1178720E+00
         -1   -1    0    0    0  501 -0.00000000000E+00  0.00000000000E+00  0.17992010890E+02  0.17992010890E+02  0.00000000000E+00 0.  1.
          1   -1    0    0  501    0  0.00000000000E+00 -0.00000000000E+00 -0.28003525767E+04  0.28003525767E+04  0.00000000000E+00 0. -1.
         25    2    1    2    0    0  0.13963157376E+03 -0.20941499007E+02 -0.22943345915E+04  0.23020761943E+04  0.12509222195E+03 0.  0.
          5    1    3    3  502    0  0.71712622745E+02  0.41406412188E+02 -0.15202256017E+04  0.15224849897E+04  0.41800000000E+01 0.  1.
         -5    1    3    3    0  502  0.67918951016E+02 -0.62347911195E+02 -0.77410898972E+03  0.77959120460E+03  0.41800000000E+01 0.  1.
        -11    1    1    2    0    0 -0.17012254366E+02 -0.26633230141E+02 -0.15544032854E+03  0.15862043211E+03  0.00000000000E+00 0.  1.
         11    1    1    2    0    0 -0.12261931939E+03  0.47574729148E+02 -0.33258564582E+03  0.35764796120E+03  0.00000000000E+00 0. -1.
</event>
<event>
 7    1  0.2690635E-009  0.1884978E+03  0.7561462E-02  0.1159823E+00
          1   -1    0    0  501    0  0.00000000000E+00  0.00000000000E+00  0.23789482868E+03  0.23789482868E+03  0.00000000000E+00 0. -1.
         -1   -1    0    0    0  501 -0.00000000000E+00 -0.00000000000E+00 -0.16721288596E+03  0.16721288596E+03  0.00000000000E+00 0.  1.
         25    2    1    2    0    0  0.11513329186E+03  0.12021949295E+03  0.15452054660E+02  0.20879439640E+03  0.12509169675E+03 0.  0.
          5    1    3    3  502    0  0.42126913645E+02 -0.18725913076E+02  0.22816823065E+02  0.51608298640E+02  0.41800000000E+01 0.  1.
         -5    1    3    3    0  502  0.73006378215E+02  0.13894540603E+03 -0.73647684048E+01  0.15718609776E+03  0.41800000000E+01 0.  1.
        -11    1    1    2    0    0 -0.83077394162E+02 -0.51190004796E+02 -0.72387225844E+01  0.97850238203E+02  0.00000000000E+00 0.  1.
         11    1    1    2    0    0 -0.32055897698E+02 -0.69029488157E+02  0.62468610646E+02  0.98463080027E+02  0.00000000000E+00 0. -1.
</event>
<event>
 7    1  0.2690635E-009  0.1062756E+03  0.7561462E-02  0.1267627E+00
          2   -1    0    0  501    0  0.00000000000E+00  0.00000000000E+00  0.56287051541E+03  0.56287051541E+03  0.00000000000E+00 0. -1.
         -2   -1    0    0    0  501 -0.00000000000E+00 -0.00000000000E+00 -0.23251143289E+02  0.23251143289E+02  0.00000000000E+00 0.  1.
         25    2    1    2    0    0  0.16971587010E+02 -0.39914213272E+02  0.31216063702E+03  0.33907722300E+03  0.12509164906E+03 0.  0.
          5    1    3    3  502    0 -0.52543815567E+02 -0.33000614648E+02  0.13702044692E+03  0.15047248385E+03  0.41800000000E+01 0.  1.
         -5    1    3    3    0  502  0.69515402577E+02 -0.69135986247E+01  0.17514019010E+03  0.18860473915E+03  0.41800000000E+01 0.  1.
        -11    1    1    2    0    0  0.32982286327E+01 -0.18373962302E+02  0.10369910314E+02  0.21354527452E+02  0.00000000000E+00 0.  1.
         11    1    1    2    0    0 -0.20269815643E+02  0.58288175574E+02  0.21708882478E+03  0.22568990825E+03  0.00000000000E+00 0. -1.
</event>
<event>
 7    1  0.2690635E-009  0.9077269E+02  0.7561462E-02  0.1300991E+00
         -1   -1    0    0    0  501 -0.00000000000E+00  0.00000000000E+00  0.13128946157E+02  0.13128946157E+02  0.00000000000E+00 0.  1.
          1   -1    0    0  501    0  0.00000000000E+00 -0.00000000000E+00 -0.16562932631E+04  0.16562932631E+04  0.00000000000E+00 0. -1.
         25    2    1    2    0    0  0.26225770453E+02  0.20474318203E-01 -0.14745002538E+04  0.14800299733E+04  0.12509968846E+03 0.  0.
          5    1    3    3  502    0  0.20687196768E+02  0.51613175008E+02 -0.11525591480E+04  0.11539072502E+04  0.41800000000E+01 0.  1.
         -5    1    3    3    0  502  0.55385736858E+01 -0.51592700690E+02 -0.32194110580E+03  0.32612272317E+03  0.41800000000E+01 0.  1.
        -11    1    1    2    0    0 -0.24522949373E+02  0.32748952711E+02 -0.13988838122E+03  0.14574850994E+03  0.00000000000E+00 0. -1.
         11    1    1    2    0    0 -0.17028210804E+01 -0.32769427029E+02 -0.28775681922E+02  0.43643725981E+02  0.00000000000E+00 0.  1.
</event>
<event>
 7    1  0.2690635E-009  0.1198477E+03  0.7561462E-02  0.1243348E+00
          2   -1    0    0  501    0  0.00000000000E+00  0.00000000000E+00  0.78095866615E+03  0.78095866615E+03  0.00000000000E+00 0.  1.
         -2   -1    0    0    0  501 -0.00000000000E+00 -0.00000000000E+00 -0.28057728116E+02  0.28057728116E+02  0.00000000000E+00 0. -1.
         25    2    1    2    0    0  0.97287360410E+02 -0.24149184319E+02  0.38344380362E+03  0.41560174217E+03  0.12509054303E+03 0.  0.
          5    1    3    3  502    0  0.75400248124E+02 -0.36754877743E+02  0.98220568744E+02  0.12923184971E+03  0.41800000000E+01 0.  1.
         -5    1    3    3    0  502  0.21887112286E+02  0.12605693424E+02  0.28522323488E+03  0.28636989246E+03  0.41800000000E+01 0.  1.
        -11    1    1    2    0    0 -0.10882876664E+03  0.34948442267E+02  0.35085367839E+03  0.36900324891E+03  0.00000000000E+00 0. -1.
         11    1    1    2    0    0  0.11541406226E+02 -0.10799257949E+02  0.18603456020E+02  0.24411403192E+02  0.00000000000E+00 0.  1.
</event>
<event>
 7    1  0.2690635E-009  0.1448832E+03  0.7561462E-02  0.1206905E+00
         -2   -1    0    0    0  501 -0.00000000000E+00  0.00000000000E+00  0.24091581669E+03  0.24091581669E+03  0.00000000000E+00 0. -1.
          2   -1    0    0  501    0  0.00000000000E+00 -0.00000000000E+00 -0.15627282631E+03  0.15627282631E+03  0.00000000000E+00 0.  1.
         25    2    1    2    0    0 -0.29411636609E+02  0.11187779497E+03 -0.68331669759E+02  0.18357132768E+03  0.12509008706E+03 0.  0.
          5    1    3    3  502    0  0.26431601859E+01  0.10800976917E+03 -0.93085571646E+02  0.14267267636E+03  0.41800000000E+01 0. -1.
         -5    1    3    3    0  502 -0.32054796795E+02  0.38680257974E+01  0.24753901887E+02  0.40898651319E+02  0.41800000000E+01 0. -1.
        -11    1    1    2    0    0  0.48881596640E+02 -0.16272564029E+02  0.54278895031E+02  0.74835855550E+02  0.00000000000E+00 0.  1.
         11    1    1    2    0    0 -0.19469960031E+02 -0.95605230938E+02  0.98695765109E+02  0.13878145977E+03  0.00000000000E+00 0. -1.
</event>
<event>
 7    1  0.2690635E-009  0.1236527E+03  0.7561462E-02  0.1237190E+00
         -1   -1    0    0    0  501 -0.00000000000E+00  0.00000000000E+00  0.23940290353E+02  0.23940290353E+02  0.00000000000E+00 0.  1.
          1   -1    0    0  501    0  0.00000000000E+00 -0.00000000000E+00 -0.80197815347E+03  0.80197815347E+03  0.00000000000E+00 0. -1.
         25    2    1    2    0    0  0.57528960844E+02  0.43274534686E+02 -0.28905523116E+03  0.32308270703E+03  0.12508893731E+03 0.  0.
          5    1    3    3  502    0  0.50709245618E+02  0.82154142400E+02 -0.14966702374E+03  0.17815280267E+03  0.41800000000E+01 0. -1.
         -5    1    3    3    0  502  0.68197152259E+01 -0.38879607714E+02 -0.13938820742E+03  0.14492990437E+03  0.41800000000E+01 0. -1.
        -11    1    1    2    0    0 -0.18792657051E+02 -0.64239133346E+02 -0.36906332138E+03  0.37508341125E+03  0.00000000000E+00 0.  1.
         11    1    1    2    0    0 -0.38736303792E+02  0.20964598660E+02 -0.11991931058E+03  0.12775232553E+03  0.00000000000E+00 0. -1.
</event>
<event>
 7    1  0.2690635E-009  0.1869240E+03  0.7561462E-02  0.1161265E+00
         -2   -1    0    0    0  501 -0.00000000000E+00  0.00000000000E+00  0.58239542033E+03  0.58239542033E+03  0.00000000000E+00 0.  1.
          2   -1    0    0  501    0  0.00000000000E+00 -0.00000000000E+00 -0.62788914167E+02  0.62788914167E+02  0.00000000000E+00 0. -1.
         25    2    1    2    0    0 -0.14847649046E+03 -0.46770263540E+02  0.24325492865E+03  0.31472896042E+03  0.12509449405E+03 0.  0.
          5    1    3    3  502    0 -0.16530201241E+03 -0.61919386687E+02  0.21171974600E+03  0.27568367561E+03  0.41800000000E+01 0.  1.
         -5    1    3    3    0  502  0.16825521944E+02  0.15149123147E+02  0.31535182653E+02  0.39045284809E+02  0.41800000000E+01 0.  1.
        -11    1    1    2    0    0  0.59601551428E+01  0.30197629181E+02  0.20071366783E+02  0.36746156561E+02  0.00000000000E+00 0. -1.
         11    1    1    2    0    0  0.14251633532E+03  0.16572634359E+02  0.25628021072E+03  0.29370921751E+03  0.00000000000E+00 0.  1.
</event>
<event>
 7    1  0.2690635E-009  0.1349636E+03  0.7561462E-02  0.1220271E+00
         -1   -1    0    0    0  501 -0.00000000000E+00  0.00000000000E+00  0.93880198934E+03  0.93880198934E+03  0.00000000000E+00 0.  1.
          1   -1    0    0  501    0  0.00000000000E+00 -0.00000000000E+00 -0.31309028034E+02  0.31309028034E+02  0.00000000000E+00 0. -1.
         25    2    1    2    0    0  0.76650982587E+02 -0.72653942669E+02  0.70777044663E+03  0.72645765467E+03  0.12509096845E+03 0.  0.
          5    1    3    3  502    0  0.91086786078E+02 -0.71719187761E+02  0.69993427588E+03  0.70948284506E+03  0.41800000000E+01 0. -1.
         -5    1    3    3    0  502 -0.14435803491E+02 -0.93475490714E+00  0.78361707581E+01  0.16974809611E+02  0.41800000000E+01 0. -1.
        -11    1    1    2    0    0  0.16791728825E+02 -0.48293752423E+01  0.17733386051E+02  0.24894939305E+02  0.00000000000E+00 0.  1.
         11    1    1    2    0    0 -0.93442711411E+02  0.77483317911E+02  0.18198912862E+03  0.21875842339E+03  0.00000000000E+00 0. -1.
</event>
<event>
 7    1  0.2690635E-009  0.1137483E+03  0.7561462E-02  0.1253782E+00
          3   -1    0    0  501    0  0.00000000000E+00  0.00000000000E+00  0.39102374452E+03  0.39102374452E+03  0.00000000000E+00 0. -1.
         -3   -1    0    0    0  501 -0.00000000000E+00 -0.00000000000E+00 -0.37973018592E+02  0.37973018592E+02  0.00000000000E+00 0.  1.
         25    2    1    2    0    0  0.42483775791E+02 -0.36208704130E+02  0.20539922648E+03  0.24688561013E+03  0.12509085014E+03 0.  0.
          5    1    3    3  502    0 -0.94993452283E+01  0.32808435847E+02  0.12187025508E+03  0.12663515506E+03  0.41800000000E+01 0.  1.
         -5    1    3    3    0  502  0.51983121020E+02 -0.69017139977E+02  0.83528971395E+02  0.12025045507E+03  0.41800000000E+01 0.  1.
        -11    1    1    2    0    0 -0.36154740397E+02  0.66469109285E+02  0.10636436575E+03  0.13053231800E+03  0.00000000000E+00 0. -1.
         11    1    1    2    0    0 -0.63290353947E+01 -0.30260405155E+02  0.41287133706E+02  0.51578834989E+02  0.00000000000E+00 0.  1.
</event>
<event>
 7    1  0.2690635E-009  0.7690842E+02  0.7561462E-02  0.1338061E+00
         -2   -1    0    0    0  501 -0.00000000000E+00  0.00000000000E+00  0.19451284989E+02  0.19451284989E+02  0.00000000000E+00 0.  1.
          2   -1    0    0  501    0  0.00000000000E+00 -0.00000000000E+00 -0.74213315303E+03  0.74213315303E+03  0.00000000000E+00 0. -1.
         25    2    1    2    0    0  0.29874485257E+02  0.25996844051E+02 -0.53196499945E+03  0.54790754064E+03  0.12509033409E+03 0.  0.
          5    1    3    3  502    0 -0.24940518806E+02  0.28498212708E+02 -0.50259238417E+02  0.63068542492E+02  0.41800000000E+01 0.  1.
         -5    1    3    3    0  502  0.54815004062E+02 -0.25013686569E+01 -0.48170576104E+03  0.48483899815E+03  0.41800000000E+01 0.  1.
        -11    1    1    2    0    0 -0.18898318403E+01 -0.32006814862E+02 -0.18043794345E+03  0.18326445127E+03  0.00000000000E+00 0.  1.
         11    1    1    2    0    0 -0.27984653416E+02  0.60099708116E+01 -0.10278925136E+02  0.30412446103E+02  0.00000000000E+00 0. -1.
</event>
<event>
 7    1  0.2690635E-009  0.1120278E+03  0.7561462E-02  0.1256860E+00
         -1   -1    0    0    0  501 -0.00000000000E+00  0.00000000000E+00  0.20423731321E+02  0.20423731321E+02  0.00000000000E+00 0.  1.
          1   -1    0    0  501    0  0.00000000000E+00 -0.00000000000E+00 -0.80547806498E+03  0.80547806498E+03  0.00000000000E+00 0. -1.
         25    2    1    2    0    0 -0.43859695319E+02  0.46567981737E+02 -0.52077232867E+03  0.53939152039E+03  0.12508854528E+03 0.  0.
          5    1    3    3  502    0 -0.55941436827E+02 -0.17232674540E+02 -0.12241165899E+03  0.13575159698E+03  0.41800000000E+01 0. -1.
         -5    1    3    3    0  502  0.12081741508E+02  0.63800656277E+02 -0.39836066968E+03  0.40363992340E+03  0.41800000000E+01 0. -1.
        -11    1    1    2    0    0  0.56055467153E+02 -0.41986943201E+01 -0.85142875251E+02  0.10202525980E+03  0.00000000000E+00 0.  1.
         11    1    1    2    0    0 -0.12195771834E+02 -0.42369287417E+02 -0.17913912973E+03  0.18448501611E+03  0.00000000000E+00 0. -1.
</event>
<event>
 7    1  0.7473164E-009  0.1059037E+03  0.7561462E-02  0.1268349E+00
         -2   -1    0    0    0  501 -0.00000000000E+00  0.00000000000E+00  0.31134640489E+02  0.31134640489E+02  0.00000000000E+00 0.  1.
          2   -1    0    0  501    0  0.00000000000E+00 -0.00000000000E+00 -0.59640476699E+03  0.59640476699E+03  0.00000000000E+00 0. -1.
         25    2    1    2    0    0 -0.49659230281E+02  0.65482336960E+02 -0.29498335355E+03  0.33078229795E+03  0.12509106347E+03 0.  0.
          5    1    3    3  502    0  0.30581335471E+02  0.24101294212E+02 -0.18165460111E+03  0.18582776156E+03  0.41800000000E+01 0. -1.
         -5    1    3    3    0  502 -0.80240565752E+02  0.41381042747E+02 -0.11332875244E+03  0.14495453639E+03  0.41800000000E+01 0. -1.
        -11    1    1    2    0    0  0.35159201902E+02 -0.43479821408E+02 -0.26374391444E+03  0.26960622536E+03  0.00000000000E+00 0. -1.
         11    1    1    2    0    0  0.14500028379E+02 -0.22002515552E+02 -0.65428585115E+01  0.27150884168E+02  0.00000000000E+00 0.  1.
</event>
<event>
 7    1  0.2690635E-009  0.1133302E+03  0.7561462E-02  0.1254524E+00
         -4   -1    0    0    0  501 -0.00000000000E+00  0.00000000000E+00  0.26961537672E+03  0.26961537672E+03  0.00000000000E+00 0.  1.
          4   -1    0    0  501    0  0.00000000000E+00 -0.00000000000E+00 -0.13045622923E+03  0.13045622923E+03  0.00000000000E+00 0. -1.
         25    2    1    2    0    0 -0.67920043572E+01 -0.44284433427E+02 -0.81577226126E+02  0.15591438934E+03  0.12508881090E+03 0.  0.
          5    1    3    3  502    0  0.53545708651E+02 -0.25533247234E+02 -0.69465626478E+02  0.91444164884E+02  0.41800000000E+01 0.  1.
         -5    1    3    3    0  502 -0.60337713009E+02 -0.18751186193E+02 -0.12111599648E+02  0.64470224451E+02  0.41800000000E+01 0.  1.
        -11    1    1    2    0    0  0.47189551435E+02  0.42380347323E+02  0.14594585663E+03  0.15913246266E+03  0.00000000000E+00 0.  1.
         11    1    1    2    0    0 -0.40397547078E+02  0.19040861038E+01  0.74790516988E+02  0.85024753956E+02  0.00000000000E+00 0. -1.
</event>
<event>
 7    1  0.2690635E-009  0.2060660E+03  0.7561462E-02  0.1144720E+00
          2   -1    0    0  501    0  0.00000000000E+00  0.00000000000E+00  0.77489077543E+03  0.77489077543E+03  0.00000000000E+00 0. -1.
         -2   -1    0    0    0  501 -0.00000000000E+00 -0.00000000000E+00 -0.11619942414E+03  0.11619942414E+03  0.00000000000E+00 0.  1.
         25    2    1    2    0    0 -0.81719516362E+02  0.18412478861E+03  0.62729815982E+03  0.67061955026E+03  0.12509029836E+03 0.  0.
          5    1    3    3  502    0 -0.71503456318E+02  0.10601050676E+03  0.53068251476E+03  0.54588677918E+03  0.41800000000E+01 0. -1.
         -5    1    3    3    0  502 -0.10216060044E+02  0.78114281849E+02  0.96615645058E+02  0.12473277108E+03  0.41800000000E+01 0. -1.
        -11    1    1    2    0    0  0.13505131639E+02 -0.77893426449E+02  0.48988378236E+02  0.93003417501E+02  0.00000000000E+00 0. -1.
         11    1    1    2    0    0  0.68214384724E+02 -0.10623136216E+03 -0.17595186762E+02  0.12746723182E+03  0.00000000000E+00 0.  1.
</event>
<event>
 7    1  0.2690635E-009  0.8653559E+02  0.7561462E-02  0.1311465E+00
          1   -1    0    0  501    0  0.00000000000E+00  0.00000000000E+00  0.32974067870E+03  0.32974067870E+03  0.00000000000E+00 0. -1.
         -1   -1    0    0    0  501 -0.00000000000E+00 -0.00000000000E+00 -0.48826515832E+02  0.48826515832E+02  0.00000000000E+00 0.  1.
         25    2    1    2    0    0  0.18452961592E+02  0.30630931462E+02  0.23535410901E+03  0.26892078983E+03  0.12509224124E+03 0.  0.
          5    1    3    3  502    0  0.49476299929E+02  0.96435453769E+01  0.22388317207E+03  0.22952570523E+03  0.41800000000E+01 0.  1.
         -5    1    3    3    0  502 -0.31023338338E+02  0.20987386085E+02  0.11470936937E+02  0.39395084598E+02  0.41800000000E+01 0.  1.
        -11    1    1    2    0    0  0.23519419672E+02 -0.35462773732E+02 -0.60142267840E+01  0.42976067134E+02  0.00000000000E+00 0.  1.
         11    1    1    2    0    0 -0.41972381264E+02  0.48318422704E+01  0.51574280645E+02  0.66670337578E+02  0.00000000000E+00 0. -1.
</event>
<event>
 7    1  0.2690635E-009  0.1378862E+03  0.7561462E-02  0.1216202E+00
          2   -1    0    0  501    0  0.00000000000E+00  0.00000000000E+00  0.39036373995E+03  0.39036373995E+03  0.00000000000E+00 0. -1.
         -2   -1    0    0    0  501 -0.00000000000E+00 -0.00000000000E+00 -0.61337140789E+02  0.61337140789E+02  0.00000000000E+00 0.  1.
         25    2    1    2    0    0  0.10076704287E+03 -0.33501074086E+02  0.22288795407E+03  0.27677292063E+03  0.12509152902E+03 0.  0.
          5    1    3    3  502    0  0.69310436590E+02 -0.62847633992E+02  0.21264118819E+03  0.23235212294E+03  0.41800000000E+01 0.  1.
         -5    1    3    3    0  502  0.31456606276E+02  0.29346559906E+02  0.10246765880E+02  0.44420797693E+02  0.41800000000E+01 0.  1.
        -11    1    1    2    0    0 -0.11063582097E+03  0.48613718731E+02  0.89493944333E+02  0.15037534573E+03  0.00000000000E+00 0.  1.
         11    1    1    2    0    0  0.98687781072E+01 -0.15112644644E+02  0.16644700757E+02  0.24552614378E+02  0.00000000000E+00 0. -1.
</event>
<event>
 7    1  0.2690635E-009  0.5857017E+02  0.7561462E-02  0.1403932E+00
         -1   -1    0    0    0  501 -0.00000000000E+00  0.00000000000E+00  0.22066650109E+03  0.22066650109E+03  0.00000000000E+00 0.  1.
          1   -1    0    0  501    0  0.00000000000E+00 -0.00000000000E+00 -0.59853073953E+02  0.59853073953E+02  0.00000000000E+00 0. -1.
         25    2    1    2    0    0 -0.41094361864E+01 -0.83658605863E+01  0.47648875799E+02  0.13418397450E+03  0.12509216026E+03 0.  0.
          5    1    3    3  502    0  0.59586955648E+01 -0.22320081692E+02  0.87489906452E+02  0.90585033149E+02  0.41800000000E+01 0. -1.
         -5    1    3    3    0  502 -0.10068131751E+02  0.13954221106E+02 -0.39841030653E+02  0.43598941353E+02  0.41800000000E+01 0. -1.
        -11    1    1    2    0    0  0.25183407662E+01 -0.33733016694E+02  0.94285579833E+02  0.10017000060E+03  0.00000000000E+00 0.  1.
         11    1    1    2    0    0  0.15910954202E+01  0.42098877281E+02  0.18878971505E+02  0.46165599942E+02  0.00000000000E+00 0. -1.
</event>
<event>
 7    1  0.2690635E-009  0.7239394E+02  0.7561462E-02  0.1352136E+00
          1   -1    0    0  501    0  0.00000000000E+00  0.00000000000E+00  0.10123497652E+04  0.10123497652E+04  0.00000000000E+00 0. -1.
         -1   -1    0    0    0  501 -0.00000000000E+00 -0.00000000000E+00 -0.13101566941E+02  0.13101566941E+02  0.00000000000E+00 0.  1.
         25    2    1    2    0    0 -0.20110891483E+02  0.31068217691E+02  0.60262109440E+03  0.61657835219E+03  0.12508796455E+03 0.  0.
          5    1    3    3  502    0 -0.18387506922E+02  0.54620538330E+01  0.76977116117E+01  0.21087000899E+02  0.41800000000E+01 0.  1.
         -5    1    3    3    0  502 -0.17233845618E+01  0.25606163858E+02  0.59492338278E+03  0.59549135129E+03  0.41800000000E+01 0.  1.
        -11    1    1    2    0    0 -0.56629139869E+01 -0.60080386793E+02  0.22978345007E+03  0.23757557829E+03  0.00000000000E+00 0. -1.
         11    1    1    2    0    0  0.25773805470E+02  0.29012169102E+02  0.16684365374E+03  0.17129740161E+03  0.00000000000E+00 0.  1.
</event>
<event>
 7    1  0.2690635E-009  0.1389997E+03  0.7561462E-02  0.1214681E+00
          4   -1    0    0  501    0  0.00000000000E+00  0.00000000000E+00  0.90716803505E+03  0.90716803505E+03  0.00000000000E+00 0. -1.
         -4   -1    0    0    0  501 -0.00000000000E+00 -0.00000000000E+00 -0.37500545142E+02  0.37500545142E+02  0.00000000000E+00 0.  1.
         25    2    1    2    0    0 -0.74935230341E+02 -0.51326021116E+02  0.15759054894E+03  0.22075585820E+03  0.12509483852E+03 0.  0.
          5    1    3    3  502    0  0.31265631495E+02 -0.53197350018E+01  0.10764824569E+02  0.33751935370E+02  0.41800000000E+01 0. -1.
         -5    1    3    3    0  502 -0.10620086184E+03 -0.46006286114E+02  0.14682572437E+03  0.18700392283E+03  0.41800000000E+01 0. -1.
        -11    1    1    2    0    0  0.67434982673E+02 -0.10211799779E+02  0.35441494969E+03  0.36091787751E+03  0.00000000000E+00 0. -1.
         11    1    1    2    0    0  0.75002476675E+01  0.61537820895E+02  0.35766199128E+03  0.36299484448E+03  0.00000000000E+00 0.  1.
</event>
<event>
 7    1  0.2690635E-009  0.1430106E+03  0.7561462E-02  0.1209334E+00
          1   -1    0    0  501    0  0.00000000000E+00  0.00000000000E+00  0.16266905781E+03  0.16266905781E+03  0.00000000000E+00 0. -1.
         -1   -1    0    0    0  501 -0.00000000000E+00 -0.00000000000E+00 -0.14065861028E+03  0.14065861028E+03  0.00000000000E+00 0.  1.
         25    2    1    2    0    0 -0.94426977703E+02  0.38647099589E+02  0.27422865319E+01  0.16144372356E+03  0.12508598369E+03 0.  0.
          5    1    3    3  502    0 -0.11873010767E+03  0.44141179316E+02 -0.18945569854E+02  0.12814713885E+03  0.41800000000E+01 0.  1.
         -5    1    3    3    0  502  0.24303129969E+02 -0.54940797271E+01  0.21687856386E+02  0.33296584704E+02  0.41800000000E+01 0.  1.
        -11    1    1    2    0    0  0.86935730856E+02  0.75073377534E+01 -0.82176823054E+01  0.87645374790E+02  0.00000000000E+00 0.  1.
         11    1    1    2    0    0  0.74912468471E+01 -0.46154437343E+02  0.27485843297E+02  0.54238569740E+02  0.00000000000E+00 0. -1.
</event>
<event>
 7    1  0.2690635E-009  0.1258998E+03  0.7561462E-02  0.1233670E+00
         -2   -1    0    0    0  501 -0.00000000000E+00  0.00000000000E+00  0.19362832983E+02  0.19362832983E+02  0.00000000000E+00 0.  1.
          2   -1    0    0  501    0  0.00000000000E+00 -0.00000000000E+00 -0.96487661978E+03  0.96487661978E+03  0.00000000000E+00 0. -1.
         25    2    1    2    0    0 -0.84173940613E+02  0.13452475178E+02 -0.55086594764E+03  0.57128358834E+03  0.12508167201E+03 0.  0.
          5    1    3    3  502    0 -0.46481257716E+02  0.59462741133E+02 -0.17371289344E+03  0.18944647436E+03  0.41800000000E+01 0. -1.
         -5    1    3    3    0  502 -0.37692682897E+02 -0.46010265955E+02 -0.37715305420E+03  0.38183711397E+03  0.41800000000E+01 0. -1.
        -11    1    1    2    0    0  0.26711916336E+02  0.33169591970E+02 -0.20513068295E+03  0.20950500088E+03  0.00000000000E+00 0. -1.
         11    1    1    2    0    0  0.57462024277E+02 -0.46622067148E+02 -0.18951715621E+03  0.20345086355E+03  0.00000000000E+00 0.  1.
</event>
<event>
 7    1  0.2690635E-009  0.1162856E+03  0.7561462E-02  0.1249354E+00
         -2   -1    0    0    0  501 -0.00000000000E+00  0.00000000000E+00  0.19758530352E+02  0.19758530352E+02  0.00000000000E+00 0.  1.
          2   -1    0    0  501    0  0.00000000000E+00 -0.00000000000E+00 -0.16787469167E+04  0.16787469167E+04  0.00000000000E+00 0. -1.
         25    2    1    2    0    0  0.13795358492E+02 -0.72424280722E+02 -0.14643711628E+04  0.14715520272E+04  0.12508748162E+03 0.  0.
          5    1    3    3  502    0  0.50628685435E+02 -0.11457290962E+02 -0.10336350332E+04  0.10349460795E+04  0.41800000000E+01 0. -1.
         -5    1    3    3    0  502 -0.36833326944E+02 -0.60966989760E+02 -0.43073612960E+03  0.43660594769E+03  0.41800000000E+01 0. -1.
        -11    1    1    2    0    0  0.24960643748E+02 -0.21963709533E+01 -0.16543572132E+02  0.30025781598E+02  0.00000000000E+00 0.  1.
         11    1    1    2    0    0 -0.38756002240E+02  0.74620651675E+02 -0.17807365140E+03  0.19692763821E+03  0.00000000000E+00 0. -1.
</event>
<event>
 7    1  0.2690635E-009  0.8084905E+02  0.7561462E-02  0.1326659E+00
         -1   -1    0    0    0  501 -0.00000000000E+00  0.00000000000E+00  0.10104409649E+03  0.10104409649E+03  0.00000000000E+00 0.  1.
          1   -1    0    0  501    0  0.00000000000E+00 -0.00000000000E+00 -0.13479184250E+03  0.13479184250E+03  0.00000000000E+00 0. -1.
         25    2    1    2    0    0  0.27510217618E+01  0.12387502373E+02  0.25208565905E+02  0.12823362711E+03  0.12508945995E+03 0.  0.
          5    1    3    3  502    0 -0.31433829261E+02 -0.70587814300E+01  0.64665353935E+02  0.72367067211E+02  0.41800000000E+01 0. -1.
         -5    1    3    3    0  502  0.34184851023E+02  0.19446283803E+02 -0.39456788030E+02  0.55866559898E+02  0.41800000000E+01 0. -1.
        -11    1    1    2    0    0 -0.45741760814E+02 -0.81473548757E+01 -0.25789607923E+02  0.53139363476E+02  0.00000000000E+00 0.  1.
         11    1    1    2    0    0  0.42990739052E+02 -0.42401474977E+01 -0.33166703991E+02  0.54462948402E+02  0.00000000000E+00 0. -1.
</event>
<event>
 7    1  0.2690635E-009  0.7471546E+02  0.7561462E-02  0.1344754E+00
          2   -1    0    0  501    0  0.00000000000E+00  0.00000000000E+00  0.72828896146E+03  0.72828896146E+03  0.00000000000E+00 0. -1.
         -2   -1    0    0    0  501 -0.00000000000E+00 -0.00000000000E+00 -0.18401516707E+02  0.18401516707E+02  0.00000000000E+00 0.  1.
         25    2    1    2    0    0  0.23331509573E+02 -0.28729393754E+02  0.43794118897E+03  0.45695747668E+03  0.12509161877E+03 0.  0.
          5    1    3    3  502    0  0.34388115755E+02 -0.50724300258E+02  0.42386647331E+03  0.42829400736E+03  0.41800000000E+01 0.  1.
         -5    1    3    3    0  502 -0.11056606181E+02  0.21994906504E+02  0.14074715663E+02  0.28663469318E+02  0.41800000000E+01 0.  1.
        -11    1    1    2    0    0 -0.34214706810E+02  0.36219696864E+02  0.27199535908E+03  0.27652122516E+03  0.00000000000E+00 0. -1.
         11    1    1    2    0    0  0.10883197236E+02 -0.74903031099E+01 -0.49103296769E-01  0.13211776334E+02  0.00000000000E+00 0.  1.
</event>
<event>
 7    1  0.2690635E-009  0.1086000E+03  0.7561462E-02  0.1263185E+00
          2   -1    0    0  501    0  0.00000000000E+00  0.00000000000E+00  0.80583494799E+03  0.80583494799E+03  0.00000000000E+00 0. -1.
         -2   -1    0    0    0  501 -0.00000000000E+00 -0.00000000000E+00 -0.24297895303E+02  0.24297895303E+02  0.00000000000E+00 0.  1.
         25    2    1    2    0    0  0.58689318246E+02  0.65344029782E+01  0.23293245652E+03  0.27090625588E+03  0.12508211574E+03 0.  0.
          5    1    3    3  502    0  0.83130433876E+02  0.11843615750E+02  0.80567026895E+02  0.11644508789E+03  0.41800000000E+01 0. -1.
         -5    1    3    3    0  502 -0.24441115630E+02 -0.53092127719E+01  0.15236542962E+03  0.15446116799E+03  0.41800000000E+01 0. -1.
        -11    1    1    2    0    0 -0.53788244587E+02  0.36147404377E+02  0.36044567076E+03  0.36622519257E+03  0.00000000000E+00 0.  1.
         11    1    1    2    0    0 -0.49010736598E+01 -0.42681807355E+02  0.18815892540E+03  0.19300139484E+03  0.00000000000E+00 0. -1.
</event>
<event>
 7    1  0.2690635E-009  0.1143547E+03  0.7561462E-02  0.1252712E+00
         -2   -1    0    0    0  501 -0.00000000000E+00  0.00000000000E+00  0.14677304910E+03  0.14677304910E+03  0.00000000000E+00 0.  1.
          2   -1    0    0  501    0  0.00000000000E+00 -0.00000000000E+00 -0.11204187766E+03  0.11204187766E+03  0.00000000000E+00 0. -1.
         25    2    1    2    0    0 -0.24470239754E+01  0.69256170503E+02  0.26395508047E+02  0.14542114793E+03  0.12509269499E+03 0.  0.
          5    1    3    3  502    0  0.41136619590E+02  0.56512095786E+02 -0.27138146548E+02  0.75098534203E+02  0.41800000000E+01 0. -1.
         -5    1    3    3    0  502 -0.43583643566E+02  0.12744074717E+02  0.53533654595E+02  0.70322613725E+02  0.41800000000E+01 0. -1.
        -11    1    1    2    0    0 -0.37694475982E+02 -0.61603212285E+02  0.50178447336E+01  0.72394806783E+02  0.00000000000E+00 0.  1.
         11    1    1    2    0    0  0.40141499958E+02 -0.76529582181E+01  0.33178186630E+01  0.40998972048E+02  0.00000000000E+00 0. -1.
</event>
<event>
 7    1  0.2690635E-009  0.1593584E+03  0.7561462E-02  0.1189423E+00
         -2   -1    0    0    0  501 -0.00000000000E+00  0.00000000000E+00  0.54960079237E+02  0.54960079237E+02  0.00000000000E+00 0.  1.
          2   -1    0    0  501    0  0.00000000000E+00 -0.00000000000E+00 -0.56067368777E+03  0.56067368777E+03  0.00000000000E+00 0. -1.
         25    2    1    2    0    0  0.10688762119E+03  0.79049662677E+02 -0.33236529445E+03  0.37919440812E+03  0.12509155629E+03 0.  0.
          5    1    3    3  502    0  0.11613607412E+03  0.28487160501E+02 -0.28530245492E+03  0.30937690477E+03  0.41800000000E+01 0.  1.
         -5    1    3    3    0  502 -0.92484529253E+01  0.50562502177E+02 -0.47062839534E+02  0.69817503341E+02  0.41800000000E+01 0.  1.
        -11    1    1    2    0    0 -0.11059970223E+03 -0.55667841774E+02 -0.17302214361E+03  0.21276246126E+03  0.00000000000E+00 0. -1.
         11    1    1    2    0    0  0.37120810397E+01 -0.23381820903E+02 -0.32617047171E+00  0.23676897634E+02  0.00000000000E+00 0.  1.
</event>
<event>
 7    1  0.2690635E-009  0.1142646E+03  0.7561462E-02  0.1252870E+00
         -1   -1    0    0    0  501 -0.00000000000E+00  0.00000000000E+00  0.25539236396E+03  0.25539236396E+03  0.00000000000E+00 0.  1.
          1   -1    0    0  501    0  0.00000000000E+00 -0.00000000000E+00 -0.92705260367E+02  0.92705260367E+02  0.00000000000E+00 0. -1.
         25    2    1    2    0    0 -0.39111952172E+02  0.10274098998E+03  0.91911157743E+02  0.19021237560E+03  0.12509049160E+03 0.  0.
          5    1    3    3  502    0 -0.31162546113E+01  0.68633028561E+02  0.11603103013E+03  0.13491062229E+03  0.41800000000E+01 0. -1.
         -5    1    3    3    0  502 -0.35995697561E+02  0.34107961420E+02 -0.24119872391E+02  0.55301753311E+02  0.41800000000E+01 0. -1.
        -11    1    1    2    0    0  0.32836058080E+02 -0.86282464009E+02  0.79777515771E+01  0.92663449244E+02  0.00000000000E+00 0. -1.
         11    1    1    2    0    0  0.62758940915E+01 -0.16458525973E+02  0.62798194277E+02  0.65221799487E+02  0.00000000000E+00 0.  1.
</event>
<event>
 7    1  0.2690635E-009  0.2537974E+03  0.7561462E-02  0.1110928E+00
         -2   -1    0    0    0  501 -0.00000000000E+00  0.00000000000E+00  0.21664859708E+03  0.21664859708E+03  0.00000000000E+00 0.  1.
          2   -1    0    0  501    0  0.00000000000E+00 -0.00000000000E+00 -0.79702307044E+03  0.79702307044E+03  0.00000000000E+00 0. -1.
         25    2    1    2    0    0 -0.24577812184E+03 -0.21423908778E+02  0.91809712571E+02  0.29144815385E+03  0.12508850475E+03 0.  0.
          5    1    3    3  502    0 -0.11442823541E+03 -0.34681193082E+02  0.10437163985E+03  0.15876875579E+03  0.41800000000E+01 0. -1.
         -5    1    3    3    0  502 -0.13134988643E+03  0.13257284303E+02 -0.12561927276E+02  0.13267939806E+03  0.41800000000E+01 0. -1.
        -11    1    1    2    0    0  0.60375862475E+02  0.35319211937E+02 -0.27375358976E+03  0.28254861424E+03  0.00000000000E+00 0. -1.
         11    1    1    2    0    0  0.18540225936E+03 -0.13895303159E+02 -0.39843059616E+03  0.43967489942E+03  0.00000000000E+00 0.  1.
</event>
<event>
 7    1  0.2690635E-009  0.6752856E+02  0.7561462E-02  0.1368705E+00
          2   -1    0    0  501    0  0.00000000000E+00  0.00000000000E+00  0.48460619462E+03  0.48460619462E+03  0.00000000000E+00 0. -1.
         -2   -1    0    0    0  501 -0.00000000000E+00 -0.00000000000E+00 -0.28220705493E+02  0.28220705493E+02  0.00000000000E+00 0.  1.
         25    2    1    2    0    0 -0.19955157244E+02  0.32053675944E+02  0.30788733704E+03  0.33446394868E+03  0.12508346899E+03 0.  0.
          5    1    3    3  502    0 -0.24315518948E+02  0.40188527937E+02  0.31720954983E+03  0.32069570179E+03  0.41800000000E+01 0. -1.
         -5    1    3    3    0  502  0.43603617037E+01 -0.81348519938E+01 -0.93222127919E+01  0.13768246892E+02  0.41800000000E+01 0. -1.
        -11    1    1    2    0    0 -0.85953636894E+01 -0.45431944060E+02  0.13734445577E+03  0.14491874050E+03  0.00000000000E+00 0. -1.
         11    1    1    2    0    0  0.28550520934E+02  0.13378268117E+02  0.11153696316E+02  0.33444210933E+02  0.00000000000E+00 0.  1.
</event>
<event>
 7    1  0.4824633E-009  0.1576999E+03  0.7561462E-02  0.1191318E+00
         -1   -1    0    0    0  501 -0.00000000000E+00  0.00000000000E+00  0.18626022899E+03  0.18626022899E+03  0.00000000000E+00 0.  1.
          1   -1    0    0  501    0  0.00000000000E+00 -0.00000000000E+00 -0.16615905296E+03  0.16615905296E+03  0.00000000000E+00 0. -1.
         25    2    1    2    0    0  0.10207985866E+03  0.92617756833E+02  0.15538407920E+02  0.18678025887E+03  0.12508827507E+03 0.  0.
          5    1    3    3  502    0 -0.11209743326E+02  0.55414111381E+02  0.33910490105E+02  0.66058881497E+02  0.41800000000E+01 0.  1.
         -5    1    3    3    0  502  0.11328960198E+03  0.37203645452E+02 -0.18372082185E+02  0.12072137738E+03  0.41800000000E+01 0.  1.
        -11    1    1    2    0    0 -0.59512163739E+02 -0.67414094580E+02  0.46092039313E+02  0.10104867079E+03  0.00000000000E+00 0.  1.
         11    1    1    2    0    0 -0.42567694916E+02 -0.25203662253E+02 -0.41529271199E+02  0.64590352281E+02  0.00000000000E+00 0. -1.
</event>
<event>
 7    1  0.2690635E-009  0.9569596E+02  0.7561462E-02  0.1289616E+00
         -2   -1    0    0    0  501 -0.00000000000E+00  0.00000000000E+00  0.14129936629E+03  0.14129936629E+03  0.00000000000E+00 0.  1.
          2   -1    0    0  501    0  0.00000000000E+00 -0.00000000000E+00 -0.93543997803E+02  0.93543997803E+02  0.00000000000E+00 0. -1.
         25    2    1    2    0    0  0.29707709296E+02 -0.18393843596E+02  0.13344254413E+02  0.13054552388E+03  0.12507271168E+03 0.  0.
          5    1    3    3  502    0  0.23971757887E+02 -0.71652547462E+02  0.23824791375E+01  0.75709189276E+02  0.41800000000E+01 0.  1.
         -5    1    3    3    0  502  0.57359514091E+01  0.53258703866E+02  0.10961775275E+02  0.54836334608E+02  0.41800000000E+01 0.  1.
        -11    1    1    2    0    0 -0.69517462501E+01 -0.17872106798E+02 -0.24725045195E+02  0.31290043739E+02  0.00000000000E+00 0. -1.
         11    1    1    2    0    0 -0.22755963046E+02  0.36265950394E+02  0.59136159272E+02  0.73007796471E+02  0.00000000000E+00 0.  1.
</event>
<event>
 7    1  0.2690635E-009  0.1474428E+03  0.7561462E-02  0.1203651E+00
         -1   -1    0    0    0  501 -0.00000000000E+00  0.00000000000E+00  0.22254447293E+03  0.22254447293E+03  0.00000000000E+00 0.  1.
          1   -1    0    0  501    0  0.00000000000E+00 -0.00000000000E+00 -0.11616373735E+03  0.11616373735E+03  0.00000000000E+00 0. -1.
         25    2    1    2    0    0 -0.10795568656E+03  0.45185272302E+02  0.79606557565E+02  0.18889381602E+03  0.12509009005E+03 0.  0.
          5    1    3    3  502    0 -0.12707796808E+03  0.62218866740E+02  0.51474013174E+02  0.15062218888E+03  0.41800000000E+01 0. -1.
         -5    1    3    3    0  502  0.19122281520E+02 -0.17033594439E+02  0.28132544391E+02  0.38271627140E+02  0.41800000000E+01 0. -1.
        -11    1    1    2    0    0  0.94068609016E+02 -0.56271511475E+02  0.50075102142E+02  0.12051100390E+03  0.00000000000E+00 0.  1.
         11    1    1    2    0    0  0.13887077545E+02  0.11086239173E+02 -0.23300924129E+02  0.29303390367E+02  0.00000000000E+00 0. -1.
</event>
<event>
 7    1  0.2690635E-009  0.1478556E+03  0.7561462E-02  0.1203133E+00
         -1   -1    0    0    0  501 -0.00000000000E+00  0.00000000000E+00  0.32008403393E+02  0.32008403393E+02  0.00000000000E+00 0.  1.
          1   -1    0    0  501    0  0.00000000000E+00 -0.00000000000E+00 -0.12023337507E+04  0.12023337507E+04  0.00000000000E+00 0. -1.
         25    2    1    2    0    0 -0.11982184159E+03  0.36716311425E+02 -0.91860336481E+03  0.93551352665E+03  0.12509218785E+03 0.  0.
          5    1    3    3  502    0 -0.13136619620E+03 -0.20459503944E+00 -0.79906948463E+03  0.80980654049E+03  0.41800000000E+01 0.  1.
         -5    1    3    3    0  502  0.11544354607E+02  0.36920906465E+02 -0.11953388018E+03  0.12570698616E+03  0.41800000000E+01 0.  1.
        -11    1    1    2    0    0  0.67135654606E+02 -0.18758805160E+02 -0.40982306954E+02  0.80861847454E+02  0.00000000000E+00 0.  1.
         11    1    1    2    0    0  0.52686186988E+02 -0.17957506265E+02 -0.21073967555E+03  0.21796678000E+03  0.00000000000E+00 0. -1.
</event>
<event>
 7    1  0.2690635E-009  0.2590726E+03  0.7561462E-02  0.1107702E+00
         -2   -1    0    0    0  501 -0.00000000000E+00  0.00000000000E+00  0.10073119195E+03  0.10073119195E+03  0.00000000000E+00 0. -1.
          2   -1    0    0  501    0  0.00000000000E+00 -0.00000000000E+00 -0.77813772270E+03  0.77813772270E+03  0.00000000000E+00 0.  1.
         25    2    1    2    0    0 -0.22269847614E+03  0.12573033099E+03 -0.27718534746E+03  0.39734445447E+03  0.12509265063E+03 0.  0.
          5    1    3    3  502    0 -0.24247821700E+02 -0.34448486405E+01  0.85021898870E+01  0.26259921406E+02  0.41800000000E+01 0. -1.
         -5    1    3    3    0  502 -0.19845065444E+03  0.12917517963E+03 -0.28568753735E+03  0.37108453307E+03  0.41800000000E+01 0. -1.
        -11    1    1    2    0    0  0.19287787266E+03 -0.10093624335E+03 -0.37962494885E+03  0.43761295773E+03  0.00000000000E+00 0.  1.
         11    1    1    2    0    0  0.29820603485E+02 -0.24794087649E+02 -0.20596234445E+02  0.43911502455E+02  0.00000000000E+00 0. -1.
</event>
<event>
 7    1  0.2690635E-009  0.1204647E+03  0.7561462E-02  0.1242332E+00
          2   -1    0    0  501    0  0.00000000000E+00  0.00000000000E+00  0.29598595402E+03  0.29598595402E+03  0.00000000000E+00 0. -1.
         -2   -1    0    0    0  501 -0.00000000000E+00 -0.00000000000E+00 -0.56252917092E+02  0.56252917092E+02  0.00000000000E+00 0.  1.
         25    2    1    2    0    0 -0.45186164623E+02 -0.32956520375E+02  0.19176739603E+03  0.23569147627E+03  0.12509123110E+03 0.  0.
          5    1    3    3  502    0 -0.27014939201E+02  0.46785188486E+02  0.90166744464E+02  0.10519588875E+03  0.41800000000E+01 0.  1.
         -5    1    3    3    0  502 -0.18171225422E+02 -0.79741708861E+02  0.10160065156E+03  0.13049558752E+03  0.41800000000E+01 0.  1.
        -11    1    1    2    0    0  0.70770931196E+02  0.12005003290E+02  0.23927337271E+02  0.75664802089E+02  0.00000000000E+00 0.  1.
         11    1    1    2    0    0 -0.25584766573E+02  0.20951517085E+02  0.24038303631E+02  0.40882592753E+02  0.00000000000E+00 0. -1.
</event>
<event>
 7    1  0.2690635E-009  0.1094539E+03  0.7561462E-02  0.1261585E+00
          3   -1    0    0  501    0  0.00000000000E+00  0.00000000000E+00  0.12234118322E+03  0.12234118322E+03  0.00000000000E+00 0. -1.
         -3   -1    0    0    0  501 -0.00000000000E+00 -0.00000000000E+00 -0.21182465146E+03  0.21182465146E+03  0.00000000000E+00 0.  1.
         25    2    1    2    0    0  0.44632897880E+01 -0.13818787789E+02 -0.16656143250E+03  0.20880920622E+03  0.12509074288E+03 0.  0.
          5    1    3    3  502    0 -0.55222303935E+02  0.97127472601E+01 -0.47957810407E+02  0.73900367322E+02  0.41800000000E+01 0. -1.
         -5    1    3    3    0  502  0.59685593723E+02 -0.23531535049E+02 -0.11860362209E+03  0.13490883890E+03  0.41800000000E+01 0. -1.
        -11    1    1    2    0    0 -0.43585887008E+02 -0.18785386946E+02  0.31089755563E+02  0.56737934488E+02  0.00000000000E+00 0.  1.
         11    1    1    2    0    0  0.39122597220E+02  0.32604174736E+02  0.45988208691E+02  0.68618693969E+02  0.00000000000E+00 0. -1.
</event>
<event>
 7    1  0.2690635E-009  0.9958277E+02  0.7561462E-02  0.1281176E+00
         -1   -1    0    0    0  501 -0.00000000000E+00  0.00000000000E+00  0.25514619531E+02  0.25514619531E+02  0.00000000000E+00 0.  1.
          1   -1    0    0  501    0  0.00000000000E+00 -0.00000000000E+00 -0.52377360993E+03  0.52377360993E+03  0.00000000000E+00 0. -1.
         25    2    1    2    0    0  0.24255456258E+02 -0.35550613255E+01 -0.36099349535E+03  0.38283820217E+03  0.12509124564E+03 0.  0.
          5    1    3    3  502    0 -0.41575204013E+02  0.74131753838E+01 -0.54175606117E+02  0.68818031475E+02  0.41800000000E+01 0.  1.
         -5    1    3    3    0  502  0.65830660271E+02 -0.10968236709E+02 -0.30681788923E+03  0.31402017069E+03  0.41800000000E+01 0.  1.
        -11    1    1    2    0    0 -0.27909063822E+02 -0.38552121238E+02 -0.97132320365E+02  0.10816593528E+03  0.00000000000E+00 0. -1.
         11    1    1    2    0    0  0.36536075632E+01  0.42107182563E+02 -0.40133174686E+02  0.58284092015E+02  0.00000000000E+00 0.  1.
</event>
<event>
 7    1  0.2690635E-009  0.1864513E+03  0.7561462E-02  0.1161701E+00
         -2   -1    0    0    0  501 -0.00000000000E+00  0.00000000000E+00  0.46583024659E+02  0.46583024659E+02  0.00000000000E+00 0.  1.
          2   -1    0    0  501    0  0.00000000000E+00 -0.00000000000E+00 -0.10516652595E+04  0.10516652595E+04  0.00000000000E+00 0. -1.
         25    2    1    2    0    0 -0.16742630853E+03 -0.43148655821E+02 -0.73144146154E+03  0.76193629294E+03  0.12508767945E+03 0.  0.
          5    1    3    3  502    0 -0.94250972714E+02 -0.46136207887E+02 -0.61788981375E+03  0.62675121849E+03  0.41800000000E+01 0. -1.
         -5    1    3    3    0  502 -0.73175335817E+02  0.29875520660E+01 -0.11355164779E+03  0.13518507445E+03  0.41800000000E+01 0. -1.
        -11    1    1    2    0    0  0.82227690622E+02  0.66983055271E+02 -0.13224121360E+03  0.16951655191E+03  0.00000000000E+00 0.  1.
         11    1    1    2    0    0  0.85198617909E+02 -0.23834399450E+02 -0.14139955972E+03  0.16679543932E+03  0.00000000000E+00 0. -1.
</event>
<event>
 7    1  0.2690635E-009  0.7518727E+02  0.7561462E-02  0.1343292E+00
         -1   -1    0    0    0  501 -0.00000000000E+00  0.00000000000E+00  0.68125098996E+02  0.68125098996E+02  0.00000000000E+00 0.  1.
          1   -1    0    0  501    0  0.00000000000E+00 -0.00000000000E+00 -0.17187310911E+03  0.17187310911E+03  0.00000000000E+00 0. -1.
         25    2    1    2    0    0 -0.33643637730E+01 -0.15725187483E+02 -0.66740331016E+02  0.14269958206E+03  0.12510115296E+03 0.  0.
          5    1    3    3  502    0 -0.31690067339E+02 -0.38520824020E+02  0.15733209068E+02  0.52470186952E+02  0.41800000000E+01 0. -1.
         -5    1    3    3    0  502  0.28325703566E+02  0.22795636537E+02 -0.82473540084E+02  0.90229395109E+02  0.41800000000E+01 0. -1.
        -11    1    1    2    0    0  0.13479386560E+02  0.37425077711E+02  0.13005245509E+02  0.41850528245E+02  0.00000000000E+00 0.  1.
         11    1    1    2    0    0 -0.10115022787E+02 -0.21699890227E+02 -0.50012924608E+02  0.55448097800E+02  0.00000000000E+00 0. -1.
</event>
<event>
 7    1  0.2690635E-009  0.1566825E+03  0.7561462E-02  0.1192494E+00
         -1   -1    0    0    0  501 -0.00000000000E+00  0.00000000000E+00  0.18492068474E+03  0.18492068474E+03  0.00000000000E+00 0.  1.
          1   -1    0    0  501    0  0.00000000000E+00 -0.00000000000E+00 -0.16103247706E+03  0.16103247706E+03  0.00000000000E+00 0. -1.
         25    2    1    2    0    0  0.84332697494E+02 -0.10247077008E+03  0.28124834648E+02  0.18452919558E+03  0.12509098733E+03 0.  0.
          5    1    3    3  502    0  0.18591148102E+02 -0.97099522085E+02  0.54966927555E+02  0.11319356652E+03  0.41800000000E+01 0.  1.
         -5    1    3    3    0  502  0.65741549392E+02 -0.53712479905E+01 -0.26842092907E+02  0.71335629058E+02  0.41800000000E+01 0.  1.
        -11    1    1    2    0    0  0.40739452308E+01  0.39669443509E+02 -0.30072887334E+02  0.49946374549E+02  0.00000000000E+00 0.  1.
         11    1    1    2    0    0 -0.88406642724E+02  0.62801326567E+02  0.25836260370E+02  0.11147759168E+03  0.00000000000E+00 0. -1.
</event>
<event>
 7    1  0.2690635E-009  0.9776434E+02  0.7561462E-02  0.1285069E+00
          1   -1    0    0  501    0  0.00000000000E+00  0.00000000000E+00  0.15754000153E+03  0.15754000153E+03  0.00000000000E+00 0. -1.
         -1   -1    0    0    0  501 -0.00000000000E+00 -0.00000000000E+00 -0.11267313462E+03  0.11267313462E+03  0.00000000000E+00 0.  1.
         25    2    1    2    0    0  0.59093534605E+02  0.17094122812E+01 -0.28909642541E+02  0.14134510607E+03  0.12509078166E+03 0.  0.
          5    1    3    3  502    0  0.36342371987E+02  0.59401230039E+02  0.60633910545E+01  0.70025075815E+02  0.41800000000E+01 0.  1.
         -5    1    3    3    0  502  0.22751162618E+02 -0.57691817758E+02 -0.34973033596E+02  0.71320030255E+02  0.41800000000E+01 0.  1.
        -11    1    1    2    0    0 -0.36149563284E+02 -0.12507483568E+02  0.90662827976E+02  0.98402116072E+02  0.00000000000E+00 0. -1.
         11    1    1    2    0    0 -0.22943971321E+02  0.10798071287E+02 -0.16886318519E+02  0.30465914013E+02  0.00000000000E+00 0.  1.
</event>
<event>
 7    1  0.2690635E-009  0.7763400E+02  0.7561462E-02  0.1335903E+00
          2   -1    0    0  501    0  0.00000000000E+00  0.00000000000E+00  0.33328744206E+03  0.33328744206E+03  0.00000000000E+00 0. -1.
         -2   -1    0    0    0  501 -0.00000000000E+00 -0.00000000000E+00 -0.39150459523E+02  0.39150459523E+02  0.00000000000E+00 0.  1.
         25    2    1    2    0    0 -0.36719746668E+02  0.20328519824E+02  0.15754971348E+03  0.20550274887E+03  0.12509148277E+03 0.  0.
          5    1    3    3  502    0 -0.17327799440E+02  0.38716603541E+02  0.17033333514E+03  0.17558515166E+03  0.41800000000E+01 0. -1.
         -5    1    3    3    0  502 -0.19391947228E+02 -0.18388083717E+02 -0.12783621663E+02  0.29917597211E+02  0.41800000000E+01 0. -1.
        -11    1    1    2    0    0 -0.16747282165E+02  0.14193528902E+02  0.75841469209E+02  0.78954772968E+02  0.00000000000E+00 0.  1.
         11    1    1    2    0    0  0.53467028834E+02 -0.34522048726E+02  0.60745799851E+02  0.87980379745E+02  0.00000000000E+00 0. -1.
</event>
<event>
 7    1  0.2690635E-009  0.2330973E+03  0.7561462E-02  0.1124479E+00
          1   -1    0    0  501    0  0.00000000000E+00  0.00000000000E+00  0.21720161965E+03  0.21720161965E+03  0.00000000000E+00 0. -1.
         -1   -1    0    0    0  501 -0.00000000000E+00 -0.00000000000E+00 -0.30545403742E+03  0.30545403742E+03  0.00000000000E+00 0.  1.
         25    2    1    2    0    0 -0.91319619980E+02 -0.21201299221E+03 -0.18225810592E+02  0.26318718874E+03  0.12508610748E+03 0.  0.
          5    1    3    3  502    0 -0.91368760960E+02 -0.19169603855E+03  0.26345062129E+02  0.21402606471E+03  0.41800000000E+01 0. -1.
         -5    1    3    3    0  502  0.49140979728E-01 -0.20316953665E+02 -0.44570872721E+02  0.49161124033E+02  0.41800000000E+01 0. -1.
        -11    1    1    2    0    0  0.21976684118E+02  0.90663750221E+02 -0.74873693821E+02  0.11962006636E+03  0.00000000000E+00 0.  1.
         11    1    1    2    0    0  0.69342935862E+02  0.12134924199E+03  0.48470866427E+01  0.13984840198E+03  0.00000000000E+00 0. -1.
</event>
<event>
 7    1  0.2690635E-009  0.1187595E+03  0.7561462E-02  0.1245158E+00
          4   -1    0    0  501    0  0.00000000000E+00  0.00000000000E+00  0.62224458948E+02  0.62224458948E+02  0.00000000000E+00 0. -1.
         -4   -1    0    0    0  501 -0.00000000000E+00 -0.00000000000E+00 -0.31339646006E+03  0.31339646006E+03  0.00000000000E+00 0.  1.
         25    2    1    2    0    0  0.19294122358E+02 -0.84225335069E+02 -0.15401094251E+03  0.21640883906E+03  0.12508894829E+03 0.  0.
          5    1    3    3  502    0  0.52020079401E+02 -0.83014778878E+02 -0.15496323860E+03  0.18338107833E+03  0.41800000000E+01 0.  1.
         -5    1    3    3    0  502 -0.32725957043E+02 -0.12105561908E+01  0.95229608630E+00  0.33027760725E+02  0.41800000000E+01 0.  1.
        -11    1    1    2    0    0  0.21091943189E+02  0.47033848994E+02 -0.90173896836E+02  0.10386714923E+03  0.00000000000E+00 0.  1.
         11    1    1    2    0    0 -0.40386065547E+02  0.37191486075E+02 -0.69871617617E+01  0.55344930719E+02  0.00000000000E+00 0. -1.
</event>
<event>
 7    1  0.2690635E-009  0.1564616E+03  0.7561462E-02  0.1192750E+00
         -2   -1    0    0    0  501 -0.00000000000E+00  0.00000000000E+00  0.58773879196E+02  0.58773879196E+02  0.00000000000E+00 0.  1.
          2   -1    0    0  501    0  0.00000000000E+00 -0.00000000000E+00 -0.48980270578E+03  0.48980270578E+03  0.00000000000E+00 0. -1.
         25    2    1    2    0    0  0.21755512161E+02 -0.12778294079E+03 -0.22769363696E+03  0.29033328746E+03  0.12508894126E+03 0.  0.
          5    1    3    3  502    0 -0.50888719129E+02 -0.36112273433E+02 -0.90383211871E+02  0.10991067016E+03  0.41800000000E+01 0. -1.
         -5    1    3    3    0  502  0.72644231290E+02 -0.91670667359E+02 -0.13731042509E+03  0.18042261730E+03  0.41800000000E+01 0. -1.
        -11    1    1    2    0    0 -0.17490771275E+02  0.25214006679E+02 -0.25155133821E+00  0.30687725408E+02  0.00000000000E+00 0.  1.
         11    1    1    2    0    0 -0.42647408858E+01  0.10256893411E+03 -0.20308363828E+03  0.22755557211E+03  0.00000000000E+00 0. -1.
</event>
<event>
 7    1  0.2690635E-009  0.1492028E+03  0.7561462E-02  0.1201456E+00
         -2   -1    0    0    0  501 -0.00000000000E+00  0.00000000000E+00  0.36054092602E+02  0.36054092602E+02  0.00000000000E+00 0.  1.
          2   -1    0    0  501    0  0.00000000000E+00 -0.00000000000E+00 -0.92095139941E+03  0.92095139941E+03  0.00000000000E+00 0. -1.
         25    2    1    2    0    0  0.88805039341E+02 -0.92674687287E+02 -0.28390728708E+03  0.33574213074E+03  0.12507796778E+03 0.  0.
          5    1    3    3  502    0  0.36567805683E+02 -0.78613840354E+02 -0.26407139557E+03  0.27797214729E+03  0.41800000000E+01 0. -1.
         -5    1    3    3    0  502  0.52237233658E+02 -0.14060846933E+02 -0.19835891507E+02  0.57769983457E+02  0.41800000000E+01 0. -1.
        -11    1    1    2    0    0 -0.14953778148E+02  0.81250278620E+02 -0.30633062773E+03  0.31727539574E+03  0.00000000000E+00 0.  1.
         11    1    1    2    0    0 -0.73851261193E+02  0.11424408667E+02 -0.29465939200E+03  0.30398796553E+03  0.00000000000E+00 0. -1.
</event>
<event>
 7    1  0.2690635E-009  0.1331294E+03  0.7561462E-02  0.1222885E+00
         -1   -1    0    0    0  501 -0.00000000000E+00  0.00000000000E+00  0.44995138862E+03  0.44995138862E+03  0.00000000000E+00 0.  1.
          1   -1    0    0  501    0  0.00000000000E+00 -0.00000000000E+00 -0.46087601793E+02  0.46087601793E+02  0.00000000000E+00 0. -1.
         25    2    1    2    0    0 -0.34495537033E+02  0.79284743050E+02  0.15037992425E+03  0.21386305619E+03  0.12508905880E+03 0.  0.
          5    1    3    3  502    0  0.35110893456E+02  0.74033195519E+02  0.84852942730E+02  0.11803043323E+03  0.41800000000E+01 0. -1.
         -5    1    3    3    0  502 -0.69606430489E+02  0.52515475314E+01  0.65526981521E+02  0.95832622964E+02  0.41800000000E+01 0. -1.
        -11    1    1    2    0    0 -0.83655825480E+01 -0.69913618852E+02  0.20515932312E+03  0.21690607400E+03  0.00000000000E+00 0.  1.
         11    1    1    2    0    0  0.42861119581E+02 -0.93711241984E+01  0.48324539457E+02  0.65269860228E+02  0.00000000000E+00 0. -1.
</event>
<event>
 7    1  0.2690635E-009  0.1808792E+03  0.7561462E-02  0.1166955E+00
          2   -1    0    0  501    0  0.00000000000E+00  0.00000000000E+00  0.36774665609E+03  0.36774665609E+03  0.00000000000E+00 0. -1.
         -2   -1    0    0    0  501 -0.00000000000E+00 -0.00000000000E+00 -0.10519826040E+03  0.10519826040E+03  0.00000000000E+00 0.  1.
         25    2    1    2    0    0 -0.12607084285E+03  0.76822942551E+02  0.53011143157E+02  0.20064440107E+03  0.12510944195E+03 0.  0.
          5    1    3    3  502    0 -0.13378826581E+03  0.19677398947E+02  0.31135492079E+02  0.13882864029E+03  0.41800000000E+01 0. -1.
         -5    1    3    3    0  502  0.77174229633E+01  0.57145543604E+02  0.21875651078E+02  0.61815760782E+02  0.41800000000E+01 0. -1.
        -11    1    1    2    0    0  0.13434337019E+03 -0.54737326590E+02  0.15198833435E+03  0.21010656775E+03  0.00000000000E+00 0.  1.
         11    1    1    2    0    0 -0.82725273378E+01 -0.22085615961E+02  0.57548918191E+02  0.62193947663E+02  0.00000000000E+00 0. -1.
</event>
<event>
 7    1  0.2690635E-009  0.2643933E+03  0.7561462E-02  0.1104532E+00
          2   -1    0    0  501    0  0.00000000000E+00  0.00000000000E+00  0.55582633689E+03  0.55582633689E+03  0.00000000000E+00 0. -1.
         -2   -1    0    0    0  501 -0.00000000000E+00 -0.00000000000E+00 -0.27253680807E+03  0.27253680807E+03  0.00000000000E+00 0.  1.
         25    2    1    2    0    0 -0.16316404216E+03  0.19764306509E+03 -0.14580907661E+03  0.32030266651E+03  0.12509286757E+03 0.  0.
          5    1    3    3  502    0 -0.13466389635E+02  0.74309434346E+02  0.31599261746E+01  0.75701342234E+02  0.41800000000E+01 0.  1.
         -5    1    3    3    0  502 -0.14969765253E+03  0.12333363075E+03 -0.14896900279E+03  0.24460132427E+03  0.41800000000E+01 0.  1.
        -11    1    1    2    0    0  0.12188209191E+02 -0.35791693758E+02  0.19636562678E+02  0.42605074570E+02  0.00000000000E+00 0. -1.
         11    1    1    2    0    0  0.15097583297E+03 -0.16185137133E+03  0.40946204276E+03  0.46545540388E+03  0.00000000000E+00 0.  1.
</event>
<event>
 7    1  0.2690635E-009  0.1386237E+03  0.7561462E-02  0.1215193E+00
          2   -1    0    0  501    0  0.00000000000E+00  0.00000000000E+00  0.20923929823E+02  0.20923929823E+02  0.00000000000E+00 0. -1.
         -2   -1    0    0    0  501 -0.00000000000E+00 -0.00000000000E+00 -0.95130532071E+03  0.95130532071E+03  0.00000000000E+00 0.  1.
         25    2    1    2    0    0 -0.35519018331E+02  0.80666373929E+02 -0.57041014993E+03  0.59057930400E+03  0.12509001008E+03 0.  0.
          5    1    3    3  502    0  0.35214400937E+02 -0.10165341302E+02 -0.16811818071E+03  0.17211793422E+03  0.41800000000E+01 0. -1.
         -5    1    3    3    0  502 -0.70733419267E+02  0.90831715230E+02 -0.40229196922E+03  0.41846136977E+03  0.41800000000E+01 0. -1.
        -11    1    1    2    0    0 -0.51721873649E+01 -0.84157812481E+02 -0.26963267739E+03  0.28250853021E+03  0.00000000000E+00 0.  1.
         11    1    1    2    0    0  0.40691205696E+02  0.34914385520E+01 -0.90338563577E+02  0.99141416337E+02  0.00000000000E+00 0. -1.
</event>
<event>
 7    1  0.2690635E-009  0.5131417E+02  0.7561462E-02  0.1438379E+00
          1   -1    0    0  501    0  0.00000000000E+00  0.00000000000E+00  0.23707872589E+03  0.23707872589E+03  0.00000000000E+00 0. -1.
         -1   -1    0    0    0  501 -0.00000000000E+00 -0.00000000000E+00 -0.68385481945E+02  0.68385481945E+02  0.00000000000E+00 0.  1.
         25    2    1    2    0    0 -0.31800142978E+02 -0.21035583445E+02  0.15790924915E+03  0.20502838049E+03  0.12509021136E+03 0.  0.
          5    1    3    3  502    0 -0.11852523501E+02  0.68736521821E+01 -0.19549444197E+02  0.24235976896E+02  0.41800000000E+01 0.  1.
         -5    1    3    3    0  502 -0.19947619476E+02 -0.27909235627E+02  0.17745869334E+03  0.18079240360E+03  0.41800000000E+01 0.  1.
        -11    1    1    2    0    0  0.11368789636E+02  0.29511089608E+02 -0.36463188596E+02  0.48267151462E+02  0.00000000000E+00 0.  1.
         11    1    1    2    0    0  0.20431353342E+02 -0.84755061634E+01  0.47247183393E+02  0.52168675876E+02  0.00000000000E+00 0. -1.
</event>
<event>
 7    1  0.2690635E-009  0.1006910E+03  0.7561462E-02  0.1278850E+00
          1   -1    0    0  501    0  0.00000000000E+00  0.00000000000E+00  0.47583808424E+02  0.47583808424E+02  0.00000000000E+00 0. -1.
         -1   -1    0    0    0  501 -0.00000000000E+00 -0.00000000000E+00 -0.33142672974E+03  0.33142672974E+03  0.00000000000E+00 0.  1.
         25    2    1    2    0    0  0.55585559476E+02  0.31531945481E+01 -0.10970858054E+03  0.17545912305E+03  0.12510089591E+03 0.  0.
          5    1    3    3  502    0  0.75286985837E+02  0.46515091882E+02 -0.78446890618E+02  0.11833499506E+03  0.41800000000E+01 0.  1.
         -5    1    3    3    0  502 -0.19701426362E+02 -0.43361897334E+02 -0.31261689924E+02  0.57124127984E+02  0.41800000000E+01 0.  1.
        -11    1    1    2    0    0 -0.43813835273E+02  0.12338878910E+02 -0.17798818941E+03  0.18371634566E+03  0.00000000000E+00 0.  1.
         11    1    1    2    0    0 -0.11771724203E+02 -0.15492073458E+02  0.38538486382E+01  0.19835069450E+02  0.00000000000E+00 0. -1.
</event>
<event>
 7    1  0.2690635E-009  0.1191433E+03  0.7561462E-02  0.1244517E+00
         -1   -1    0    0    0  501 -0.00000000000E+00  0.00000000000E+00  0.32303212107E+03  0.32303212107E+03  0.00000000000E+00 0.  1.
          1   -1    0    0  501    0  0.00000000000E+00 -0.00000000000E+00 -0.62687737749E+02  0.62687737749E+02  0.00000000000E+00 0. -1.
         25    2    1    2    0    0  0.88303520837E+02 -0.10064636975E+02  0.16746685780E+03  0.22713673303E+03  0.12508852193E+03 0.  0.
          5    1    3    3  502    0  0.61737009722E+02  0.52224127117E+02  0.63094628101E+02  0.10265097329E+03  0.41800000000E+01 0. -1.
         -5    1    3    3    0  502  0.26566511115E+02 -0.62288764092E+02  0.10437222970E+03  0.12448575974E+03  0.41800000000E+01 0. -1.
        -11    1    1    2    0    0 -0.63840974829E+02  0.11889512436E+02  0.11064502929E+03  0.12829401030E+03  0.00000000000E+00 0.  1.
         11    1    1    2    0    0 -0.24462546008E+02 -0.18248754607E+01 -0.17767503761E+02  0.30289115496E+02  0.00000000000E+00 0. -1.
</event>
<event>
 7    1  0.2690635E-009  0.1363864E+03  0.7561462E-02  0.1218276E+00
         -4   -1    0    0    0  501 -0.00000000000E+00  0.00000000000E+00  0.11629375465E+04  0.11629375465E+04  0.00000000000E+00 0. -1.
          4   -1    0    0  501    0  0.00000000000E+00 -0.00000000000E+00 -0.17979512724E+02  0.17979512724E+02  0.00000000000E+00 0.  1.
         25    2    1    2    0    0 -0.92494866879E+02  0.82564768120E+01  0.55173363993E+03  0.57330508354E+03  0.12508093208E+03 0.  0.
          5    1    3    3  502    0 -0.45833186299E+01 -0.40764280405E+02  0.70787263602E+02  0.81920952478E+02  0.41800000000E+01 0. -1.
         -5    1    3    3    0  502 -0.87911548250E+02  0.49020757217E+02  0.48094637633E+03  0.49138413106E+03  0.41800000000E+01 0. -1.
        -11    1    1    2    0    0  0.35237386282E+02  0.41851396094E+02  0.27827807488E+03  0.28360518279E+03  0.00000000000E+00 0.  1.
         11    1    1    2    0    0  0.57257480597E+02 -0.50107872906E+02  0.31494631894E+03  0.32400679287E+03  0.00000000000E+00 0. -1.
</event>
<event>
 7    1  0.2690635E-009  0.1244243E+03  0.7561462E-02  0.1235972E+00
          1   -1    0    0  501    0  0.00000000000E+00  0.00000000000E+00  0.92219011877E+03  0.92219011877E+03  0.00000000000E+00 0. -1.
         -1   -1    0    0    0  501 -0.00000000000E+00 -0.00000000000E+00 -0.19794203598E+02  0.19794203598E+02  0.00000000000E+00 0.  1.
         25    2    1    2    0    0 -0.45198728875E+02  0.55582533228E+02  0.61528885515E+03  0.63194754810E+03  0.12507991520E+03 0.  0.
          5    1    3    3  502    0  0.72049087157E+01 -0.36864925301E+02  0.16128450380E+03  0.16565354507E+03  0.41800000000E+01 0. -1.
         -5    1    3    3    0  502 -0.52403637591E+02  0.92447458528E+02  0.45400435135E+03  0.46629400303E+03  0.41800000000E+01 0. -1.
        -11    1    1    2    0    0  0.63986549086E+02 -0.57228955940E+02  0.27383349663E+03  0.28697424229E+03  0.00000000000E+00 0. -1.
         11    1    1    2    0    0 -0.18787820210E+02  0.16464227128E+01  0.13273563393E+02  0.23062531976E+02  0.00000000000E+00 0.  1.
</event>
<event>
 7    1  0.2690635E-009  0.1094302E+03  0.7561462E-02  0.1261629E+00
         -1   -1    0    0    0  501 -0.00000000000E+00  0.00000000000E+00  0.11570336063E+02  0.11570336063E+02  0.00000000000E+00 0.  1.
          1   -1    0    0  501    0  0.00000000000E+00 -0.00000000000E+00 -0.14083244267E+04  0.14083244267E+04  0.00000000000E+00 0. -1.
         25    2    1    2    0    0 -0.54361718108E+01  0.52635441407E+02 -0.96635199096E+03  0.97585020973E+03  0.12508964689E+03 0.  0.
          5    1    3    3  502    0  0.46081844057E+02  0.31680528595E+02 -0.76086324251E+03  0.76292695486E+03  0.41800000000E+01 0. -1.
         -5    1    3    3    0  502 -0.51518015868E+02  0.20954912812E+02 -0.20548874845E+03  0.21292325488E+03  0.41800000000E+01 0. -1.
        -11    1    1    2    0    0  0.43795278252E+02 -0.24778711630E+01 -0.13421616321E+03  0.14120249541E+03  0.00000000000E+00 0.  1.
         11    1    1    2    0    0 -0.38359106442E+02 -0.50157570244E+02 -0.29618593644E+03  0.30284205759E+03  0.00000000000E+00 0. -1.
</event>
<event>
 7    1  0.2690635E-009  0.8854338E+02  0.7561462E-02  0.1306418E+00
         -2   -1    0    0    0  501 -0.00000000000E+00  0.00000000000E+00  0.74864826401E+02  0.74864826401E+02  0.00000000000E+00 0.  1.
          2   -1    0    0  501    0  0.00000000000E+00 -0.00000000000E+00 -0.16578623121E+03  0.16578623121E+03  0.00000000000E+00 0. -1.
         25    2    1    2    0    0 -0.37016379657E+00 -0.20301291916E+02 -0.71207408594E+02  0.14536960566E+03  0.12509815241E+03 0.  0.
          5    1    3    3  502    0 -0.28950948583E+02 -0.40257439754E+02  0.15257508271E+02  0.52048850497E+02  0.41800000000E+01 0.  1.
         -5    1    3    3    0  502  0.28580784787E+02  0.19956147838E+02 -0.86464916865E+02  0.93320755162E+02  0.41800000000E+01 0.  1.
        -11    1    1    2    0    0 -0.37737057057E+02  0.34906827819E+02 -0.40392193641E+01  0.51564400480E+02  0.00000000000E+00 0.  1.
         11    1    1    2    0    0  0.38107220854E+02 -0.14605535903E+02 -0.15674776854E+02  0.43717051475E+02  0.00000000000E+00 0. -1.
</event>
<event>
 7    1  0.2690635E-009  0.1219141E+03  0.7561462E-02  0.1239972E+00
         -3   -1    0    0    0  501 -0.00000000000E+00  0.00000000000E+00  0.22606859216E+03  0.22606859216E+03  0.00000000000E+00 0.  1.
          3   -1    0    0  501    0  0.00000000000E+00 -0.00000000000E+00 -0.97130396231E+02  0.97130396231E+02  0.00000000000E+00 0. -1.
         25    2    1    2    0    0  0.78339750018E+02  0.57441484007E+02  0.40544512611E+02  0.16348570305E+03  0.12508827716E+03 0.  0.
          5    1    3    3  502    0  0.20740365461E+02 -0.14582164841E+02  0.63375570532E+02  0.68386677293E+02  0.41800000000E+01 0. -1.
         -5    1    3    3    0  502  0.57599384557E+02  0.72023648848E+02 -0.22831057921E+02  0.95099025760E+02  0.41800000000E+01 0. -1.
        -11    1    1    2    0    0 -0.46971306136E+02 -0.76017400007E+02  0.84612149100E+02  0.12306162879E+03  0.00000000000E+00 0.  1.
         11    1    1    2    0    0 -0.31368443881E+02  0.18575916000E+02  0.37815342146E+01  0.36651656549E+02  0.00000000000E+00 0. -1.
</event>
<event>
 7    1  0.2690635E-009  0.1230305E+03  0.7561462E-02  0.1238180E+00
         -1   -1    0    0    0  501 -0.00000000000E+00  0.00000000000E+00  0.35949489341E+03  0.35949489341E+03  0.00000000000E+00 0.  1.
          1   -1    0    0  501    0  0.00000000000E+00 -0.00000000000E+00 -0.62785971377E+02  0.62785971377E+02  0.00000000000E+00 0. -1.
         25    2    1    2    0    0  0.75352913196E+02 -0.29784660102E+02  0.70150364641E+02  0.16472439010E+03  0.12509142069E+03 0.  0.
          5    1    3    3  502    0 -0.22119530454E+02  0.11497267751E+01  0.57297500804E+02  0.61571677723E+02  0.41800000000E+01 0. -1.
         -5    1    3    3    0  502  0.97472443651E+02 -0.30934386877E+02  0.12852863836E+02  0.10315271238E+03  0.41800000000E+01 0. -1.
        -11    1    1    2    0    0 -0.90711230199E+01 -0.30349832253E+02  0.77073422408E+02  0.83328926744E+02  0.00000000000E+00 0.  1.
         11    1    1    2    0    0 -0.66281790176E+02  0.60134492355E+02  0.14948513498E+03  0.17422754794E+03  0.00000000000E+00 0. -1.
</event>
<event>
 7    1  0.2690635E-009  0.1443424E+03  0.7561462E-02  0.1207603E+00
         -1   -1    0    0    0  501 -0.00000000000E+00  0.00000000000E+00  0.33686227460E+03  0.33686227460E+03  0.00000000000E+00 0.  1.
          1   -1    0    0  501    0  0.00000000000E+00 -0.00000000000E+00 -0.88329030403E+02  0.88329030403E+02  0.00000000000E+00 0. -1.
         25    2    1    2    0    0  0.11298519877E+03  0.62410672584E+02  0.17672420850E+03  0.25207172391E+03  0.12509181000E+03 0.  0.
          5    1    3    3  502    0  0.43981883394E+02  0.12293110966E+02 -0.98347592748E+01  0.46901189048E+02  0.41800000000E+01 0.  1.
         -5    1    3    3    0  502  0.69003315380E+02  0.50117561618E+02  0.18655896778E+03  0.20517053486E+03  0.41800000000E+01 0.  1.
        -11    1    1    2    0    0 -0.52457922427E+01 -0.48527890022E+02  0.24882000842E+02  0.54786753985E+02  0.00000000000E+00 0.  1.
         11    1    1    2    0    0 -0.10773940653E+03 -0.13882782561E+02  0.46927034847E+02  0.11833282711E+03  0.00000000000E+00 0. -1.
</event>
<event>
 7    1  0.2690635E-009  0.1047899E+03  0.7561462E-02  0.1270534E+00
         -2   -1    0    0    0  501 -0.00000000000E+00  0.00000000000E+00  0.93960679050E+02  0.93960679050E+02  0.00000000000E+00 0.  1.
          2   -1    0    0  501    0  0.00000000000E+00 -0.00000000000E+00 -0.14563312170E+03  0.14563312170E+03  0.00000000000E+00 0. -1.
         25    2    1    2    0    0 -0.41622664585E+02  0.89675531997E+01 -0.44521192731E+02  0.13943029091E+03  0.12508319713E+03 0.  0.
          5    1    3    3  502    0  0.43571659639E+02  0.14868401533E+01 -0.20334504939E+01  0.43844127751E+02  0.41800000000E+01 0.  1.
         -5    1    3    3    0  502 -0.85194324223E+02  0.74807130464E+01 -0.42487742237E+02  0.95586163161E+02  0.41800000000E+01 0.  1.
        -11    1    1    2    0    0  0.45418552886E+02  0.20938447158E+02  0.25150133768E+02  0.55980288890E+02  0.00000000000E+00 0.  1.
         11    1    1    2    0    0 -0.37958883016E+01 -0.29906000358E+02 -0.32301383691E+02  0.44183220953E+02  0.00000000000E+00 0. -1.
</event>
<event>
 7    1  0.2690635E-009  0.1186637E+03  0.7561462E-02  0.1245318E+00
         -4   -1    0    0    0  501 -0.00000000000E+00  0.00000000000E+00  0.12265053554E+03  0.12265053554E+03  0.00000000000E+00 0.  1.
          4   -1    0    0  501    0  0.00000000000E+00 -0.00000000000E+00 -0.14927751045E+03  0.14927751045E+03  0.00000000000E+00 0. -1.
         25    2    1    2    0    0 -0.74318467419E+02 -0.23897599367E+02 -0.33419555225E+02  0.15119010386E+03  0.12508897225E+03 0.  0.
          5    1    3    3  502    0 -0.62040090271E+02 -0.61078480487E+02  0.15355435997E+02  0.88503194259E+02  0.41800000000E+01 0.  1.
         -5    1    3    3    0  502 -0.12278377148E+02  0.37180881120E+02 -0.48774991222E+02  0.62686909598E+02  0.41800000000E+01 0.  1.
        -11    1    1    2    0    0  0.21362640260E+02  0.48049799349E+02  0.27019174328E+02  0.59120059182E+02  0.00000000000E+00 0.  1.
         11    1    1    2    0    0  0.52955827159E+02 -0.24152199981E+02 -0.20226594011E+02  0.61617882951E+02  0.00000000000E+00 0. -1.
</event>
<event>
 7    1  0.2690635E-009  0.1536769E+03  0.7561462E-02  0.1196026E+00
          2   -1    0    0  501    0  0.00000000000E+00  0.00000000000E+00  0.35222477544E+03  0.35222477544E+03  0.00000000000E+00 0. -1.
         -2   -1    0    0    0  501 -0.00000000000E+00 -0.00000000000E+00 -0.74703888951E+02  0.74703888951E+02  0.00000000000E+00 0.  1.
         25    2    1    2    0    0 -0.10934260104E+03  0.36022937522E+02  0.10478370479E+03  0.19969976477E+03  0.12508762860E+03 0.  0.
          5    1    3    3  502    0  0.13705481938E+02 -0.24925361375E+02  0.33780719403E+01  0.28948188974E+02  0.41800000000E+01 0. -1.
         -5    1    3    3    0  502 -0.12304808298E+03  0.60948298897E+02  0.10140563285E+03  0.17075157579E+03  0.41800000000E+01 0. -1.
        -11    1    1    2    0    0  0.12291467937E+03 -0.31111677524E+02  0.12777420105E+03  0.18000611472E+03  0.00000000000E+00 0.  1.
         11    1    1    2    0    0 -0.13572078330E+02 -0.49112599985E+01  0.44962980652E+02  0.47222784904E+02  0.00000000000E+00 0. -1.
</event>
<event>
 7    1  0.2690635E-009  0.1341550E+03  0.7561462E-02  0.1221417E+00
         -3   -1    0    0    0  501 -0.00000000000E+00  0.00000000000E+00  0.23157159876E+02  0.23157159876E+02  0.00000000000E+00 0.  1.
          3   -1    0    0  501    0  0.00000000000E+00 -0.00000000000E+00 -0.91740254805E+03  0.91740254805E+03  0.00000000000E+00 0. -1.
         25    2    1    2    0    0 -0.37303396517E+02 -0.77405867438E+02 -0.34744424838E+03  0.37913903605E+03  0.12508273750E+03 0.  0.
          5    1    3    3  502    0  0.12204568907E+01 -0.10313206146E+03 -0.26635062444E+03  0.28565335488E+03  0.41800000000E+01 0.  1.
         -5    1    3    3    0  502 -0.38523853407E+02  0.25726194019E+02 -0.81093623935E+02  0.93485681166E+02  0.41800000000E+01 0.  1.
        -11    1    1    2    0    0  0.29114204431E+02  0.94895857841E+02 -0.51279240255E+03  0.52231112265E+03  0.00000000000E+00 0. -1.
         11    1    1    2    0    0  0.81891920857E+01 -0.17489990403E+02 -0.34008737242E+02  0.39109549219E+02  0.00000000000E+00 0.  1.
</event>
<event>
 7    1  0.2690635E-009  0.1648004E+03  0.7561462E-02  0.1183381E+00
         -1   -1    0    0    0  501 -0.00000000000E+00  0.00000000000E+00  0.57433895249E+03  0.57433895249E+03  0.00000000000E+00 0.  1.
          1   -1    0    0  501    0  0.00000000000E+00 -0.00000000000E+00 -0.54040079899E+02  0.54040079899E+02  0.00000000000E+00 0. -1.
         25    2    1    2    0    0  0.11081918680E+03  0.75933666666E+02  0.21560578417E+03  0.28315813665E+03  0.12508342131E+03 0.  0.
          5    1    3    3  502    0  0.88052518191E+02  0.11007287711E+03  0.18004596658E+03  0.22869916203E+03  0.41800000000E+01 0.  1.
         -5    1    3    3    0  502  0.22766668605E+02 -0.34139210441E+02  0.35559817597E+02  0.54458974618E+02  0.41800000000E+01 0.  1.
        -11    1    1    2    0    0 -0.10403378113E+03 -0.41120693192E+02  0.28131586864E+03  0.30274173312E+03  0.00000000000E+00 0.  1.
         11    1    1    2    0    0 -0.67854056645E+01 -0.34812973474E+02  0.23377219781E+02  0.42479162619E+02  0.00000000000E+00 0. -1.
</event>
<event>
 7    1  0.2690635E-009  0.1623046E+03  0.7561462E-02  0.1186119E+00
         -1   -1    0    0    0  501 -0.00000000000E+00  0.00000000000E+00  0.38932067187E+02  0.38932067187E+02  0.00000000000E+00 0.  1.
          1   -1    0    0  501    0  0.00000000000E+00 -0.00000000000E+00 -0.84824656805E+03  0.84824656805E+03  0.00000000000E+00 0. -1.
         25    2    1    2    0    0 -0.11095609713E+03 -0.50674578374E+02 -0.23550834553E+03  0.29324154484E+03  0.12508898600E+03 0.  0.
          5    1    3    3  502    0  0.24700172289E+02 -0.20694365616E+02 -0.69559079085E+02  0.76774300143E+02  0.41800000000E+01 0.  1.
         -5    1    3    3    0  502 -0.13565626942E+03 -0.29980212758E+02 -0.16594926645E+03  0.21646724469E+03  0.41800000000E+01 0.  1.
        -11    1    1    2    0    0  0.12176482104E+03  0.62695333984E+02 -0.52196119187E+03  0.53963030156E+03  0.00000000000E+00 0.  1.
         11    1    1    2    0    0 -0.10808723904E+02 -0.12020755610E+02 -0.51844963466E+02  0.54306788845E+02  0.00000000000E+00 0. -1.
</event>
<event>
 7    1  0.2690635E-009  0.1439654E+03  0.7561462E-02  0.1208091E+00
          1   -1    0    0  501    0  0.00000000000E+00  0.00000000000E+00  0.16289349112E+03  0.16289349112E+03  0.00000000000E+00 0. -1.
         -1   -1    0    0    0  501 -0.00000000000E+00 -0.00000000000E+00 -0.19117453446E+03  0.19117453446E+03  0.00000000000E+00 0.  1.
         25    2    1    2    0    0  0.12482342311E+03 -0.47504331007E+02 -0.47510638717E+02  0.18905418961E+03  0.12508667953E+03 0.  0.
          5    1    3    3  502    0  0.35377731569E+02  0.10337923854E+02  0.37470542839E+02  0.52725425947E+02  0.41800000000E+01 0. -1.
         -5    1    3    3    0  502  0.89445691538E+02 -0.57842254861E+02 -0.84981181556E+02  0.13632876366E+03  0.41800000000E+01 0. -1.
        -11    1    1    2    0    0 -0.57426815229E+02  0.50923577757E+02 -0.29019753154E+02  0.82056053719E+02  0.00000000000E+00 0.  1.
         11    1    1    2    0    0 -0.67396607879E+02 -0.34192467498E+01  0.48249348535E+02  0.82957782250E+02  0.00000000000E+00 0. -1.
</event>
<event>
 7    1  0.2690635E-009  0.3108797E+03  0.7561462E-02  0.1079925E+00
          2   -1    0    0  501    0  0.00000000000E+00  0.00000000000E+00  0.14955835521E+04  0.14955835521E+04  0.00000000000E+00 0. -1.
         -2   -1    0    0    0  501 -0.00000000000E+00 -0.00000000000E+00 -0.73348038235E+02  0.73348038235E+02  0.00000000000E+00 0.  1.
         25    2    1    2    0    0  0.15357422184E+03  0.26458808867E+03  0.87663618097E+03  0.93687281425E+03  0.12509107888E+03 0.  0.
          5    1    3    3  502    0  0.13549976022E+03  0.18044342144E+03  0.47226259230E+03  0.52342090314E+03  0.41800000000E+01 0.  1.
         -5    1    3    3    0  502  0.18074461623E+02  0.84144667237E+02  0.40437358867E+03  0.41345191111E+03  0.41800000000E+01 0.  1.
        -11    1    1    2    0    0 -0.95019266783E+01 -0.53470306487E+02  0.16410579601E+03  0.17285853340E+03  0.00000000000E+00 0.  1.
         11    1    1    2    0    0 -0.14407229516E+03 -0.21111778219E+03  0.38149353685E+03  0.45920024265E+03  0.00000000000E+00 0. -1.
</event>
<event>
 7    1  0.2690635E-009  0.2076250E+03  0.7561462E-02  0.1143461E+00
         -1   -1    0    0    0  501 -0.00000000000E+00  0.00000000000E+00  0.84975124635E+02  0.84975124635E+02  0.00000000000E+00 0. -1.
          1   -1    0    0  501    0  0.00000000000E+00 -0.00000000000E+00 -0.52700926963E+03  0.52700926963E+03  0.00000000000E+00 0.  1.
         25    2    1    2    0    0  0.16106936068E+03  0.79332823662E+02 -0.20397280386E+03  0.29914641680E+03  0.12508652249E+03 0.  0.
          5    1    3    3  502    0  0.38274506633E+02  0.80722218198E+02 -0.51063881277E+02  0.10298546859E+03  0.41800000000E+01 0. -1.
         -5    1    3    3    0  502  0.12279485405E+03 -0.13893945365E+01 -0.15290892258E+03  0.19616094821E+03  0.41800000000E+01 0. -1.
        -11    1    1    2    0    0 -0.16662439590E+03 -0.51268901298E+02 -0.20287896192E+03  0.26749217323E+03  0.00000000000E+00 0.  1.
         11    1    1    2    0    0  0.55550352181E+01 -0.28063922363E+02 -0.35182379212E+02  0.45345804234E+02  0.00000000000E+00 0. -1.
</event>
<event>
 7    1  0.2690635E-009  0.1005277E+03  0.7561462E-02  0.1279190E+00
         -1   -1    0    0    0  501 -0.00000000000E+00  0.00000000000E+00  0.34097880784E+03  0.34097880784E+03  0.00000000000E+00 0.  1.
          1   -1    0    0  501    0  0.00000000000E+00 -0.00000000000E+00 -0.72409869053E+02  0.72409869053E+02  0.00000000000E+00 0. -1.
         25    2    1    2    0    0 -0.19844558935E+02 -0.22987896516E+02  0.16827100215E+01  0.12874018136E+03  0.12509577482E+03 0.  0.
          5    1    3    3  502    0 -0.40227355148E+02  0.35927993834E+02 -0.26449216284E+02  0.60217059752E+02  0.41800000000E+01 0.  1.
         -5    1    3    3    0  502  0.20382796212E+02 -0.58915890350E+02  0.28131926306E+02  0.68523121607E+02  0.41800000000E+01 0.  1.
        -11    1    1    2    0    0  0.67893348313E+01 -0.29560399261E+02  0.17802692845E+03  0.18059208046E+03  0.00000000000E+00 0.  1.
         11    1    1    2    0    0  0.13055224104E+02  0.52548295777E+02  0.88859300318E+02  0.10405641508E+03  0.00000000000E+00 0. -1.
</event>
<event>
 7    1  0.2690635E-009  0.6495124E+02  0.7561462E-02  0.1378155E+00
          2   -1    0    0  501    0  0.00000000000E+00  0.00000000000E+00  0.21643639441E+03  0.21643639441E+03  0.00000000000E+00 0. -1.
         -2   -1    0    0    0  501 -0.00000000000E+00 -0.00000000000E+00 -0.88385295939E+02  0.88385295939E+02  0.00000000000E+00 0.  1.
         25    2    1    2    0    0  0.21736378334E+02  0.37740224287E+02 -0.10577370387E+02  0.13287897994E+03  0.12509255723E+03 0.  0.
          5    1    3    3  502    0  0.30123810836E+01  0.38014203708E+02 -0.64832132321E+02  0.75331480170E+02  0.41800000000E+01 0. -1.
         -5    1    3    3    0  502  0.18723997251E+02 -0.27397942036E+00  0.54254761934E+02  0.57547499774E+02  0.41800000000E+01 0. -1.
        -11    1    1    2    0    0 -0.38989222354E+02 -0.10965479962E+02  0.13371455310E+03  0.13971393245E+03  0.00000000000E+00 0. -1.
         11    1    1    2    0    0  0.17252844020E+02 -0.26774744326E+02  0.49139157634E+01  0.32228777957E+02  0.00000000000E+00 0.  1.
</event>
<event>
 7    1  0.2690635E-009  0.1916779E+03  0.7561462E-02  0.1156957E+00
         -2   -1    0    0    0  501 -0.00000000000E+00  0.00000000000E+00  0.82676536870E+02  0.82676536870E+02  0.00000000000E+00 0.  1.
          2   -1    0    0  501    0  0.00000000000E+00 -0.00000000000E+00 -0.85947544498E+03  0.85947544498E+03  0.00000000000E+00 0. -1.
         25    2    1    2    0    0 -0.11116071316E+03 -0.13004619524E+03 -0.69954304125E+03  0.73094223181E+03  0.12508941854E+03 0.  0.
          5    1    3    3  502    0 -0.54633141745E+02  0.91385991537E+01 -0.12004896210E+03  0.13227819122E+03  0.41800000000E+01 0. -1.
         -5    1    3    3    0  502 -0.56527571420E+02 -0.13918479439E+03 -0.57949407915E+03  0.59866404059E+03  0.41800000000E+01 0. -1.
        -11    1    1    2    0    0  0.33564723330E+02  0.10814005357E+02 -0.57687224762E+02  0.67611753895E+02  0.00000000000E+00 0.  1.
         11    1    1    2    0    0  0.77595989835E+02  0.11923218988E+03 -0.19568642090E+02  0.14359799614E+03  0.00000000000E+00 0. -1.
</event>
<event>
 7    1  0.2690635E-009  0.1417950E+03  0.7561462E-02  0.1210934E+00
          1   -1    0    0  501    0  0.00000000000E+00  0.00000000000E+00  0.40977955997E+03  0.40977955997E+03  0.00000000000E+00 0. -1.
         -1   -1    0    0    0  501 -0.00000000000E+00 -0.00000000000E+00 -0.60323294072E+02  0.60323294072E+02  0.00000000000E+00 0.  1.
         25    2    1    2    0    0  0.80249040183E+02 -0.80585787535E+02  0.19361030517E+03  0.25703960681E+03  0.12510168504E+03 0.  0.
          5    1    3    3  502    0  0.92600210009E+02 -0.99993858618E+01  0.81036168724E+02  0.12352780923E+03  0.41800000000E+01 0.  1.
         -5    1    3    3    0  502 -0.12351169826E+02 -0.70586401673E+02  0.11257413645E+03  0.13351179758E+03  0.41800000000E+01 0.  1.
        -11    1    1    2    0    0 -0.76294599174E+02  0.58502654385E+02  0.57142370564E+02  0.11184219663E+03  0.00000000000E+00 0.  1.
         11    1    1    2    0    0 -0.39544410083E+01  0.22083133150E+02  0.98703590167E+02  0.10122105060E+03  0.00000000000E+00 0. -1.
</event>
<event>
 7    1  0.2690635E-009  0.9384855E+02  0.7561462E-02  0.1293791E+00
         -2   -1    0    0    0  501 -0.00000000000E+00  0.00000000000E+00  0.40539542648E+02  0.40539542648E+02  0.00000000000E+00 0.  1.
          2   -1    0    0  501    0  0.00000000000E+00 -0.00000000000E+00 -0.49325432168E+03  0.49325432168E+03  0.00000000000E+00 0. -1.
         25    2    1    2    0    0 -0.47781681358E+02  0.15864880296E+02 -0.38824734907E+03  0.41099684337E+03  0.12509043808E+03 0.  0.
          5    1    3    3  502    0 -0.75312497529E+02  0.19333960245E+02 -0.36861469175E+03  0.37674930348E+03  0.41800000000E+01 0. -1.
         -5    1    3    3    0  502  0.27530816171E+02 -0.34690799484E+01 -0.19632657325E+02  0.34247539888E+02  0.41800000000E+01 0. -1.
        -11    1    1    2    0    0 -0.81881890848E+01 -0.23864354509E+02  0.11804351039E+02  0.27854919854E+02  0.00000000000E+00 0.  1.
         11    1    1    2    0    0  0.55969870443E+02  0.79994742128E+01 -0.76271780994E+02  0.94942101098E+02  0.00000000000E+00 0. -1.
</event>
<event>
 7    1  0.2690635E-009  0.2321531E+03  0.7561462E-02  0.1125133E+00
          2   -1    0    0  501    0  0.00000000000E+00  0.00000000000E+00  0.37828863005E+02  0.37828863005E+02  0.00000000000E+00 0. -1.
         -2   -1    0    0    0  501 -0.00000000000E+00 -0.00000000000E+00 -0.14683132878E+04  0.14683132878E+04  0.00000000000E+00 0.  1.
         25    2    1    2    0    0  0.11633555598E+03  0.17192908459E+03 -0.82354768412E+03  0.85847030392E+03  0.12508758121E+03 0.  0.
          5    1    3    3  502    0  0.13562899534E+03  0.17583836096E+03 -0.74691755547E+03  0.77924172157E+03  0.41800000000E+01 0. -1.
         -5    1    3    3    0  502 -0.19293439362E+02 -0.39092763675E+01 -0.76630128650E+02  0.79228582349E+02  0.41800000000E+01 0. -1.
        -11    1    1    2    0    0 -0.19261367503E+02 -0.98475620959E+02 -0.33558910226E+03  0.35026917329E+03  0.00000000000E+00 0.  1.
         11    1    1    2    0    0 -0.97074188477E+02 -0.73453463631E+02 -0.27134763837E+03  0.29740267355E+03  0.00000000000E+00 0. -1.
</event>
<event>
 7    1  0.2690635E-009  0.8207642E+02  0.7561462E-02  0.1323260E+00
          2   -1    0    0  501    0  0.00000000000E+00  0.00000000000E+00  0.37591447452E+03  0.37591447452E+03  0.00000000000E+00 0. -1.
         -2   -1    0    0    0  501 -0.00000000000E+00 -0.00000000000E+00 -0.45218434046E+02  0.45218434046E+02  0.00000000000E+00 0.  1.
         25    2    1    2    0    0  0.56303285548E+01  0.63212304459E+02  0.24623728495E+03  0.28338647462E+03  0.12509035719E+03 0.  0.
          5    1    3    3  502    0 -0.18700209004E+01  0.54656727302E+01 -0.14518505308E+02  0.16174979225E+02  0.41800000000E+01 0.  1.
         -5    1    3    3    0  502  0.75003494552E+01  0.57746631729E+02  0.26075579026E+03  0.26721149540E+03  0.41800000000E+01 0.  1.
        -11    1    1    2    0    0  0.69596592641E+01 -0.78516064990E+02  0.87420201801E+02  0.11770939215E+03  0.00000000000E+00 0. -1.
         11    1    1    2    0    0 -0.12589987819E+02  0.15303760531E+02 -0.29614462782E+01  0.20037041791E+02  0.00000000000E+00 0.  1.
</event>
<event>
 7    1  0.2690635E-009  0.1515927E+03  0.7561462E-02  0.1198529E+00
          1   -1    0    0  501    0  0.00000000000E+00  0.00000000000E+00  0.69801361389E+03  0.69801361389E+03  0.00000000000E+00 0. -1.
         -1   -1    0    0    0  501 -0.00000000000E+00 -0.00000000000E+00 -0.39005850178E+02  0.39005850178E+02  0.00000000000E+00 0.  1.
         25    2    1    2    0    0 -0.12270558519E+03  0.16632711945E+02  0.35674837742E+03  0.39780488492E+03  0.12508402748E+03 0.  0.
          5    1    3    3  502    0  0.21274986228E+02 -0.15949445949E+02  0.38672332902E+02  0.47117211263E+02  0.41800000000E+01 0. -1.
         -5    1    3    3    0  502 -0.14398057142E+03  0.32582157894E+02  0.31807604451E+03  0.35068767365E+03  0.41800000000E+01 0. -1.
        -11    1    1    2    0    0  0.24909465144E+02  0.10601170266E+02  0.84473239730E+01  0.28358835432E+02  0.00000000000E+00 0.  1.
         11    1    1    2    0    0  0.97796120046E+02 -0.27233882210E+02  0.29381206232E+03  0.31085574372E+03  0.00000000000E+00 0. -1.
</event>
<event>
 7    1  0.2690635E-009  0.1345423E+03  0.7561462E-02  0.1220867E+00
         -2   -1    0    0    0  501 -0.00000000000E+00  0.00000000000E+00  0.32331703635E+02  0.32331703635E+02  0.00000000000E+00 0. -1.
          2   -1    0    0  501    0  0.00000000000E+00 -0.00000000000E+00 -0.92009953398E+03  0.92009953398E+03  0.00000000000E+00 0.  1.
         25    2    1    2    0    0  0.52342706130E+02  0.99027356029E+02 -0.67897519279E+03  0.69942902389E+03  0.12508985133E+03 0.  0.
          5    1    3    3  502    0 -0.17516079045E+02 -0.95530008290E+01 -0.26462187316E+03  0.26540587975E+03  0.41800000000E+01 0.  1.
         -5    1    3    3    0  502  0.69858785175E+02  0.10858035686E+03 -0.41435331963E+03  0.43402314414E+03  0.41800000000E+01 0.  1.
        -11    1    1    2    0    0 -0.26374499863E+02 -0.86984439415E+02 -0.80061668500E+02  0.12112711384E+03  0.00000000000E+00 0. -1.
         11    1    1    2    0    0 -0.25968206267E+02 -0.12042916614E+02 -0.12873096905E+03  0.13187509989E+03  0.00000000000E+00 0.  1.
</event>
<event>
 7    1  0.2690635E-009  0.9903871E+02  0.7561462E-02  0.1282330E+00
          1   -1    0    0  501    0  0.00000000000E+00  0.00000000000E+00  0.34360196727E+02  0.34360196727E+02  0.00000000000E+00 0. -1.
         -1   -1    0    0    0  501 -0.00000000000E+00 -0.00000000000E+00 -0.75572769930E+03  0.75572769930E+03  0.00000000000E+00 0.  1.
         25    2    1    2    0    0 -0.30683496938E+01 -0.47035733798E+02 -0.65468680816E+03  0.66819366190E+03  0.12508468331E+03 0.  0.
          5    1    3    3  502    0  0.12493712708E+02  0.26681472693E+02 -0.45597905911E+02  0.54448464310E+02  0.41800000000E+01 0.  1.
         -5    1    3    3    0  502 -0.15562062401E+02 -0.73717206491E+02 -0.60908890225E+03  0.61374519759E+03  0.41800000000E+01 0.  1.
        -11    1    1    2    0    0  0.17612595200E+02  0.66370959544E+02 -0.69298669261E+02  0.97558256144E+02  0.00000000000E+00 0.  1.
         11    1    1    2    0    0 -0.14544245507E+02 -0.19335225746E+02  0.26179748511E+01  0.24335977982E+02  0.00000000000E+00 0. -1.
</event>
<event>
 7    1  0.2690635E-009  0.1221255E+03  0.7561462E-02  0.1239631E+00
         -2   -1    0    0    0  501 -0.00000000000E+00  0.00000000000E+00  0.51802939776E+02  0.51802939776E+02  0.00000000000E+00 0. -1.
          2   -1    0    0  501    0  0.00000000000E+00 -0.00000000000E+00 -0.38916768130E+03  0.38916768130E+03  0.00000000000E+00 0.  1.
         25    2    1    2    0    0 -0.36698224698E+02  0.82690637092E+02 -0.25673656628E+03  0.29957560218E+03  0.12508947116E+03 0.  0.
          5    1    3    3  502    0  0.36349834694E+02  0.47962157664E+02 -0.17238948123E+03  0.18263976755E+03  0.41800000000E+01 0.  1.
         -5    1    3    3    0  502 -0.73048059392E+02  0.34728479428E+02 -0.84347085048E+02  0.11693583463E+03  0.41800000000E+01 0.  1.
        -11    1    1    2    0    0  0.10218331420E+00 -0.59733968279E+02 -0.77821163059E+02  0.98103470008E+02  0.00000000000E+00 0.  1.
         11    1    1    2    0    0  0.36596041384E+02 -0.22956668813E+02 -0.28070121838E+01  0.43291548891E+02  0.00000000000E+00 0. -1.
</event>
<event>
 7    1  0.2690635E-009  0.6764425E+02  0.7561462E-02  0.1368292E+00
          1   -1    0    0  501    0  0.00000000000E+00  0.00000000000E+00  0.61629912321E+02  0.61629912321E+02  0.00000000000E+00 0. -1.
         -1   -1    0    0    0  501 -0.00000000000E+00 -0.00000000000E+00 -0.20872588845E+03  0.20872588845E+03  0.00000000000E+00 0.  1.
         25    2    1    2    0    0  0.94609762280E+01  0.51764333494E+01 -0.13119331692E+03  0.18159539408E+03  0.12509554434E+03 0.  0.
          5    1    3    3  502    0 -0.98097355271E+01  0.28444672206E+02 -0.14497707647E+03  0.14812547178E+03  0.41800000000E+01 0. -1.
         -5    1    3    3    0  502  0.19270711755E+02 -0.23268238857E+02  0.13783759553E+02  0.33469922296E+02  0.41800000000E+01 0. -1.
        -11    1    1    2    0    0 -0.18861216551E+02 -0.36836696903E+02 -0.31719237719E+02  0.52142092114E+02  0.00000000000E+00 0.  1.
         11    1    1    2    0    0  0.94002403232E+01  0.31660263554E+02  0.15816578515E+02  0.36618314575E+02  0.00000000000E+00 0. -1.
</event>
<event>
 7    1  0.2928818E-009  0.1816642E+03  0.7561462E-02  0.1166202E+00
          1   -1    0    0  501    0  0.00000000000E+00  0.00000000000E+00  0.44485954698E+03  0.44485954698E+03  0.00000000000E+00 0. -1.
         -1   -1    0    0    0  501 -0.00000000000E+00 -0.00000000000E+00 -0.96104803968E+02  0.96104803968E+02  0.00000000000E+00 0.  1.
         25    2    1    2    0    0  0.32721893168E+02  0.17193341636E+03  0.16394239970E+03  0.27047426058E+03  0.12508954098E+03 0.  0.
          5    1    3    3  502    0  0.48736916539E+02  0.11860726358E+03  0.39762072010E+02  0.13431851987E+03  0.41800000000E+01 0.  1.
         -5    1    3    3    0  502 -0.16015023371E+02  0.53326152779E+02  0.12418032769E+03  0.13615574071E+03  0.41800000000E+01 0.  1.
        -11    1    1    2    0    0 -0.37981110358E+02 -0.98438528107E+02  0.49785613653E+02  0.11666754427E+03  0.00000000000E+00 0.  1.
         11    1    1    2    0    0  0.52592171901E+01 -0.73494888255E+02  0.13502672966E+03  0.15382254609E+03  0.00000000000E+00 0. -1.
</event>
<event>
 7    1  0.2690635E-009  0.8279155E+02  0.7561462E-02  0.1321311E+00
         -1   -1    0    0    0  501 -0.00000000000E+00  0.00000000000E+00  0.52295318267E+02  0.52295318267E+02  0.00000000000E+00 0.  1.
          1   -1    0    0  501    0  0.00000000000E+00 -0.00000000000E+00 -0.36298338297E+03  0.36298338297E+03  0.00000000000E+00 0. -1.
         25    2    1    2    0    0 -0.62301009986E+02  0.18583926537E+02 -0.24564044922E+03  0.28322074048E+03  0.12509188372E+03 0.  0.
          5    1    3    3  502    0  0.15951180022E+01  0.23494824183E+02  0.50421349941E+01  0.24442722641E+02  0.41800000000E+01 0. -1.
         -5    1    3    3    0  502 -0.63896127988E+02 -0.49108976453E+01 -0.25068258422E+03  0.25877801784E+03  0.41800000000E+01 0. -1.
        -11    1    1    2    0    0  0.41416820981E+02  0.94561047946E+01 -0.82638943702E+02  0.92919136857E+02  0.00000000000E+00 0. -1.
         11    1    1    2    0    0  0.20884189005E+02 -0.28040031332E+02  0.17591328223E+02  0.39138823898E+02  0.00000000000E+00 0.  1.
</event>
<event>
 7    1  0.2690635E-009  0.1116924E+03  0.7561462E-02  0.1257468E+00
         -2   -1    0    0    0  501 -0.00000000000E+00  0.00000000000E+00  0.68261067987E+02  0.68261067987E+02  0.00000000000E+00 0. -1.
          2   -1    0    0  501    0  0.00000000000E+00 -0.00000000000E+00 -0.31818356117E+03  0.31818356117E+03  0.00000000000E+00 0.  1.
         25    2    1    2    0    0 -0.99332547263E+02 -0.12213524584E+02 -0.14061165575E+03  0.21315659955E+03  0.12509185853E+03 0.  0.
          5    1    3    3  502    0 -0.72286994676E+02 -0.85183364672E-01 -0.31529945231E+01  0.72476414301E+02  0.41800000000E+01 0. -1.
         -5    1    3    3    0  502 -0.27045552587E+02 -0.12128341219E+02 -0.13745866122E+03  0.14068018525E+03  0.41800000000E+01 0. -1.
        -11    1    1    2    0    0  0.43706389317E+01  0.24861493151E+02 -0.60955507954E+02  0.65975527859E+02  0.00000000000E+00 0.  1.
         11    1    1    2    0    0  0.94961908331E+02 -0.12647968567E+02 -0.48355329484E+02  0.10731250175E+03  0.00000000000E+00 0. -1.
</event>
<event>
 7    1  0.2690635E-009  0.2363499E+03  0.7561462E-02  0.1122249E+00
         -2   -1    0    0    0  501 -0.00000000000E+00  0.00000000000E+00  0.97269010747E+02  0.97269010747E+02  0.00000000000E+00 0. -1.
          2   -1    0    0  501    0  0.00000000000E+00 -0.00000000000E+00 -0.66524404508E+03  0.66524404508E+03  0.00000000000E+00 0.  1.
         25    2    1    2    0    0 -0.72000406609E+02  0.21048605025E+03 -0.37460454933E+03  0.45328047164E+03  0.12508469803E+03 0.  0.
          5    1    3    3  502    0 -0.80993299833E+02  0.20461093075E+03 -0.27137821692E+03  0.34941258795E+03  0.41800000000E+01 0.  1.
         -5    1    3    3    0  502  0.89928932240E+01  0.58751195046E+01 -0.10322633241E+03  0.10386788369E+03  0.41800000000E+01 0.  1.
        -11    1    1    2    0    0 -0.21068284605E+02 -0.19906840227E+02 -0.27874877096E+02  0.40213973655E+02  0.00000000000E+00 0.  1.
         11    1    1    2    0    0  0.93068691214E+02 -0.19057921003E+03 -0.16549560791E+03  0.26901861054E+03  0.00000000000E+00 0. -1.
</event>
<event>
 7    1  0.2690635E-009  0.1294003E+03  0.7561462E-02  0.1228348E+00
         -3   -1    0    0    0  501 -0.00000000000E+00  0.00000000000E+00  0.32377162968E+03  0.32377162968E+03  0.00000000000E+00 0.  1.
          3   -1    0    0  501    0  0.00000000000E+00 -0.00000000000E+00 -0.59164023824E+02  0.59164023824E+02  0.00000000000E+00 0. -1.
         25    2    1    2    0    0 -0.82329157305E+02 -0.15978807725E+01  0.11473463804E+03  0.18865415063E+03  0.12508280465E+03 0.  0.
          5    1    3    3  502    0 -0.58245091256E+02 -0.61190721430E+02  0.55650388698E+02  0.10124837385E+03  0.41800000000E+01 0.  1.
         -5    1    3    3    0  502 -0.24084066049E+02  0.59592840658E+02  0.59084249337E+02  0.87405776782E+02  0.41800000000E+01 0.  1.
        -11    1    1    2    0    0  0.96035153522E+02  0.26305157095E+00  0.85913356184E+02  0.12885621708E+03  0.00000000000E+00 0. -1.
         11    1    1    2    0    0 -0.13705996216E+02  0.13348292015E+01  0.63959611635E+02  0.65425285799E+02  0.00000000000E+00 0.  1.
</event>
<event>
 7    1  0.2690635E-009  0.9118263E+02  0.7561462E-02  0.1300013E+00
         -1   -1    0    0    0  501 -0.00000000000E+00  0.00000000000E+00  0.14280937002E+03  0.14280937002E+03  0.00000000000E+00 0.  1.
          1   -1    0    0  501    0  0.00000000000E+00 -0.00000000000E+00 -0.10299112227E+03  0.10299112227E+03  0.00000000000E+00 0. -1.
         25    2    1    2    0    0 -0.44562283567E+02 -0.10378513700E+02 -0.61127604884E+01  0.13333717988E+03  0.12509167452E+03 0.  0.
          5    1    3    3  502    0 -0.38956903055E+02 -0.39120404846E+02 -0.53812871205E+02  0.77209739530E+02  0.41800000000E+01 0. -1.
         -5    1    3    3    0  502 -0.56053805119E+01  0.28741891145E+02  0.47700110717E+02  0.56127440345E+02  0.41800000000E+01 0. -1.
        -11    1    1    2    0    0  0.31200660194E+01  0.43964399830E+02  0.33368864157E+01  0.44201109435E+02  0.00000000000E+00 0. -1.
         11    1    1    2    0    0  0.41442217548E+02 -0.33585886129E+02  0.42594121817E+02  0.68262202980E+02  0.00000000000E+00 0.  1.
</event>
<event>
 7    1  0.2690635E-009  0.6373544E+02  0.7561462E-02  0.1382792E+00
          1   -1    0    0  501    0  0.00000000000E+00  0.00000000000E+00  0.31325480627E+03  0.31325480627E+03  0.00000000000E+00 0. -1.
         -1   -1    0    0    0  501 -0.00000000000E+00 -0.00000000000E+00 -0.40265629339E+02  0.40265629339E+02  0.00000000000E+00 0.  1.
         25    2    1    2    0    0  0.20839606631E+02 -0.18150884161E+02  0.15105136484E+03  0.19806238826E+03  0.12509376892E+03 0.  0.
          5    1    3    3  502    0 -0.15936863268E+02  0.13465958832E+02 -0.14337620185E+02  0.25658437417E+02  0.41800000000E+01 0. -1.
         -5    1    3    3    0  502  0.36776469899E+02 -0.31616842993E+02  0.16538898503E+03  0.17240395085E+03  0.41800000000E+01 0. -1.
        -11    1    1    2    0    0 -0.91955409428E+00  0.32783648227E+02  0.18453686826E+01  0.32848417867E+02  0.00000000000E+00 0.  1.
         11    1    1    2    0    0 -0.19920052537E+02 -0.14632764066E+02  0.12009244340E+03  0.12260962947E+03  0.00000000000E+00 0. -1.
</event>
<event>
 7    1  0.2690635E-009  0.1128212E+03  0.7561462E-02  0.1255433E+00
          2   -1    0    0  501    0  0.00000000000E+00  0.00000000000E+00  0.48170565051E+03  0.48170565051E+03  0.00000000000E+00 0. -1.
         -2   -1    0    0    0  501 -0.00000000000E+00 -0.00000000000E+00 -0.29437785384E+02  0.29437785384E+02  0.00000000000E+00 0.  1.
         25    2    1    2    0    0  0.35927647028E+01 -0.47073403288E+02  0.22519738932E+03  0.26189206665E+03  0.12507908364E+03 0.  0.
          5    1    3    3  502    0  0.22188942165E+02 -0.84097229134E+02  0.18272180987E+03  0.20240905441E+03  0.41800000000E+01 0.  1.
         -5    1    3    3    0  502 -0.18596177463E+02  0.37023825846E+02  0.42475579448E+02  0.59483012247E+02  0.41800000000E+01 0.  1.
        -11    1    1    2    0    0 -0.37116166429E+02 -0.23660031360E+01  0.13053351058E+03  0.13572842431E+03  0.00000000000E+00 0. -1.
         11    1    1    2    0    0  0.33523401726E+02  0.49439406424E+02  0.96536965224E+02  0.11352294493E+03  0.00000000000E+00 0.  1.
</event>
<event>
 7    1  0.2690635E-009  0.8443224E+02  0.7561462E-02  0.1316924E+00
          2   -1    0    0  501    0  0.00000000000E+00  0.00000000000E+00  0.15498281024E+03  0.15498281024E+03  0.00000000000E+00 0. -1.
         -2   -1    0    0    0  501 -0.00000000000E+00 -0.00000000000E+00 -0.16027015223E+03  0.16027015223E+03  0.00000000000E+00 0.  1.
         25    2    1    2    0    0  0.64738866847E+02  0.48516143541E+02 -0.84912861337E+02  0.17146834665E+03  0.12508502235E+03 0.  0.
          5    1    3    3  502    0  0.29528008502E+02  0.37066336328E+02  0.26174061276E+02  0.54298899239E+02  0.41800000000E+01 0. -1.
         -5    1    3    3    0  502  0.35210858345E+02  0.11449807213E+02 -0.11108692261E+03  0.11716944741E+03  0.41800000000E+01 0. -1.
        -11    1    1    2    0    0 -0.31479166438E+02 -0.37570366570E+02  0.93938918082E+02  0.10595749475E+03  0.00000000000E+00 0. -1.
         11    1    1    2    0    0 -0.33259700408E+02 -0.10945776971E+02 -0.14313398733E+02  0.37827121065E+02  0.00000000000E+00 0.  1.
</event>
<event>
 7    1  0.2690635E-009  0.6348665E+02  0.7561462E-02  0.1383756E+00
          1   -1    0    0  501    0  0.00000000000E+00  0.00000000000E+00  0.13567750425E+03  0.13567750425E+03  0.00000000000E+00 0. -1.
         -1   -1    0    0    0  501 -0.00000000000E+00 -0.00000000000E+00 -0.94832223880E+02  0.94832223880E+02  0.00000000000E+00 0.  1.
         25    2    1    2    0    0  0.89226779302E+01  0.78463465011E+00  0.52365794278E+02  0.13590277326E+03  0.12508859874E+03 0.  0.
          5    1    3    3  502    0  0.66063012275E+01  0.49727471877E+02  0.67725599799E+02  0.84384204347E+02  0.41800000000E+01 0.  1.
         -5    1    3    3    0  502  0.23163767028E+01 -0.48942837227E+02 -0.15359805521E+02  0.51518568909E+02  0.41800000000E+01 0.  1.
        -11    1    1    2    0    0 -0.54764245566E+00  0.12088979168E+02  0.39506730657E+02  0.41318580527E+02  0.00000000000E+00 0. -1.
         11    1    1    2    0    0 -0.83750354746E+01 -0.12873613818E+02 -0.51027244568E+02  0.53288374343E+02  0.00000000000E+00 0.  1.
</event>
<event>
 7    1  0.2690635E-009  0.8657763E+02  0.7561462E-02  0.1311358E+00
          1   -1    0    0  501    0  0.00000000000E+00  0.00000000000E+00  0.42032743063E+03  0.42032743063E+03  0.00000000000E+00 0. -1.
         -1   -1    0    0    0  501 -0.00000000000E+00 -0.00000000000E+00 -0.34398527294E+02  0.34398527294E+02  0.00000000000E+00 0.  1.
         25    2    1    2    0    0 -0.38465718351E+02  0.18940988921E+02  0.18575398769E+03  0.22801138224E+03  0.12508506681E+03 0.  0.
          5    1    3    3  502    0 -0.52007850820E+02 -0.15988118985E+02  0.20150106670E+02  0.58171605569E+02  0.41800000000E+01 0. -1.
         -5    1    3    3    0  502  0.13542132470E+02  0.34929107906E+02  0.16560388102E+03  0.16983977667E+03  0.41800000000E+01 0. -1.
        -11    1    1    2    0    0  0.46452773519E+02  0.12780298154E+02  0.38243671969E+02  0.61512394152E+02  0.00000000000E+00 0.  1.
         11    1    1    2    0    0 -0.79870551689E+01 -0.31721287075E+02  0.16193124368E+03  0.16520218153E+03  0.00000000000E+00 0. -1.
</event>
<event>
 7    1  0.2690635E-009  0.1753310E+03  0.7561462E-02  0.1172400E+00
         -1   -1    0    0    0  501 -0.00000000000E+00  0.00000000000E+00  0.63545539456E+03  0.63545539456E+03  0.00000000000E+00 0.  1.
          1   -1    0    0  501    0  0.00000000000E+00 -0.00000000000E+00 -0.66841050353E+02  0.66841050353E+02  0.00000000000E+00 0. -1.
         25    2    1    2    0    0 -0.64302750238E+02 -0.15975827580E+03  0.24175660333E+03  0.32210423538E+03  0.12508929937E+03 0.  0.
          5    1    3    3  502    0  0.33299008168E+01 -0.37715556420E+02 -0.51799934717E+01  0.38442894895E+02  0.41800000000E+01 0. -1.
         -5    1    3    3    0  502 -0.67632651055E+02 -0.12204271938E+03  0.24693659681E+03  0.28366134048E+03  0.41800000000E+01 0. -1.
        -11    1    1    2    0    0  0.40747594244E+02  0.79509298955E+02  0.25406503701E+03  0.26931605612E+03  0.00000000000E+00 0.  1.
         11    1    1    2    0    0  0.23555155995E+02  0.80248976848E+02  0.72792703866E+02  0.11087615341E+03  0.00000000000E+00 0. -1.
</event>
<event>
 7    1  0.2690635E-009  0.1789860E+03  0.7561462E-02  0.1168788E+00
         -2   -1    0    0    0  501 -0.00000000000E+00  0.00000000000E+00  0.29757646147E+03  0.29757646147E+03  0.00000000000E+00 0.  1.
          2   -1    0    0  501    0  0.00000000000E+00 -0.00000000000E+00 -0.12845363818E+03  0.12845363818E+03  0.00000000000E+00 0. -1.
         25    2    1    2    0    0  0.15627303077E+03 -0.59656927842E+01  0.39756039644E+02  0.20416740080E+03  0.12508771012E+03 0.  0.
          5    1    3    3  502    0  0.21397175164E+02  0.35856775912E+02  0.46623165414E+02  0.62727501441E+02  0.41800000000E+01 0.  1.
         -5    1    3    3    0  502  0.13487585561E+03 -0.41822468696E+02 -0.68671257700E+01  0.14143989936E+03  0.41800000000E+01 0.  1.
        -11    1    1    2    0    0 -0.18750023404E+02 -0.27419275010E+02  0.48759063546E+02  0.58998527927E+02  0.00000000000E+00 0.  1.
         11    1    1    2    0    0 -0.13752300737E+03  0.33384967794E+02  0.80607720098E+02  0.16286417092E+03  0.00000000000E+00 0. -1.
</event>
<event>
 7    1  0.2690635E-009  0.1260236E+03  0.7561462E-02  0.1233478E+00
          2   -1    0    0  501    0  0.00000000000E+00  0.00000000000E+00  0.63536674503E+02  0.63536674503E+02  0.00000000000E+00 0. -1.
         -2   -1    0    0    0  501 -0.00000000000E+00 -0.00000000000E+00 -0.34823576050E+03  0.34823576050E+03  0.00000000000E+00 0.  1.
         25    2    1    2    0    0  0.40589281596E+02 -0.83149873951E+02 -0.20991683718E+03  0.26129487108E+03  0.12509412377E+03 0.  0.
          5    1    3    3  502    0 -0.22952124913E+02 -0.33370544301E+02 -0.16263494402E+03  0.16765437865E+03  0.41800000000E+01 0.  1.
         -5    1    3    3    0  502  0.63541406509E+02 -0.49779329651E+02 -0.47281893162E+02  0.93640492431E+02  0.41800000000E+01 0.  1.
        -11    1    1    2    0    0 -0.34885758071E+02 -0.10692852875E+02 -0.18619006919E+02  0.40963650197E+02  0.00000000000E+00 0.  1.
         11    1    1    2    0    0 -0.57035235252E+01  0.93842726827E+02 -0.56163241897E+02  0.10951391372E+03  0.00000000000E+00 0. -1.
</event>
<event>
 7    1  0.2690635E-009  0.1214791E+03  0.7561462E-02  0.1240677E+00
         -1   -1    0    0    0  501 -0.00000000000E+00  0.00000000000E+00  0.40695103785E+02  0.40695103785E+02  0.00000000000E+00 0.  1.
          1   -1    0    0  501    0  0.00000000000E+00 -0.00000000000E+00 -0.71197155390E+03  0.71197155390E+03  0.00000000000E+00 0. -1.
         25    2    1    2    0    0  0.63760823863E+02 -0.41739988139E+01 -0.61009880526E+03  0.62606067200E+03  0.12509415619E+03 0.  0.
          5    1    3    3  502    0 -0.36891619864E+02  0.75498151864E+01 -0.13238704116E+03  0.13770182422E+03  0.41800000000E+01 0. -1.
         -5    1    3    3    0  502  0.10065244373E+03 -0.11723814000E+02 -0.47771176410E+03  0.48835884778E+03  0.41800000000E+01 0. -1.
        -11    1    1    2    0    0  0.17682639858E+01 -0.29790803093E+02 -0.39834805135E+02  0.49773792367E+02  0.00000000000E+00 0. -1.
         11    1    1    2    0    0 -0.65529087849E+02  0.33964801907E+02 -0.21342839713E+02  0.76832193317E+02  0.00000000000E+00 0.  1.
</event>
<event>
 7    1  0.3671433E-009  0.1328809E+03  0.7561462E-02  0.1223243E+00
         -2   -1    0    0    0  501 -0.00000000000E+00  0.00000000000E+00  0.22055575344E+02  0.22055575344E+02  0.00000000000E+00 0.  1.
          2   -1    0    0  501    0  0.00000000000E+00 -0.00000000000E+00 -0.10146313877E+04  0.10146313877E+04  0.00000000000E+00 0. -1.
         25    2    1    2    0    0 -0.91675171099E+02 -0.27729721633E+02 -0.41044634536E+03  0.43964365246E+03  0.12508822595E+03 0.  0.
          5    1    3    3  502    0 -0.51265405580E+02 -0.62688112739E+02 -0.34813267984E+03  0.35745178200E+03  0.41800000000E+01 0.  1.
         -5    1    3    3    0  502 -0.40409765519E+02  0.34958391106E+02 -0.62313665523E+02  0.82191870455E+02  0.41800000000E+01 0.  1.
        -11    1    1    2    0    0  0.89788687584E+02 -0.12630507371E+02 -0.35820725764E+03  0.36950504402E+03  0.00000000000E+00 0.  1.
         11    1    1    2    0    0  0.18864835145E+01  0.40360229004E+02 -0.22392220935E+03  0.22753826656E+03  0.00000000000E+00 0. -1.
</event>
<event>
 7    1  0.2690635E-009  0.9043505E+02  0.7561462E-02  0.1301802E+00
          1   -1    0    0  501    0  0.00000000000E+00  0.00000000000E+00  0.51014300364E+03  0.51014300364E+03  0.00000000000E+00 0. -1.
         -1   -1    0    0    0  501 -0.00000000000E+00 -0.00000000000E+00 -0.32929448344E+02  0.32929448344E+02  0.00000000000E+00 0.  1.
         25    2    1    2    0    0 -0.47441215077E+02 -0.18311696342E+02  0.36983282189E+03  0.39370916914E+03  0.12507840184E+03 0.  0.
          5    1    3    3  502    0 -0.51877843802E+02 -0.33088285347E+02  0.69369793999E+02  0.92821258472E+02  0.41800000000E+01 0.  1.
         -5    1    3    3    0  502  0.44366287245E+01  0.14776589005E+02  0.30046302789E+03  0.30088791067E+03  0.41800000000E+01 0.  1.
        -11    1    1    2    0    0 -0.24170034562E+02  0.20313985449E+02  0.40541378994E+02  0.51385328513E+02  0.00000000000E+00 0. -1.
         11    1    1    2    0    0  0.71611249640E+02 -0.20022891069E+01  0.66839354410E+02  0.97977954330E+02  0.00000000000E+00 0.  1.
</event>
<event>
 7    1  0.2690635E-009  0.7624871E+02  0.7561462E-02  0.1340047E+00
          2   -1    0    0  501    0  0.00000000000E+00  0.00000000000E+00  0.25534942621E+03  0.25534942621E+03  0.00000000000E+00 0. -1.
         -2   -1    0    0    0  501 -0.00000000000E+00 -0.00000000000E+00 -0.49241792304E+02  0.49241792304E+02  0.00000000000E+00 0.  1.
         25    2    1    2    0    0  0.24313762741E+02  0.64761724696E+01  0.14099707586E+03  0.19016124204E+03  0.12509205692E+03 0.  0.
          5    1    3    3  502    0 -0.27606816548E+02 -0.14838300958E+02  0.12873357162E+03  0.13255985953E+03  0.41800000000E+01 0. -1.
         -5    1    3    3    0  502  0.51920579290E+02  0.21314473428E+02  0.12263504237E+02  0.57601382513E+02  0.41800000000E+01 0. -1.
        -11    1    1    2    0    0 -0.32542522997E+01 -0.31626906992E+02 -0.92862141083E+01  0.33122276135E+02  0.00000000000E+00 0.  1.
         11    1    1    2    0    0 -0.21059510442E+02  0.25150734523E+02  0.74396772160E+02  0.81307700342E+02  0.00000000000E+00 0. -1.
</event>
<event>
 7    1  0.2690635E-009  0.8561494E+02  0.7561462E-02  0.1313832E+00
          1   -1    0    0  501    0  0.00000000000E+00  0.00000000000E+00  0.12979433062E+03  0.12979433062E+03  0.00000000000E+00 0. -1.
         -1   -1    0    0    0  501 -0.00000000000E+00 -0.00000000000E+00 -0.95153916535E+02  0.95153916535E+02  0.00000000000E+00 0.  1.
         25    2    1    2    0    0 -0.13003732813E+01 -0.40174872228E+02  0.60194966154E+02  0.14452496758E+03  0.12509324911E+03 0.  0.
          5    1    3    3  502    0 -0.35604131608E+02 -0.51716198971E+02 -0.11626212300E+02  0.63991098100E+02  0.41800000000E+01 0.  1.
         -5    1    3    3    0  502  0.34303758327E+02  0.11541326743E+02  0.71821178454E+02  0.80533869476E+02  0.41800000000E+01 0.  1.
        -11    1    1    2    0    0 -0.16737379232E+02 -0.93434383718E+01  0.45890027518E+01  0.19710369109E+02  0.00000000000E+00 0. -1.
         11    1    1    2    0    0  0.18037752513E+02  0.49518310600E+02 -0.30143554822E+02  0.60712910469E+02  0.00000000000E+00 0.  1.
</event>
<event>
 7    1  0.2690635E-009  0.2664734E+03  0.7561462E-02  0.1103315E+00
         -2   -1    0    0    0  501 -0.00000000000E+00  0.00000000000E+00  0.49215820512E+02  0.49215820512E+02  0.00000000000E+00 0.  1.
          2   -1    0    0  501    0  0.00000000000E+00 -0.00000000000E+00 -0.19260134292E+04  0.19260134292E+04  0.00000000000E+00 0. -1.
         25    2    1    2    0    0  0.13137966005E+03  0.21498781741E+03 -0.14015620625E+04  0.14295110241E+04  0.12508067882E+03 0.  0.
          5    1    3    3  502    0  0.34591831052E+00 -0.15375577718E+02 -0.96126713237E+02  0.97438931888E+02  0.41800000000E+01 0.  1.
         -5    1    3    3    0  502  0.13103374174E+03  0.23036339513E+03 -0.13054353492E+04  0.13320720922E+04  0.41800000000E+01 0.  1.
        -11    1    1    2    0    0 -0.53032129611E+02 -0.86340473458E+02 -0.28866816732E+03  0.30593527903E+03  0.00000000000E+00 0.  1.
         11    1    1    2    0    0 -0.78347530436E+02 -0.12864734395E+03 -0.18656737892E+03  0.23978294666E+03  0.00000000000E+00 0. -1.
</event>
<event>
 7    1  0.2690635E-009  0.8301331E+02  0.7561462E-02  0.1320711E+00
         -2   -1    0    0    0  501 -0.00000000000E+00  0.00000000000E+00  0.74895923005E+02  0.74895923005E+02  0.00000000000E+00 0.  1.
          2   -1    0    0  501    0  0.00000000000E+00 -0.00000000000E+00 -0.15889644511E+03  0.15889644511E+03  0.00000000000E+00 0. -1.
         25    2    1    2    0    0  0.13060497419E+02  0.51111816395E+01 -0.42704113073E+02  0.13292040631E+03  0.12508993713E+03 0.  0.
          5    1    3    3  502    0  0.46211623606E+02 -0.11069550539E+02  0.26366768745E+02  0.54504385140E+02  0.41800000000E+01 0. -1.
         -5    1    3    3    0  502 -0.33151126186E+02  0.16180732178E+02 -0.69070881818E+02  0.78416021171E+02  0.41800000000E+01 0. -1.
        -11    1    1    2    0    0 -0.16088214266E+02  0.36285236511E+02  0.34463602477E+01  0.39841265365E+02  0.00000000000E+00 0.  1.
         11    1    1    2    0    0  0.30277168464E+01 -0.41396418150E+02 -0.44742769282E+02  0.61030696440E+02  0.00000000000E+00 0. -1.
</event>
<event>
 7    1  0.2690635E-009  0.1302198E+03  0.7561462E-02  0.1227130E+00
          2   -1    0    0  501    0  0.00000000000E+00  0.00000000000E+00  0.95808086256E+03  0.95808086256E+03  0.00000000000E+00 0.  1.
         -2   -1    0    0    0  501 -0.00000000000E+00 -0.00000000000E+00 -0.27381915975E+02  0.27381915975E+02  0.00000000000E+00 0. -1.
         25    2    1    2    0    0 -0.20397952291E+02 -0.93831508447E+02  0.71492864858E+03  0.73211366862E+03  0.12508806008E+03 0.  0.
          5    1    3    3  502    0 -0.30879321143E+02 -0.11942291207E+03  0.48362576068E+03  0.49912594923E+03  0.41800000000E+01 0. -1.
         -5    1    3    3    0  502  0.10481368853E+02  0.25591403624E+02  0.23130288790E+03  0.23298771938E+03  0.41800000000E+01 0. -1.
        -11    1    1    2    0    0  0.36022707241E+02  0.81629862254E+02  0.21580692819E+03  0.23352451714E+03  0.00000000000E+00 0.  1.
         11    1    1    2    0    0 -0.15624754951E+02  0.12201646193E+02 -0.36630192521E-01  0.19824592779E+02  0.00000000000E+00 0. -1.
</event>
<event>
 7    1  0.2690635E-009  0.1095674E+03  0.7561462E-02  0.1261373E+00
          2   -1    0    0  501    0  0.00000000000E+00  0.00000000000E+00  0.60921642378E+03  0.60921642378E+03  0.00000000000E+00 0. -1.
         -2   -1    0    0    0  501 -0.00000000000E+00 -0.00000000000E+00 -0.23857176435E+02  0.23857176435E+02  0.00000000000E+00 0.  1.
         25    2    1    2    0    0  0.31959772922E+02 -0.23756752909E+01  0.21989633406E+03  0.25500841042E+03  0.12509124963E+03 0.  0.
          5    1    3    3  502    0 -0.35503169887E+02 -0.35784935206E+02  0.11680851869E+03  0.12728998036E+03  0.41800000000E+01 0.  1.
         -5    1    3    3    0  502  0.67462942810E+02  0.33409259915E+02  0.10308781537E+03  0.12771843007E+03  0.41800000000E+01 0.  1.
        -11    1    1    2    0    0  0.10771785782E+02  0.36760858569E+02  0.10205352592E+03  0.10900602847E+03  0.00000000000E+00 0. -1.
         11    1    1    2    0    0 -0.42731558705E+02 -0.34385183278E+02  0.26340938737E+03  0.26905916132E+03  0.00000000000E+00 0.  1.
</event>
<event>
 7    1  0.2690635E-009  0.1043839E+03  0.7561462E-02  0.1271338E+00
          2   -1    0    0  501    0  0.00000000000E+00  0.00000000000E+00  0.12151273468E+02  0.12151273468E+02  0.00000000000E+00 0. -1.
         -2   -1    0    0    0  501 -0.00000000000E+00 -0.00000000000E+00 -0.12310263366E+04  0.12310263366E+04  0.00000000000E+00 0.  1.
         25    2    1    2    0    0  0.35615599611E+02 -0.21534142814E+01 -0.91185744838E+03  0.92108875483E+03  0.12508948790E+03 0.  0.
          5    1    3    3  502    0  0.57755654937E+02  0.47884922165E+02 -0.54083312900E+03  0.54602804624E+03  0.41800000000E+01 0. -1.
         -5    1    3    3    0  502 -0.22140055326E+02 -0.50038336446E+02 -0.37102431937E+03  0.37506070859E+03  0.41800000000E+01 0. -1.
        -11    1    1    2    0    0  0.15087048455E+02 -0.18612790126E+02 -0.24353580495E+02  0.34163604469E+02  0.00000000000E+00 0. -1.
         11    1    1    2    0    0 -0.50702648065E+02  0.20766204408E+02 -0.28266403422E+03  0.28792525073E+03  0.00000000000E+00 0.  1.
</event>
<event>
 7    1  0.2690635E-009  0.1197792E+03  0.7561462E-02  0.1243462E+00
          1   -1    0    0  501    0  0.00000000000E+00  0.00000000000E+00  0.27115289255E+02  0.27115289255E+02  0.00000000000E+00 0. -1.
         -1   -1    0    0    0  501 -0.00000000000E+00 -0.00000000000E+00 -0.59241782025E+03  0.59241782025E+03  0.00000000000E+00 0.  1.
         25    2    1    2    0    0  0.14349471006E+02 -0.60061678395E+02 -0.27995236554E+03  0.31278376731E+03  0.12508815129E+03 0.  0.
          5    1    3    3  502    0  0.69203991066E+02 -0.40525551623E+02 -0.17852375049E+03  0.19575421988E+03  0.41800000000E+01 0.  1.
         -5    1    3    3    0  502 -0.54854520060E+02 -0.19536126772E+02 -0.10142861505E+03  0.11702954743E+03  0.41800000000E+01 0.  1.
        -11    1    1    2    0    0  0.22390780768E+02  0.60097474217E+02 -0.23980425613E+03  0.24823201793E+03  0.00000000000E+00 0.  1.
         11    1    1    2    0    0 -0.36740251774E+02 -0.35795822189E-01 -0.45545909330E+02  0.58517324259E+02  0.00000000000E+00 0. -1.
</event>
<event>
 7    1  0.2690635E-009  0.8947885E+02  0.7561462E-02  0.1304119E+00
         -2   -1    0    0    0  501 -0.00000000000E+00  0.00000000000E+00  0.49541528911E+02  0.49541528911E+02  0.00000000000E+00 0.  1.
          2   -1    0    0  501    0  0.00000000000E+00 -0.00000000000E+00 -0.34665093918E+03  0.34665093918E+03  0.00000000000E+00 0. -1.
         25    2    1    2    0    0  0.91350687946E+00 -0.31109756792E+02 -0.63989651564E+02  0.14391102033E+03  0.12508818810E+03 0.  0.
          5    1    3    3  502    0  0.30373859299E+02 -0.44226297400E+02  0.17163431767E+02  0.56485329958E+02  0.41800000000E+01 0. -1.
         -5    1    3    3    0  502 -0.29460352419E+02  0.13116540608E+02 -0.81153083331E+02  0.87425690368E+02  0.41800000000E+01 0. -1.
        -11    1    1    2    0    0 -0.17213755957E+02  0.58374269951E+02 -0.11683029018E+03  0.13173149013E+03  0.00000000000E+00 0.  1.
         11    1    1    2    0    0  0.16300249077E+02 -0.27264513159E+02 -0.11628946852E+03  0.12054995764E+03  0.00000000000E+00 0. -1.
</event>
<event>
 7    1  0.2690635E-009  0.1283802E+03  0.7561462E-02  0.1229879E+00
         -2   -1    0    0    0  501 -0.00000000000E+00  0.00000000000E+00  0.52538275790E+02  0.52538275790E+02  0.00000000000E+00 0.  1.
          2   -1    0    0  501    0  0.00000000000E+00 -0.00000000000E+00 -0.44673677534E+03  0.44673677534E+03  0.00000000000E+00 0. -1.
         25    2    1    2    0    0  0.67024592299E+02  0.76680164831E+02 -0.15764991892E+03  0.22555347683E+03  0.12509488528E+03 0.  0.
          5    1    3    3  502    0  0.34568192618E+02 -0.11254301137E+02  0.58367123920E+01  0.37056158010E+02  0.41800000000E+01 0.  1.
         -5    1    3    3    0  502  0.32456399682E+02  0.87934465968E+02 -0.16348663131E+03  0.18849731882E+03  0.41800000000E+01 0.  1.
        -11    1    1    2    0    0 -0.21769140160E+02 -0.78085571024E+02 -0.19908027722E+03  0.21495164257E+03  0.00000000000E+00 0. -1.
         11    1    1    2    0    0 -0.45255452140E+02  0.14054061933E+01 -0.37468303410E+02  0.58769931728E+02  0.00000000000E+00 0.  1.
</event>
<event>
 7    1  0.2690635E-009  0.1122968E+03  0.7561462E-02  0.1256375E+00
         -2   -1    0    0    0  501 -0.00000000000E+00  0.00000000000E+00  0.29548692795E+02  0.29548692795E+02  0.00000000000E+00 0.  1.
          2   -1    0    0  501    0  0.00000000000E+00 -0.00000000000E+00 -0.57642652286E+03  0.57642652286E+03  0.00000000000E+00 0. -1.
         25    2    1    2    0    0 -0.72826673164E+02 -0.36688223461E+02 -0.31661062166E+03  0.35005430470E+03  0.12508389355E+03 0.  0.
          5    1    3    3  502    0  0.17025040129E+02 -0.17831040627E+01  0.14507224573E+01  0.17680736612E+02  0.41800000000E+01 0.  1.
         -5    1    3    3    0  502 -0.89851713294E+02 -0.34905119398E+02 -0.31806134412E+03  0.33237356809E+03  0.41800000000E+01 0.  1.
        -11    1    1    2    0    0  0.66568175352E+02 -0.64671433027E+01 -0.12063515269E+03  0.13793471636E+03  0.00000000000E+00 0.  1.
         11    1    1    2    0    0  0.62584978127E+01  0.43155366763E+02 -0.10963205571E+03  0.11798619459E+03  0.00000000000E+00 0. -1.
</event>
<event>
 7    1  0.2690635E-009  0.1111270E+03  0.7561462E-02  0.1258497E+00
          1   -1    0    0  501    0  0.00000000000E+00  0.00000000000E+00  0.59795601325E+02  0.59795601325E+02  0.00000000000E+00 0. -1.
         -1   -1    0    0    0  501 -0.00000000000E+00 -0.00000000000E+00 -0.36286680550E+03  0.36286680550E+03  0.00000000000E+00 0.  1.
         25    2    1    2    0    0 -0.86506564452E+02  0.27794494695E+02 -0.11104200978E+03  0.19035164930E+03  0.12508997892E+03 0.  0.
          5    1    3    3  502    0 -0.47779773956E+02  0.39943261238E+02  0.94596753097E+01  0.63129460433E+02  0.41800000000E+01 0. -1.
         -5    1    3    3    0  502 -0.38726790496E+02 -0.12148766543E+02 -0.12050168509E+03  0.12722218887E+03  0.41800000000E+01 0. -1.
        -11    1    1    2    0    0  0.38669399076E+02  0.26343643837E+02 -0.12611468280E+03  0.13451476950E+03  0.00000000000E+00 0.  1.
         11    1    1    2    0    0  0.47837165376E+02 -0.54138138532E+02 -0.65914511590E+02  0.97795988021E+02  0.00000000000E+00 0. -1.
</event>
<event>
 7    1  0.2690635E-009  0.1613892E+03  0.7561462E-02  0.1187137E+00
         -1   -1    0    0    0  501 -0.00000000000E+00  0.00000000000E+00  0.27897519345E+02  0.27897519345E+02  0.00000000000E+00 0.  1.
          1   -1    0    0  501    0  0.00000000000E+00 -0.00000000000E+00 -0.10910116014E+04  0.10910116014E+04  0.00000000000E+00 0. -1.
         25    2    1    2    0    0 -0.28488465436E+02 -0.12745447919E+03 -0.44241989301E+03  0.47795625814E+03  0.12510230226E+03 0.  0.
          5    1    3    3  502    0 -0.65521304702E+02 -0.11051465515E+03 -0.39458540542E+03  0.41499595774E+03  0.41800000000E+01 0. -1.
         -5    1    3    3    0  502  0.37032839266E+02 -0.16939824037E+02 -0.47834487598E+02  0.62960300399E+02  0.41800000000E+01 0. -1.
        -11    1    1    2    0    0  0.13656705803E+02 -0.87933161239E+01 -0.25890927016E+02  0.30564164042E+02  0.00000000000E+00 0.  1.
         11    1    1    2    0    0  0.14831759633E+02  0.13624779531E+03 -0.59480326207E+03  0.61038869861E+03  0.00000000000E+00 0. -1.
</event>
<event>
 7    1  0.2690635E-009  0.1277141E+03  0.7561462E-02  0.1230888E+00
         -3   -1    0    0    0  501 -0.00000000000E+00  0.00000000000E+00  0.30847301702E+03  0.30847301702E+03  0.00000000000E+00 0.  1.
          3   -1    0    0  501    0  0.00000000000E+00 -0.00000000000E+00 -0.65505856735E+02  0.65505856735E+02  0.00000000000E+00 0. -1.
         25    2    1    2    0    0 -0.44756355961E+02  0.60371123605E+02  0.20173107784E+03  0.24898933514E+03  0.12510978092E+03 0.  0.
          5    1    3    3  502    0 -0.86476500978E+02  0.23254751710E+02  0.11627261717E+03  0.14681880875E+03  0.41800000000E+01 0.  1.
         -5    1    3    3    0  502  0.41720145017E+02  0.37116371896E+02  0.85458460670E+02  0.10217052639E+03  0.41800000000E+01 0.  1.
        -11    1    1    2    0    0  0.92659157855E+01 -0.71880214318E+02  0.44765818801E+01  0.72613099307E+02  0.00000000000E+00 0. -1.
         11    1    1    2    0    0  0.35490440175E+02  0.11509090712E+02  0.36759500562E+02  0.52376439307E+02  0.00000000000E+00 0.  1.
</event>
<event>
 7    1  0.2690635E-009  0.1305280E+03  0.7561462E-02  0.1226674E+00
          2   -1    0    0  501    0  0.00000000000E+00  0.00000000000E+00  0.10026652042E+04  0.10026652042E+04  0.00000000000E+00 0. -1.
         -2   -1    0    0    0  501 -0.00000000000E+00 -0.00000000000E+00 -0.30655132417E+02  0.30655132417E+02  0.00000000000E+00 0.  1.
         25    2    1    2    0    0 -0.10417589790E+03 -0.68201899285E+02  0.70446950798E+03  0.72624289081E+03  0.12508929615E+03 0.  0.
          5    1    3    3  502    0 -0.38016058113E+02 -0.44220633539E+01  0.50631054907E+03  0.50777221253E+03  0.41800000000E+01 0.  1.
         -5    1    3    3    0  502 -0.66159839791E+02 -0.63779835931E+02  0.19815895891E+03  0.21847067828E+03  0.41800000000E+01 0.  1.
        -11    1    1    2    0    0  0.53524810052E+02  0.11899817317E+02  0.19367514563E+03  0.20128728966E+03  0.00000000000E+00 0. -1.
         11    1    1    2    0    0  0.50651087852E+02  0.56302081968E+02  0.73865418157E+02  0.10579015613E+03  0.00000000000E+00 0.  1.
</event>
<event>
 7    1  0.2690635E-009  0.7448955E+02  0.7561462E-02  0.1345459E+00
          1   -1    0    0  501    0  0.00000000000E+00  0.00000000000E+00  0.17400588684E+03  0.17400588684E+03  0.00000000000E+00 0. -1.
         -1   -1    0    0    0  501 -0.00000000000E+00 -0.00000000000E+00 -0.83178209410E+02  0.83178209410E+02  0.00000000000E+00 0.  1.
         25    2    1    2    0    0  0.71997704439E+01 -0.50711065330E+02  0.35634961152E+02  0.13978705880E+03  0.12508845874E+03 0.  0.
          5    1    3    3  502    0  0.16651904574E+02 -0.41160856685E+01 -0.43739591469E+02  0.47168340537E+02  0.41800000000E+01 0. -1.
         -5    1    3    3    0  502 -0.94521341305E+01 -0.46594979662E+02  0.79374552621E+02  0.92618718265E+02  0.41800000000E+01 0. -1.
        -11    1    1    2    0    0 -0.36127282220E+02  0.36540573496E+02  0.65797197230E+02  0.83484520693E+02  0.00000000000E+00 0.  1.
         11    1    1    2    0    0  0.28927511776E+02  0.14170491835E+02 -0.10604480952E+02  0.33912516755E+02  0.00000000000E+00 0. -1.
</event>
<event>
 7    1  0.2690635E-009  0.1115285E+03  0.7561462E-02  0.1257765E+00
         -1   -1    0    0    0  501 -0.00000000000E+00  0.00000000000E+00  0.45460468969E+02  0.45460468969E+02  0.00000000000E+00 0.  1.
          1   -1    0    0  501    0  0.00000000000E+00 -0.00000000000E+00 -0.37670476158E+03  0.37670476158E+03  0.00000000000E+00 0. -1.
         25    2    1    2    0    0  0.53559673806E+02 -0.50301569087E+02 -0.18966349162E+03  0.23879083585E+03  0.12509970711E+03 0.  0.
          5    1    3    3  502    0  0.83097359883E+02 -0.17530316418E+02 -0.17046545659E+03  0.19049521649E+03  0.41800000000E+01 0.  1.
         -5    1    3    3    0  502 -0.29537686076E+02 -0.32771252669E+02 -0.19198035026E+02  0.48295619357E+02  0.41800000000E+01 0.  1.
        -11    1    1    2    0    0 -0.16786113691E+02  0.54192771047E+02 -0.13415432233E+03  0.14565717368E+03  0.00000000000E+00 0. -1.
         11    1    1    2    0    0 -0.36773560116E+02 -0.38912019594E+01 -0.74264786657E+01  0.37717221022E+02  0.00000000000E+00 0.  1.
</event>
<event>
 7    1  0.2690635E-009  0.2701651E+03  0.7561462E-02  0.1101185E+00
          2   -1    0    0  501    0  0.00000000000E+00  0.00000000000E+00  0.86952105878E+03  0.86952105878E+03  0.00000000000E+00 0. -1.
         -2   -1    0    0    0  501 -0.00000000000E+00 -0.00000000000E+00 -0.16886238760E+03  0.16886238760E+03  0.00000000000E+00 0.  1.
         25    2    1    2    0    0 -0.28744636216E+02  0.24573586906E+03 -0.13025923527E+02  0.27754126326E+03  0.12508839544E+03 0.  0.
          5    1    3    3  502    0 -0.72750023191E+02  0.20118878616E+03 -0.17040921145E+02  0.21465637411E+03  0.41800000000E+01 0.  1.
         -5    1    3    3    0  502  0.44005386975E+02  0.44547082894E+02  0.40149976184E+01  0.62884889147E+02  0.41800000000E+01 0.  1.
        -11    1    1    2    0    0  0.34977101894E+02 -0.25536310526E+02  0.10965714929E+03  0.11789907211E+03  0.00000000000E+00 0. -1.
         11    1    1    2    0    0 -0.62324656771E+01 -0.22019955853E+03  0.60402744541E+03  0.64294311102E+03  0.00000000000E+00 0.  1.
</event>
<event>
 7    1  0.2690635E-009  0.1102884E+03  0.7561462E-02  0.1260037E+00
          1   -1    0    0  501    0  0.00000000000E+00  0.00000000000E+00  0.77681880805E+02  0.77681880805E+02  0.00000000000E+00 0. -1.
         -1   -1    0    0    0  501 -0.00000000000E+00 -0.00000000000E+00 -0.18580359162E+03  0.18580359162E+03  0.00000000000E+00 0.  1.
         25    2    1    2    0    0 -0.27246003720E+02  0.42431648978E+02 -0.82158361498E+02  0.15792617261E+03  0.12509152680E+03 0.  0.
          5    1    3    3  502    0 -0.64481750497E+02 -0.59765706124E+01 -0.14136245643E+02  0.66414767818E+02  0.41800000000E+01 0. -1.
         -5    1    3    3    0  502  0.37235746777E+02  0.48408219590E+02 -0.68022115855E+02  0.91511404794E+02  0.41800000000E+01 0. -1.
        -11    1    1    2    0    0 -0.55286347062E+00  0.23192567113E+02  0.10544954801E+02  0.25483267041E+02  0.00000000000E+00 0.  1.
         11    1    1    2    0    0  0.27798867191E+02 -0.65624216091E+02 -0.36508304115E+02  0.80076032769E+02  0.00000000000E+00 0. -1.
</event>
<event>
 7    1  0.2690635E-009  0.1170437E+03  0.7561462E-02  0.1248055E+00
         -1   -1    0    0    0  501 -0.00000000000E+00  0.00000000000E+00  0.39111357202E+02  0.39111357202E+02  0.00000000000E+00 0.  1.
          1   -1    0    0  501    0  0.00000000000E+00 -0.00000000000E+00 -0.57197401489E+03  0.57197401489E+03  0.00000000000E+00 0. -1.
         25    2    1    2    0    0  0.38566539279E+02  0.63135598672E+02 -0.41624721555E+03  0.44088632795E+03  0.12508208483E+03 0.  0.
          5    1    3    3  502    0  0.80447510539E+02  0.50307808656E+02 -0.33828749287E+03  0.35136672836E+03  0.41800000000E+01 0. -1.
         -5    1    3    3    0  502 -0.41880971261E+02  0.12827790016E+02 -0.77959722677E+02  0.89519599587E+02  0.41800000000E+01 0. -1.
        -11    1    1    2    0    0 -0.39154706185E+02 -0.79872962448E+01 -0.10699617675E+03  0.11421501546E+03  0.00000000000E+00 0. -1.
         11    1    1    2    0    0  0.58816690628E+00 -0.55148302427E+02 -0.96192653873E+01  0.55984028682E+02  0.00000000000E+00 0.  1.
</event>
<event>
 7    1  0.2690635E-009  0.1787703E+03  0.7561462E-02  0.1168998E+00
         -1   -1    0    0    0  501 -0.00000000000E+00  0.00000000000E+00  0.13179238126E+03  0.13179238126E+03  0.00000000000E+00 0.  1.
          1   -1    0    0  501    0  0.00000000000E+00 -0.00000000000E+00 -0.31036916858E+03  0.31036916858E+03  0.00000000000E+00 0. -1.
         25    2    1    2    0    0  0.20405207395E+02 -0.14071237522E+03 -0.19407036990E+03  0.27116302183E+03  0.12509888451E+03 0.  0.
          5    1    3    3  502    0 -0.42616956213E+02 -0.11180376853E+03 -0.11678967518E+03  0.16725306647E+03  0.41800000000E+01 0.  1.
         -5    1    3    3    0  502  0.63022163608E+02 -0.28908606693E+02 -0.77280694717E+02  0.10390995536E+03  0.41800000000E+01 0.  1.
        -11    1    1    2    0    0 -0.56383983138E+02  0.82735474436E+02 -0.34612736714E+01  0.10018129915E+03  0.00000000000E+00 0. -1.
         11    1    1    2    0    0  0.35978775743E+02  0.57976900787E+02  0.18954856249E+02  0.70817228866E+02  0.00000000000E+00 0.  1.
</event>
<event>
 7    1  0.2690635E-009  0.1284306E+03  0.7561462E-02  0.1229803E+00
          3   -1    0    0  501    0  0.00000000000E+00  0.00000000000E+00  0.92093668033E+02  0.92093668033E+02  0.00000000000E+00 0. -1.
         -3   -1    0    0    0  501 -0.00000000000E+00 -0.00000000000E+00 -0.20465691490E+03  0.20465691490E+03  0.00000000000E+00 0.  1.
         25    2    1    2    0    0  0.29530821504E+02  0.69155900171E+02 -0.27637363987E+02  0.14854388167E+03  0.12508738125E+03 0.  0.
          5    1    3    3  502    0  0.45602678771E+02 -0.23015126376E+02 -0.13512455561E+01  0.51269860716E+02  0.41800000000E+01 0.  1.
         -5    1    3    3    0  502 -0.16071857268E+02  0.92171026548E+02 -0.26286118431E+02  0.97274020957E+02  0.41800000000E+01 0.  1.
        -11    1    1    2    0    0  0.29253721826E+02 -0.23383950144E+02 -0.31532684924E+01  0.37583672881E+02  0.00000000000E+00 0. -1.
         11    1    1    2    0    0 -0.58784543330E+02 -0.45771950028E+02 -0.81772614386E+02  0.11062302838E+03  0.00000000000E+00 0.  1.
</event>
<event>
 7    1  0.2690635E-009  0.1058839E+03  0.7561462E-02  0.1268388E+00
          1   -1    0    0  501    0  0.00000000000E+00  0.00000000000E+00  0.70893334177E+02  0.70893334177E+02  0.00000000000E+00 0.  1.
         -1   -1    0    0    0  501 -0.00000000000E+00 -0.00000000000E+00 -0.17232639296E+03  0.17232639296E+03  0.00000000000E+00 0. -1.
         25    2    1    2    0    0 -0.11547004188E+02  0.14873286976E+02 -0.47911494586E+02  0.13527205070E+03  0.12509383844E+03 0.  0.
          5    1    3    3  502    0 -0.49751750942E+02 -0.30682370609E+02 -0.47873213482E+02  0.75670083633E+02  0.41800000000E+01 0.  1.
         -5    1    3    3    0  502  0.38204746754E+02  0.45555657585E+02 -0.38281104396E-01  0.59601967065E+02  0.41800000000E+01 0.  1.
        -11    1    1    2    0    0  0.32178243118E+01  0.38959002218E+02 -0.19075285391E+02  0.43497410956E+02  0.00000000000E+00 0.  1.
         11    1    1    2    0    0  0.83291798764E+01 -0.53832289194E+02 -0.34446278806E+02  0.64450265484E+02  0.00000000000E+00 0. -1.
</event>
<event>
 7    1  0.2690635E-009  0.1065966E+03  0.7561462E-02  0.1267006E+00
         -4   -1    0    0    0  501 -0.00000000000E+00  0.00000000000E+00  0.25680514764E+03  0.25680514764E+03  0.00000000000E+00 0. -1.
          4   -1    0    0  501    0  0.00000000000E+00 -0.00000000000E+00 -0.82935594748E+02  0.82935594748E+02  0.00000000000E+00 0.  1.
         25    2    1    2    0    0  0.75599045430E+02 -0.21017064198E+02  0.26983778799E+02  0.15011334762E+03  0.12509580391E+03 0.  0.
          5    1    3    3  502    0  0.33895709753E+02  0.32368802553E+02  0.58670259575E+02  0.75208578480E+02  0.41800000000E+01 0. -1.
         -5    1    3    3    0  502  0.41703335677E+02 -0.53385866751E+02 -0.31686480776E+02  0.74904769136E+02  0.41800000000E+01 0. -1.
        -11    1    1    2    0    0 -0.22653163947E+01 -0.15971944346E+02 -0.50572488490E+01  0.16905928856E+02  0.00000000000E+00 0.  1.
         11    1    1    2    0    0 -0.73333729035E+02  0.36989008544E+02  0.15194302295E+03  0.17272146592E+03  0.00000000000E+00 0. -1.
</event>
<event>
 7    1  0.2690635E-009  0.1092629E+03  0.7561462E-02  0.1261941E+00
          4   -1    0    0  501    0  0.00000000000E+00  0.00000000000E+00  0.63983167061E+03  0.63983167061E+03  0.00000000000E+00 0. -1.
         -4   -1    0    0    0  501 -0.00000000000E+00 -0.00000000000E+00 -0.21406419065E+02  0.21406419065E+02  0.00000000000E+00 0.  1.
         25    2    1    2    0    0 -0.28933900114E+02 -0.32270266180E+02  0.39789470989E+03  0.41934020531E+03  0.12508983562E+03 0.  0.
          5    1    3    3  502    0 -0.66944295389E+02 -0.54102102243E+02  0.22532543121E+03  0.24124178433E+03  0.41800000000E+01 0.  1.
         -5    1    3    3    0  502  0.38010395275E+02  0.21831836062E+02  0.17256927867E+03  0.17809842098E+03  0.41800000000E+01 0.  1.
        -11    1    1    2    0    0  0.42211723843E+02  0.50466518174E+02  0.10294031394E+03  0.12216958427E+03  0.00000000000E+00 0.  1.
         11    1    1    2    0    0 -0.13277823729E+02 -0.18196251994E+02  0.11759022772E+03  0.11972830010E+03  0.00000000000E+00 0. -1.
</event>
<event>
 7    1  0.2690635E-009  0.6062163E+02  0.7561462E-02  0.1395241E+00
         -3   -1    0    0    0  501 -0.00000000000E+00  0.00000000000E+00  0.47793710982E+02  0.47793710982E+02  0.00000000000E+00 0.  1.
          3   -1    0    0  501    0  0.00000000000E+00 -0.00000000000E+00 -0.26028330660E+03  0.26028330660E+03  0.00000000000E+00 0. -1.
         25    2    1    2    0    0 -0.16712382826E+02 -0.11619114388E+02 -0.14596773903E+03  0.19330948518E+03  0.12509064180E+03 0.  0.
          5    1    3    3  502    0 -0.37876993338E+01  0.23399431910E+02  0.14770911242E+02  0.28240614350E+02  0.41800000000E+01 0. -1.
         -5    1    3    3    0  502 -0.12924683492E+02 -0.35018546299E+02 -0.16073865027E+03  0.16506887083E+03  0.41800000000E+01 0. -1.
        -11    1    1    2    0    0 -0.47820886406E+00 -0.21919675462E+02 -0.73270335611E+02  0.76480343466E+02  0.00000000000E+00 0. -1.
         11    1    1    2    0    0  0.17190591690E+02  0.33538789850E+02  0.67484790191E+01  0.38287188932E+02  0.00000000000E+00 0.  1.
</event>
<event>
 7    1  0.2690635E-009  0.1675125E+03  0.7561462E-02  0.1180467E+00
          2   -1    0    0  501    0  0.00000000000E+00  0.00000000000E+00  0.57534767231E+03  0.57534767231E+03  0.00000000000E+00 0. -1.
         -2   -1    0    0    0  501 -0.00000000000E+00 -0.00000000000E+00 -0.10452216871E+03  0.10452216871E+03  0.00000000000E+00 0.  1.
         25    2    1    2    0    0  0.84996368996E+02 -0.12733109288E+03  0.46056104393E+03  0.50119998615E+03  0.12508941192E+03 0.  0.
          5    1    3    3  502    0  0.13807492840E+01  0.10512398947E+02  0.15738436292E+03  0.15779647363E+03  0.41800000000E+01 0.  1.
         -5    1    3    3    0  502  0.83615619712E+02 -0.13784349182E+03  0.30317668101E+03  0.34340351252E+03  0.41800000000E+01 0.  1.
        -11    1    1    2    0    0 -0.12657526879E+02  0.66918141778E+02 -0.32157280612E+02  0.75314947932E+02  0.00000000000E+00 0.  1.
         11    1    1    2    0    0 -0.72338842117E+02  0.60412951098E+02  0.42421740281E+02  0.10335490694E+03  0.00000000000E+00 0. -1.
</event>
<event>
 7    1  0.2690635E-009  0.1434486E+03  0.7561462E-02  0.1208763E+00
          1   -1    0    0  501    0  0.00000000000E+00  0.00000000000E+00  0.24715079081E+02  0.24715079081E+02  0.00000000000E+00 0. -1.
         -1   -1    0    0    0  501 -0.00000000000E+00 -0.00000000000E+00 -0.11831441742E+04  0.11831441742E+04  0.00000000000E+00 0.  1.
         25    2    1    2    0    0 -0.11520159012E+03 -0.16164955412E+02 -0.83655316468E+03  0.85381692509E+03  0.12509769015E+03 0.  0.
          5    1    3    3  502    0 -0.81996928035E+02 -0.69258716401E+02 -0.49120390881E+03  0.50281111607E+03  0.41800000000E+01 0.  1.
         -5    1    3    3    0  502 -0.33204662086E+02  0.53093760990E+02 -0.34534925587E+03  0.35100580902E+03  0.41800000000E+01 0.  1.
        -11    1    1    2    0    0  0.76912193192E+02  0.62256769549E+01 -0.88838734497E+02  0.11767142925E+03  0.00000000000E+00 0. -1.
         11    1    1    2    0    0  0.38289396929E+02  0.99392784566E+01 -0.23303719590E+03  0.23637089890E+03  0.00000000000E+00 0.  1.
</event>
<event>
 7    1  0.2690635E-009  0.1121645E+03  0.7561462E-02  0.1256613E+00
         -1   -1    0    0    0  501 -0.00000000000E+00  0.00000000000E+00  0.32421398890E+02  0.32421398890E+02  0.00000000000E+00 0.  1.
          1   -1    0    0  501    0  0.00000000000E+00 -0.00000000000E+00 -0.45028566190E+03  0.45028566190E+03  0.00000000000E+00 0. -1.
         25    2    1    2    0    0  0.34319386910E+02 -0.13616596258E+02 -0.15367916467E+03  0.20156650120E+03  0.12509411154E+03 0.  0.
          5    1    3    3  502    0 -0.32694338558E+02  0.34573112392E+02 -0.57761279382E+02  0.74953703511E+02  0.41800000000E+01 0.  1.
         -5    1    3    3    0  502  0.67013725468E+02 -0.48189708650E+02 -0.95917885291E+02  0.12661279769E+03  0.41800000000E+01 0.  1.
        -11    1    1    2    0    0 -0.56147189096E+02 -0.14816621444E+02 -0.13254460159E+03  0.14470698161E+03  0.00000000000E+00 0.  1.
         11    1    1    2    0    0  0.21827802186E+02  0.28433217702E+02 -0.13164049674E+03  0.13643357798E+03  0.00000000000E+00 0. -1.
</event>
<event>
 7    1  0.2690635E-009  0.1458102E+03  0.7561462E-02  0.1205718E+00
          4   -1    0    0  501    0  0.00000000000E+00  0.00000000000E+00  0.72536840011E+02  0.72536840011E+02  0.00000000000E+00 0. -1.
         -4   -1    0    0    0  501 -0.00000000000E+00 -0.00000000000E+00 -0.59842155540E+03  0.59842155540E+03  0.00000000000E+00 0.  1.
         25    2    1    2    0    0 -0.12520263588E+03 -0.48212865625E+02 -0.46216437551E+03  0.49723569866E+03  0.12508896671E+03 0.  0.
          5    1    3    3  502    0 -0.88005617820E+02 -0.43264740641E+02 -0.12980178243E+03  0.16273537314E+03  0.41800000000E+01 0. -1.
         -5    1    3    3    0  502 -0.37197018059E+02 -0.49481249838E+01 -0.33236259308E+03  0.33450032552E+03  0.41800000000E+01 0. -1.
        -11    1    1    2    0    0  0.68024260592E+02  0.67043471629E+02 -0.15862718108E+02  0.96818143667E+02  0.00000000000E+00 0. -1.
         11    1    1    2    0    0  0.57178375287E+02 -0.18830606004E+02 -0.47857621773E+02  0.76904553082E+02  0.00000000000E+00 0.  1.
</event>
<event>
 7    1  0.2690635E-009  0.1759747E+03  0.7561462E-02  0.1171757E+00
          2   -1    0    0  501    0  0.00000000000E+00  0.00000000000E+00  0.10784843965E+04  0.10784843965E+04  0.00000000000E+00 0. -1.
         -2   -1    0    0    0  501 -0.00000000000E+00 -0.00000000000E+00 -0.31506838099E+02  0.31506838099E+02  0.00000000000E+00 0.  1.
         25    2    1    2    0    0 -0.14310479812E+03 -0.37439659959E+02  0.52276698399E+03  0.55750688177E+03  0.12509153565E+03 0.  0.
          5    1    3    3  502    0 -0.72457026460E+02 -0.76831449106E+02  0.36733245146E+03  0.38223512992E+03  0.41800000000E+01 0.  1.
         -5    1    3    3    0  502 -0.70647771656E+02  0.39391789147E+02  0.15543453253E+03  0.17527175185E+03  0.41800000000E+01 0.  1.
        -11    1    1    2    0    0  0.15440129227E+02  0.34237619052E+02  0.57991763745E+02  0.69091655149E+02  0.00000000000E+00 0. -1.
         11    1    1    2    0    0  0.12766466889E+03  0.32020409068E+01  0.46621881065E+03  0.48339269766E+03  0.00000000000E+00 0.  1.
</event>
<event>
 7    1  0.2690635E-009  0.5853391E+02  0.7561462E-02  0.1404089E+00
         -1   -1    0    0    0  501 -0.00000000000E+00  0.00000000000E+00  0.40206201712E+02  0.40206201712E+02  0.00000000000E+00 0.  1.
          1   -1    0    0  501    0  0.00000000000E+00 -0.00000000000E+00 -0.30372045423E+03  0.30372045423E+03  0.00000000000E+00 0. -1.
         25    2    1    2    0    0  0.11517663087E+02  0.10166351089E+02 -0.18431647313E+03  0.22328578506E+03  0.12509183940E+03 0.  0.
          5    1    3    3  502    0  0.13081549464E+02  0.25415230656E+02 -0.19933804061E+03  0.20142042528E+03  0.41800000000E+01 0. -1.
         -5    1    3    3    0  502 -0.15638863769E+01 -0.15248879568E+02  0.15021567479E+02  0.21865359777E+02  0.41800000000E+01 0. -1.
        -11    1    1    2    0    0 -0.41421307731E+02 -0.29336166595E+01 -0.69333936749E+01  0.42099914355E+02  0.00000000000E+00 0.  1.
         11    1    1    2    0    0  0.29903644643E+02 -0.72327344290E+01 -0.72264385709E+02  0.78540956527E+02  0.00000000000E+00 0. -1.
</event>
<event>
 7    1  0.2690635E-009  0.1213849E+03  0.7561462E-02  0.1240830E+00
         -1   -1    0    0    0  501 -0.00000000000E+00  0.00000000000E+00  0.17013254445E+03  0.17013254445E+03  0.00000000000E+00 0.  1.
          1   -1    0    0  501    0  0.00000000000E+00 -0.00000000000E+00 -0.11855544404E+03  0.11855544404E+03  0.00000000000E+00 0. -1.
         25    2    1    2    0    0  0.78070740214E+02  0.38077945038E+02  0.57033140650E+02  0.16261419795E+03  0.12508248425E+03 0.  0.
          5    1    3    3  502    0  0.85487674165E+02  0.61768590970E+02  0.60135903285E+01  0.10572197942E+03  0.41800000000E+01 0.  1.
         -5    1    3    3    0  502 -0.74169339514E+01 -0.23690645932E+02  0.51019550322E+02  0.56892218527E+02  0.41800000000E+01 0.  1.
        -11    1    1    2    0    0 -0.28230611211E+02  0.20680968884E+02  0.25226327613E+02  0.43139743719E+02  0.00000000000E+00 0.  1.
         11    1    1    2    0    0 -0.49840129003E+02 -0.58758913922E+02 -0.30682367854E+02  0.82934046817E+02  0.00000000000E+00 0. -1.
</event>
<event>
 7    1  0.2690635E-009  0.2785845E+03  0.7561462E-02  0.1096465E+00
          2   -1    0    0  501    0  0.00000000000E+00  0.00000000000E+00  0.59308282289E+03  0.59308282289E+03  0.00000000000E+00 0. -1.
         -2   -1    0    0    0  501 -0.00000000000E+00 -0.00000000000E+00 -0.14258007581E+03  0.14258007581E+03  0.00000000000E+00 0.  1.
         25    2    1    2    0    0 -0.74543161533E+02  0.24670466859E+03  0.12924731847E+03  0.31428050931E+03  0.12508993870E+03 0.  0.
          5    1    3    3  502    0  0.11643977616E+01  0.19124072260E+03  0.72748431565E+02  0.20465623982E+03  0.41800000000E+01 0.  1.
         -5    1    3    3    0  502 -0.75707559295E+02  0.55463945992E+02  0.56498886900E+02  0.10962426949E+03  0.41800000000E+01 0.  1.
        -11    1    1    2    0    0  0.21455294965E+02 -0.20108765335E+01  0.34699003675E+02  0.40845980984E+02  0.00000000000E+00 0. -1.
         11    1    1    2    0    0  0.53087866568E+02 -0.24469379206E+03  0.28655642494E+03  0.38053640841E+03  0.00000000000E+00 0.  1.
</event>
<event>
 7    1  0.2690635E-009  0.8697751E+02  0.7561462E-02  0.1310341E+00
          1   -1    0    0  501    0  0.00000000000E+00  0.00000000000E+00  0.49267712936E+03  0.49267712936E+03  0.00000000000E+00 0. -1.
         -1   -1    0    0    0  501 -0.00000000000E+00 -0.00000000000E+00 -0.38511490253E+02  0.38511490253E+02  0.00000000000E+00 0.  1.
         25    2    1    2    0    0  0.64793284095E+01 -0.48933390291E+01  0.41252894095E+03  0.43115401218E+03  0.12509088150E+03 0.  0.
          5    1    3    3  502    0 -0.50512730991E+02  0.21118902662E+02  0.26814117240E+03  0.27370550739E+03  0.41800000000E+01 0.  1.
         -5    1    3    3    0  502  0.56992059401E+02 -0.26012241692E+02  0.14438776855E+03  0.15744850479E+03  0.41800000000E+01 0.  1.
        -11    1    1    2    0    0  0.24778502366E+02  0.16541548335E+01  0.59084052529E+02  0.64090839212E+02  0.00000000000E+00 0. -1.
         11    1    1    2    0    0 -0.31257830776E+02  0.32391841956E+01 -0.17447354375E+02  0.35943768218E+02  0.00000000000E+00 0.  1.
</event>
<event>
 7    1  0.2690635E-009  0.9950897E+02  0.7561462E-02  0.1281332E+00
          1   -1    0    0  501    0  0.00000000000E+00  0.00000000000E+00  0.13182002651E+03  0.13182002651E+03  0.00000000000E+00 0. -1.
         -1   -1    0    0    0  501 -0.00000000000E+00 -0.00000000000E+00 -0.97264554412E+02  0.97264554412E+02  0.00000000000E+00 0.  1.
         25    2    1    2    0    0 -0.24729236419E+02 -0.37549388122E+01 -0.76420456633E+01  0.12779585478E+03  0.12509094667E+03 0.  0.
          5    1    3    3  502    0  0.39621977410E+02 -0.36754006918E+02 -0.10869205328E+02  0.55284447568E+02  0.41800000000E+01 0.  1.
         -5    1    3    3    0  502 -0.64351213828E+02  0.32999068106E+02  0.32271596652E+01  0.72511407217E+02  0.41800000000E+01 0.  1.
        -11    1    1    2    0    0  0.46893364690E+02  0.12524252209E+02 -0.46162666628E+01  0.48756071040E+02  0.00000000000E+00 0.  1.
         11    1    1    2    0    0 -0.22164128271E+02 -0.87693133971E+01  0.46813784424E+02  0.52532655097E+02  0.00000000000E+00 0. -1.
</event>
<event>
 7    1  0.2690635E-009  0.1165172E+03  0.7561462E-02  0.1248956E+00
          2   -1    0    0  501    0  0.00000000000E+00  0.00000000000E+00  0.25017920313E+03  0.25017920313E+03  0.00000000000E+00 0. -1.
         -2   -1    0    0    0  501 -0.00000000000E+00 -0.00000000000E+00 -0.63873490691E+02  0.63873490691E+02  0.00000000000E+00 0.  1.
         25    2    1    2    0    0  0.25878662528E+02 -0.48474455631E+02  0.66523159156E+02  0.15196198819E+03  0.12509051573E+03 0.  0.
          5    1    3    3  502    0 -0.21723746005E+01  0.39791891523E+02  0.37328552747E+02  0.54763191037E+02  0.41800000000E+01 0. -1.
         -5    1    3    3    0  502  0.28051037128E+02 -0.88266347155E+02  0.29194606409E+02  0.97198797150E+02  0.41800000000E+01 0. -1.
        -11    1    1    2    0    0 -0.14356483116E+02  0.72340931465E+02  0.54711112234E+02  0.91829324154E+02  0.00000000000E+00 0.  1.
         11    1    1    2    0    0 -0.11522179411E+02 -0.23866475834E+02  0.65071441049E+02  0.70261381479E+02  0.00000000000E+00 0. -1.
</event>
<event>
 7    1  0.2690635E-009  0.4899792E+03  0.7561462E-02  0.1016428E+00
         -2   -1    0    0    0  501 -0.00000000000E+00  0.00000000000E+00  0.38988700144E+03  0.38988700144E+03  0.00000000000E+00 0.  1.
          2   -1    0    0  501    0  0.00000000000E+00 -0.00000000000E+00 -0.10669315851E+04  0.10669315851E+04  0.00000000000E+00 0. -1.
         25    2    1    2    0    0  0.85684732018E+02  0.47641259609E+03  0.12585561653E+03  0.51555474882E+03  0.12508488239E+03 0.  0.
          5    1    3    3  502    0 -0.16766455092E+02  0.19191286386E+03  0.84212879351E+02  0.21028776184E+03  0.41800000000E+01 0.  1.
         -5    1    3    3    0  502  0.10245118711E+03  0.28449973223E+03  0.41642737178E+02  0.30526698698E+03  0.41800000000E+01 0.  1.
        -11    1    1    2    0    0 -0.32201521378E+02 -0.11192216399E+03 -0.26324082394E+03  0.28785280989E+03  0.00000000000E+00 0.  1.
         11    1    1    2    0    0 -0.53483210639E+02 -0.36449043211E+03 -0.53965937625E+03  0.65341102783E+03  0.00000000000E+00 0. -1.
</event>
<event>
 7    1  0.2690635E-009  0.1302287E+03  0.7561462E-02  0.1227117E+00
          3   -1    0    0  501    0  0.00000000000E+00  0.00000000000E+00  0.33623238107E+03  0.33623238107E+03  0.00000000000E+00 0. -1.
         -3   -1    0    0    0  501 -0.00000000000E+00 -0.00000000000E+00 -0.56176543689E+02  0.56176543689E+02  0.00000000000E+00 0.  1.
         25    2    1    2    0    0 -0.49010782391E+02  0.59979093531E+02  0.19533730757E+03  0.24454775384E+03  0.12508953485E+03 0.  0.
          5    1    3    3  502    0  0.29412011520E+01  0.82518373867E+02  0.75610231705E+02  0.11203710202E+03  0.41800000000E+01 0.  1.
         -5    1    3    3    0  502 -0.51951983543E+02 -0.22539280336E+02  0.11972707587E+03  0.13251065183E+03  0.41800000000E+01 0.  1.
        -11    1    1    2    0    0  0.13760068486E+02  0.25255029610E+02  0.23715617145E+02  0.37277157911E+02  0.00000000000E+00 0.  1.
         11    1    1    2    0    0  0.35250713905E+02 -0.85234123141E+02  0.61002912664E+02  0.11058401300E+03  0.00000000000E+00 0. -1.
</event>
<event>
 7    1  0.2690635E-009  0.7490274E+02  0.7561462E-02  0.1344172E+00
          2   -1    0    0  501    0  0.00000000000E+00  0.00000000000E+00  0.29449877745E+03  0.29449877745E+03  0.00000000000E+00 0. -1.
         -2   -1    0    0    0  501 -0.00000000000E+00 -0.00000000000E+00 -0.46117762217E+02  0.46117762217E+02  0.00000000000E+00 0.  1.
         25    2    1    2    0    0 -0.17278768925E+02  0.23812742143E+02  0.18605707820E+03  0.22611923464E+03  0.12508824639E+03 0.  0.
          5    1    3    3  502    0 -0.51662656063E+01 -0.38053643495E+02  0.11233595354E+02  0.40229791798E+02  0.41800000000E+01 0. -1.
         -5    1    3    3    0  502 -0.12112503319E+02  0.61866385637E+02  0.17482348284E+03  0.18588944285E+03  0.41800000000E+01 0. -1.
        -11    1    1    2    0    0 -0.47709632123E+01 -0.25443154692E+02  0.81324277935E+02  0.85344914274E+02  0.00000000000E+00 0. -1.
         11    1    1    2    0    0  0.22049732138E+02  0.16304125498E+01 -0.19000340896E+02  0.29152390752E+02  0.00000000000E+00 0.  1.
</event>
<event>
 7    1  0.2690635E-009  0.8747281E+02  0.7561462E-02  0.1309090E+00
         -1   -1    0    0    0  501 -0.00000000000E+00  0.00000000000E+00  0.12429771765E+02  0.12429771765E+02  0.00000000000E+00 0.  1.
          1   -1    0    0  501    0  0.00000000000E+00 -0.00000000000E+00 -0.11132104913E+04  0.11132104913E+04  0.00000000000E+00 0. -1.
         25    2    1    2    0    0  0.27368311036E+02  0.10551906855E+02 -0.79203389632E+03  0.80238731662E+03  0.12508935117E+03 0.  0.
          5    1    3    3  502    0  0.73194270751E+01 -0.33241664279E+02 -0.62806982702E+02  0.71559567725E+02  0.41800000000E+01 0. -1.
         -5    1    3    3    0  502  0.20048883961E+02  0.43793571134E+02 -0.72922691361E+03  0.73082774890E+03  0.41800000000E+01 0. -1.
        -11    1    1    2    0    0 -0.52070495796E+02  0.17496077650E+02 -0.22388389535E+03  0.23052428909E+03  0.00000000000E+00 0. -1.
         11    1    1    2    0    0  0.24702184760E+02 -0.28047984505E+02 -0.84862927841E+02  0.92728657321E+02  0.00000000000E+00 0.  1.
</event>
<event>
 7    1  0.2690635E-009  0.1211317E+03  0.7561462E-02  0.1241242E+00
         -2   -1    0    0    0  501 -0.00000000000E+00  0.00000000000E+00  0.34611912731E+02  0.34611912731E+02  0.00000000000E+00 0.  1.
          2   -1    0    0  501    0  0.00000000000E+00 -0.00000000000E+00 -0.64066383942E+03  0.64066383942E+03  0.00000000000E+00 0. -1.
         25    2    1    2    0    0 -0.39649095090E+02 -0.87677612659E+02 -0.26036123851E+03  0.30445813014E+03  0.12508942395E+03 0.  0.
          5    1    3    3  502    0 -0.12453719091E+02  0.24496863462E+02 -0.11752335729E+03  0.12076590308E+03  0.41800000000E+01 0. -1.
         -5    1    3    3    0  502 -0.27195376000E+02 -0.11217447612E+03 -0.14283788122E+03  0.18369222706E+03  0.41800000000E+01 0. -1.
        -11    1    1    2    0    0  0.26225186384E+02  0.30453241617E+02 -0.31191743654E+02  0.50873226731E+02  0.00000000000E+00 0.  1.
         11    1    1    2    0    0  0.13423908706E+02  0.57224371042E+02 -0.31449894453E+03  0.31994439529E+03  0.00000000000E+00 0. -1.
</event>
<event>
 7    1  0.2690635E-009  0.1814734E+03  0.7561462E-02  0.1166385E+00
         -2   -1    0    0    0  501 -0.00000000000E+00  0.00000000000E+00  0.44037852655E+03  0.44037852655E+03  0.00000000000E+00 0.  1.
          2   -1    0    0  501    0  0.00000000000E+00 -0.00000000000E+00 -0.16293561583E+03  0.16293561583E+03  0.00000000000E+00 0. -1.
         25    2    1    2    0    0  0.13394222267E+03  0.10056049476E+03  0.34445397373E+03  0.40292533660E+03  0.12508938699E+03 0.  0.
          5    1    3    3  502    0  0.14563900006E+03  0.10604771040E+03  0.25385533645E+03  0.31131469523E+03  0.41800000000E+01 0.  1.
         -5    1    3    3    0  502 -0.11696777388E+02 -0.54872156423E+01  0.90598637276E+02  0.91610641375E+02  0.41800000000E+01 0.  1.
        -11    1    1    2    0    0 -0.24060338005E+02 -0.76009015327E+01  0.20004971673E+02  0.32200504044E+02  0.00000000000E+00 0.  1.
         11    1    1    2    0    0 -0.10988188466E+03 -0.92959593223E+02 -0.87016034687E+02  0.16818830174E+03  0.00000000000E+00 0. -1.
</event>
<event>
 7    1  0.2690635E-009  0.9891801E+02  0.7561462E-02  0.1282588E+00
          1   -1    0    0  501    0  0.00000000000E+00  0.00000000000E+00  0.94448155664E+03  0.94448155664E+03  0.00000000000E+00 0. -1.
         -1   -1    0    0    0  501 -0.00000000000E+00 -0.00000000000E+00 -0.17641233514E+02  0.17641233514E+02  0.00000000000E+00 0.  1.
         25    2    1    2    0    0  0.38190811416E+02  0.24540683758E+02  0.70015319808E+03  0.71268749955E+03  0.12509271764E+03 0.  0.
          5    1    3    3  502    0 -0.32547169981E+02  0.14855948590E+02  0.47689440672E+03  0.47825282544E+03  0.41800000000E+01 0. -1.
         -5    1    3    3    0  502  0.70737981396E+02  0.96847351676E+01  0.22325879136E+03  0.23443467411E+03  0.41800000000E+01 0. -1.
        -11    1    1    2    0    0 -0.28293656360E+02 -0.53046359029E+02  0.82250211958E+02  0.10188004988E+03  0.00000000000E+00 0.  1.
         11    1    1    2    0    0 -0.98971550556E+01  0.28505675271E+02  0.14443691309E+03  0.14755524072E+03  0.00000000000E+00 0. -1.
</event>
<event>
 7    1  0.2690635E-009  0.1501467E+03  0.7561462E-02  0.1200293E+00
          1   -1    0    0  501    0  0.00000000000E+00  0.00000000000E+00  0.27427025071E+03  0.27427025071E+03  0.00000000000E+00 0. -1.
         -1   -1    0    0    0  501 -0.00000000000E+00 -0.00000000000E+00 -0.89535947149E+02  0.89535947149E+02  0.00000000000E+00 0.  1.
         25    2    1    2    0    0  0.52005267186E+02  0.98687690149E+02  0.97449411219E+02  0.19387619023E+03  0.12509109236E+03 0.  0.
          5    1    3    3  502    0 -0.32806769539E+02  0.62045168045E+02  0.65324017884E+02  0.95971801681E+02  0.41800000000E+01 0. -1.
         -5    1    3    3    0  502  0.84812036725E+02  0.36642522104E+02  0.32125393335E+02  0.97904388546E+02  0.41800000000E+01 0. -1.
        -11    1    1    2    0    0 -0.49105108131E+02 -0.11719592222E+02  0.60684881498E+02  0.78938680815E+02  0.00000000000E+00 0. -1.
         11    1    1    2    0    0 -0.29001590545E+01 -0.86968097927E+02  0.26600010847E+02  0.90991326821E+02  0.00000000000E+00 0.  1.
</event>
<event>
 7    1  0.2690635E-009  0.7867654E+02  0.7561462E-02  0.1332850E+00
          1   -1    0    0  501    0  0.00000000000E+00  0.00000000000E+00  0.21591854489E+03  0.21591854489E+03  0.00000000000E+00 0. -1.
         -1   -1    0    0    0  501 -0.00000000000E+00 -0.00000000000E+00 -0.58220393056E+02  0.58220393056E+02  0.00000000000E+00 0.  1.
         25    2    1    2    0    0 -0.80588031758E+01  0.40212480579E+01  0.89056158044E+02  0.15381427757E+03  0.12508684165E+03 0.  0.
          5    1    3    3  502    0  0.26625771099E+02 -0.33390559375E+01 -0.23386476548E+02  0.35839652154E+02  0.41800000000E+01 0. -1.
         -5    1    3    3    0  502 -0.34684574274E+02  0.73603039954E+01  0.11244263459E+03  0.11797462541E+03  0.41800000000E+01 0. -1.
        -11    1    1    2    0    0  0.13082678182E+02 -0.48243527959E+02  0.53730498815E+02  0.73386381307E+02  0.00000000000E+00 0. -1.
         11    1    1    2    0    0 -0.50238750064E+01  0.44222279902E+02  0.14911494973E+02  0.46938279071E+02  0.00000000000E+00 0.  1.
</event>
<event>
 7    1  0.2690635E-009  0.1131153E+03  0.7561462E-02  0.1254907E+00
         -1   -1    0    0    0  501 -0.00000000000E+00  0.00000000000E+00  0.48933801204E+02  0.48933801204E+02  0.00000000000E+00 0.  1.
          1   -1    0    0  501    0  0.00000000000E+00 -0.00000000000E+00 -0.36644378618E+03  0.36644378618E+03  0.00000000000E+00 0. -1.
         25    2    1    2    0    0 -0.12990271918E+01  0.71433296860E+02 -0.21454905069E+03  0.25842661577E+03  0.12509443320E+03 0.  0.
          5    1    3    3  502    0  0.45802066386E+02  0.64061989393E+02 -0.67563699825E+02  0.10384649105E+03  0.41800000000E+01 0. -1.
         -5    1    3    3    0  502 -0.47101093578E+02  0.73713074666E+01 -0.14698535086E+03  0.15458012472E+03  0.41800000000E+01 0. -1.
        -11    1    1    2    0    0  0.20234787664E+02  0.49369712102E+01 -0.67511176595E+02  0.70651109558E+02  0.00000000000E+00 0. -1.
         11    1    1    2    0    0 -0.18935760473E+02 -0.76370268070E+02 -0.35449757694E+02  0.86299862053E+02  0.00000000000E+00 0.  1.
</event>
<event>
 7    1  0.2690635E-009  0.1235648E+03  0.7561462E-02  0.1237329E+00
          2   -1    0    0  501    0  0.00000000000E+00  0.00000000000E+00  0.66263324368E+03  0.66263324368E+03  0.00000000000E+00 0. -1.
         -2   -1    0    0    0  501 -0.00000000000E+00 -0.00000000000E+00 -0.53299321135E+02  0.53299321135E+02  0.00000000000E+00 0.  1.
         25    2    1    2    0    0 -0.64052601210E+02  0.75002154133E+02  0.54507484972E+03  0.56787654507E+03  0.12509644201E+03 0.  0.
          5    1    3    3  502    0 -0.42055171240E+02  0.81542942019E+02  0.53437940131E+03  0.54221463072E+03  0.41800000000E+01 0. -1.
         -5    1    3    3    0  502 -0.21997429970E+02 -0.65407878854E+01  0.10695448401E+02  0.25661914347E+02  0.41800000000E+01 0. -1.
        -11    1    1    2    0    0  0.13403419119E+02 -0.79952316455E+02  0.49835796041E+02  0.95161079847E+02  0.00000000000E+00 0.  1.
         11    1    1    2    0    0  0.50649182091E+02  0.49501623218E+01  0.14423276789E+02  0.52894939898E+02  0.00000000000E+00 0. -1.
</event>
<event>
 7    1  0.2690635E-009  0.1918223E+03  0.7561462E-02  0.1156828E+00
          1   -1    0    0  501    0  0.00000000000E+00  0.00000000000E+00  0.26660634624E+03  0.26660634624E+03  0.00000000000E+00 0. -1.
         -1   -1    0    0    0  501 -0.00000000000E+00 -0.00000000000E+00 -0.16807797546E+03  0.16807797546E+03  0.00000000000E+00 0.  1.
         25    2    1    2    0    0  0.16113903861E+03 -0.83850552418E+02  0.21498304088E+02  0.22159708703E+03  0.12508551874E+03 0.  0.
          5    1    3    3  502    0  0.11570123568E+03 -0.24629892875E+02 -0.39841414253E+02  0.12489282705E+03  0.41800000000E+01 0. -1.
         -5    1    3    3    0  502  0.45437802933E+02 -0.59220659543E+02  0.61339718341E+02  0.96704259980E+02  0.41800000000E+01 0. -1.
        -11    1    1    2    0    0 -0.10977276439E+03  0.25343711785E+02  0.74739793495E+02  0.13519763408E+03  0.00000000000E+00 0.  1.
         11    1    1    2    0    0 -0.51366274222E+02  0.58506840633E+02  0.22902731893E+01  0.77889600587E+02  0.00000000000E+00 0. -1.
</event>
<event>
 7    1  0.2690635E-009  0.1141071E+03  0.7561462E-02  0.1253148E+00
         -1   -1    0    0    0  501 -0.00000000000E+00  0.00000000000E+00  0.27813214743E+03  0.27813214743E+03  0.00000000000E+00 0.  1.
          1   -1    0    0  501    0  0.00000000000E+00 -0.00000000000E+00 -0.57662778768E+02  0.57662778768E+02  0.00000000000E+00 0. -1.
         25    2    1    2    0    0 -0.44663370049E+02 -0.83355126983E+00  0.18780997230E+03  0.23003344420E+03  0.12508912151E+03 0.  0.
          5    1    3    3  502    0  0.22577256413E+02  0.44541962727E+02  0.88845024023E+02  0.10200308645E+03  0.41800000000E+01 0.  1.
         -5    1    3    3    0  502 -0.67240626462E+02 -0.45375513997E+02  0.98964948281E+02  0.12803035775E+03  0.41800000000E+01 0.  1.
        -11    1    1    2    0    0  0.70742434514E+02 -0.78533002167E+00  0.36068757605E+02  0.79410730128E+02  0.00000000000E+00 0.  1.
         11    1    1    2    0    0 -0.26079064465E+02  0.16188812915E+01 -0.34093612514E+01  0.26350751871E+02  0.00000000000E+00 0. -1.
</event>
<event>
 7    1  0.2690635E-009  0.1677961E+03  0.7561462E-02  0.1180166E+00
         -3   -1    0    0    0  501 -0.00000000000E+00  0.00000000000E+00  0.52464808836E+03  0.52464808836E+03  0.00000000000E+00 0.  1.
          3   -1    0    0  501    0  0.00000000000E+00 -0.00000000000E+00 -0.75387203064E+02  0.75387203064E+02  0.00000000000E+00 0. -1.
         25    2    1    2    0    0  0.23785422344E+02 -0.15190789646E+03  0.32558823792E+03  0.38117891998E+03  0.12509161861E+03 0.  0.
          5    1    3    3  502    0 -0.35498762044E+01 -0.90375121963E+02  0.63605348313E+02  0.11064979451E+03  0.41800000000E+01 0.  1.
         -5    1    3    3    0  502  0.27335298548E+02 -0.61532774495E+02  0.26198288960E+03  0.27052912547E+03  0.41800000000E+01 0.  1.
        -11    1    1    2    0    0  0.10195197690E+02  0.14176025098E+03  0.11372114873E+03  0.18202310425E+03  0.00000000000E+00 0.  1.
         11    1    1    2    0    0 -0.33980620034E+02  0.10147645477E+02  0.99514986551E+01  0.36833267193E+02  0.00000000000E+00 0. -1.
</event>
<event>
 7    1  0.2690635E-009  0.9961211E+02  0.7561462E-02  0.1281114E+00
          2   -1    0    0  501    0  0.00000000000E+00  0.00000000000E+00  0.41131748149E+03  0.41131748149E+03  0.00000000000E+00 0. -1.
         -2   -1    0    0    0  501 -0.00000000000E+00 -0.00000000000E+00 -0.38483593709E+02  0.38483593709E+02  0.00000000000E+00 0.  1.
         25    2    1    2    0    0 -0.64252385089E+01  0.18610857371E+02  0.99753946908E+02  0.16120081066E+03  0.12508878340E+03 0.  0.
          5    1    3    3  502    0 -0.46021850984E+02  0.44930616613E+02  0.18654541210E+02  0.67098698832E+02  0.41800000000E+01 0.  1.
         -5    1    3    3    0  502  0.39596612475E+02 -0.26319759243E+02  0.81099405698E+02  0.94102111829E+02  0.41800000000E+01 0.  1.
        -11    1    1    2    0    0  0.33246565698E+02 -0.40516706645E+02  0.10952565955E+03  0.12141996437E+03  0.00000000000E+00 0. -1.
         11    1    1    2    0    0 -0.26821327189E+02  0.21905849275E+02  0.16355428133E+03  0.16718030017E+03  0.00000000000E+00 0.  1.
</event>
<event>
 7    1  0.2690635E-009  0.9644317E+02  0.7561462E-02  0.1287958E+00
          4   -1    0    0  501    0  0.00000000000E+00  0.00000000000E+00  0.20540329635E+03  0.20540329635E+03  0.00000000000E+00 0. -1.
         -4   -1    0    0    0  501 -0.00000000000E+00 -0.00000000000E+00 -0.94065144898E+02  0.94065144898E+02  0.00000000000E+00 0.  1.
         25    2    1    2    0    0  0.35777991777E+02  0.14185852516E+02  0.14184700572E+03  0.19300282390E+03  0.12509282112E+03 0.  0.
          5    1    3    3  502    0 -0.43352982955E+02  0.79621732543E+01  0.83116295250E+02  0.94173607078E+02  0.41800000000E+01 0. -1.
         -5    1    3    3    0  502  0.79130974732E+02  0.62236792616E+01  0.58730710465E+02  0.98829216820E+02  0.41800000000E+01 0. -1.
        -11    1    1    2    0    0 -0.38064894170E+02  0.14214904234E+02 -0.55351034192E+02  0.68663940002E+02  0.00000000000E+00 0.  1.
         11    1    1    2    0    0  0.22869023929E+01 -0.28400756750E+02  0.24842179927E+02  0.37801677345E+02  0.00000000000E+00 0. -1.
</event>
<event>
 7    1  0.2690635E-009  0.1110001E+03  0.7561462E-02  0.1258729E+00
          2   -1    0    0  501    0  0.00000000000E+00  0.00000000000E+00  0.68623146198E+02  0.68623146198E+02  0.00000000000E+00 0.  1.
         -2   -1    0    0    0  501 -0.00000000000E+00 -0.00000000000E+00 -0.17991130046E+03  0.17991130046E+03  0.00000000000E+00 0. -1.
         25    2    1    2    0    0 -0.20176651802E+02  0.17318856214E+02 -0.66929085976E+02  0.14433990094E+03  0.12508982531E+03 0.  0.
          5    1    3    3  502    0  0.49444564587E+02  0.28322323720E+02 -0.33307565388E+02  0.66134599871E+02  0.41800000000E+01 0. -1.
         -5    1    3    3    0  502 -0.69621216389E+02 -0.11003467506E+02 -0.33621520588E+02  0.78205301069E+02  0.41800000000E+01 0. -1.
        -11    1    1    2    0    0  0.52823579524E+02  0.73561408909E+01 -0.26267506309E+02  0.59451032373E+02  0.00000000000E+00 0.  1.
         11    1    1    2    0    0 -0.32646927722E+02 -0.24674997105E+02 -0.18091561982E+02  0.44743513349E+02  0.00000000000E+00 0. -1.
</event>
<event>
 7    1  0.2690635E-009  0.1188043E+03  0.7561462E-02  0.1245083E+00
          1   -1    0    0  501    0  0.00000000000E+00  0.00000000000E+00  0.27883945512E+03  0.27883945512E+03  0.00000000000E+00 0. -1.
         -1   -1    0    0    0  501 -0.00000000000E+00 -0.00000000000E+00 -0.51596114455E+02  0.51596114455E+02  0.00000000000E+00 0.  1.
         25    2    1    2    0    0  0.27183378595E+02  0.41824495431E+02  0.13916257716E+03  0.19365244475E+03  0.12508725749E+03 0.  0.
          5    1    3    3  502    0 -0.50029454419E+02  0.18050969877E+02  0.47928314349E+02  0.71717358702E+02  0.41800000000E+01 0. -1.
         -5    1    3    3    0  502  0.77212833014E+02  0.23773525554E+02  0.91234262807E+02  0.12193508605E+03  0.41800000000E+01 0. -1.
        -11    1    1    2    0    0  0.27508061603E+02 -0.40116927296E+02  0.30832986487E+02  0.57591096227E+02  0.00000000000E+00 0.  1.
         11    1    1    2    0    0 -0.54691440198E+02 -0.17075681343E+01  0.57247777025E+02  0.79192028603E+02  0.00000000000E+00 0. -1.
</event>
<event>
 7    1  0.2690635E-009  0.2424030E+03  0.7561462E-02  0.1118202E+00
          1   -1    0    0  501    0  0.00000000000E+00  0.00000000000E+00  0.39882036734E+03  0.39882036734E+03  0.00000000000E+00 0. -1.
         -1   -1    0    0    0  501 -0.00000000000E+00 -0.00000000000E+00 -0.20817332200E+03  0.20817332200E+03  0.00000000000E+00 0.  1.
         25    2    1    2    0    0 -0.70584358826E+02 -0.21284032557E+03 -0.52671059792E+02  0.26211897088E+03  0.12509579712E+03 0.  0.
          5    1    3    3  502    0 -0.40464975656E+02  0.11315071260E+00 -0.12490408733E+00  0.40680647229E+02  0.41800000000E+01 0. -1.
         -5    1    3    3    0  502 -0.30119383170E+02 -0.21295347628E+03 -0.52546155705E+02  0.22143832365E+03  0.41800000000E+01 0. -1.
        -11    1    1    2    0    0  0.41274661252E+02  0.56627959352E+02  0.24100659837E+02  0.74102397036E+02  0.00000000000E+00 0.  1.
         11    1    1    2    0    0  0.29309697574E+02  0.15621236621E+03  0.21921744529E+03  0.27077232142E+03  0.00000000000E+00 0. -1.
</event>
<event>
 7    1  0.2690635E-009  0.1043474E+03  0.7561462E-02  0.1271411E+00
         -1   -1    0    0    0  501 -0.00000000000E+00  0.00000000000E+00  0.22103859796E+02  0.22103859796E+02  0.00000000000E+00 0.  1.
          1   -1    0    0  501    0  0.00000000000E+00 -0.00000000000E+00 -0.58812361578E+03  0.58812361578E+03  0.00000000000E+00 0. -1.
         25    2    1    2    0    0 -0.40612198538E+02 -0.61650541628E+02 -0.32248584602E+03  0.35368828870E+03  0.12509254467E+03 0.  0.
          5    1    3    3  502    0 -0.71861560319E+02 -0.17864982608E+02 -0.98527600942E+02  0.12332234997E+03  0.41800000000E+01 0. -1.
         -5    1    3    3    0  502  0.31249361781E+02 -0.43785559020E+02 -0.22395824508E+03  0.23036593873E+03  0.41800000000E+01 0. -1.
        -11    1    1    2    0    0 -0.51841936765E+00  0.26394960774E+02 -0.74780354359E+02  0.79303619785E+02  0.00000000000E+00 0. -1.
         11    1    1    2    0    0  0.41130617906E+02  0.35255580853E+02 -0.16875355560E+03  0.17723556708E+03  0.00000000000E+00 0.  1.
</event>
<event>
 7    1  0.2690635E-009  0.1187837E+03  0.7561462E-02  0.1245117E+00
         -1   -1    0    0    0  501 -0.00000000000E+00  0.00000000000E+00  0.12734616374E+03  0.12734616374E+03  0.00000000000E+00 0.  1.
          1   -1    0    0  501    0  0.00000000000E+00 -0.00000000000E+00 -0.15935209550E+03  0.15935209550E+03  0.00000000000E+00 0. -1.
         25    2    1    2    0    0  0.84294434640E+01  0.90936489520E+02 -0.74973757461E+00  0.15488266695E+03  0.12509027849E+03 0.  0.
          5    1    3    3  502    0  0.38363899187E+02 -0.90737956189E+00 -0.35198292309E+02  0.52239872512E+02  0.41800000000E+01 0.  1.
         -5    1    3    3    0  502 -0.29934455723E+02  0.91843869082E+02  0.34448554735E+02  0.10264279444E+03  0.41800000000E+01 0.  1.
        -11    1    1    2    0    0  0.17360036268E+02 -0.18424041721E+02 -0.46885251586E+02  0.53282670624E+02  0.00000000000E+00 0. -1.
         11    1    1    2    0    0 -0.25789479732E+02 -0.72512447798E+02  0.15629057404E+02  0.78532921669E+02  0.00000000000E+00 0.  1.
</event>
<event>
 7    1  0.2690635E-009  0.9070017E+02  0.7561462E-02  0.1301165E+00
          1   -1    0    0  501    0  0.00000000000E+00  0.00000000000E+00  0.26342555635E+03  0.26342555635E+03  0.00000000000E+00 0. -1.
         -1   -1    0    0    0  501 -0.00000000000E+00 -0.00000000000E+00 -0.57479613424E+02  0.57479613424E+02  0.00000000000E+00 0.  1.
         25    2    1    2    0    0 -0.49665611398E+02  0.28269466836E+02  0.10593118915E+03  0.17359396613E+03  0.12509041743E+03 0.  0.
          5    1    3    3  502    0  0.12898445815E+02  0.17780149928E+01 -0.23594487640E+02  0.27270927537E+02  0.41800000000E+01 0. -1.
         -5    1    3    3    0  502 -0.62564057213E+02  0.26491451843E+02  0.12952567679E+03  0.14632303860E+03  0.41800000000E+01 0. -1.
        -11    1    1    2    0    0  0.31507189641E+02  0.26991256776E+02  0.71181308730E+02  0.82389378283E+02  0.00000000000E+00 0.  1.
         11    1    1    2    0    0  0.18158421757E+02 -0.55260723611E+02  0.28833445047E+02  0.64921825360E+02  0.00000000000E+00 0. -1.
</event>
<event>
 7    1  0.2690635E-009  0.1452766E+03  0.7561462E-02  0.1206400E+00
          2   -1    0    0  501    0  0.00000000000E+00  0.00000000000E+00  0.29189074819E+03  0.29189074819E+03  0.00000000000E+00 0. -1.
         -2   -1    0    0    0  501 -0.00000000000E+00 -0.00000000000E+00 -0.10959802667E+03  0.10959802667E+03  0.00000000000E+00 0.  1.
         25    2    1    2    0    0 -0.93424951065E+00 -0.13838448658E+03  0.12959681987E+03  0.22714269667E+03  0.12508928802E+03 0.  0.
          5    1    3    3  502    0 -0.86697623995E+01 -0.13553909837E+03  0.15141661243E+03  0.20344649146E+03  0.41800000000E+01 0.  1.
         -5    1    3    3    0  502  0.77355128889E+01 -0.28453882080E+01 -0.21819792558E+02  0.23696205202E+02  0.41800000000E+01 0.  1.
        -11    1    1    2    0    0 -0.20847837655E+02  0.89783991551E+02  0.72763610489E+02  0.11743228042E+03  0.00000000000E+00 0. -1.
         11    1    1    2    0    0  0.21782087165E+02  0.48600495031E+02 -0.20067708847E+02  0.56913797773E+02  0.00000000000E+00 0.  1.
</event>
<event>
 7    1  0.2690635E-009  0.1212090E+03  0.7561462E-02  0.1241116E+00
         -2   -1    0    0    0  501 -0.00000000000E+00  0.00000000000E+00  0.29574262775E+02  0.29574262775E+02  0.00000000000E+00 0.  1.
          2   -1    0    0  501    0  0.00000000000E+00 -0.00000000000E+00 -0.60386701294E+03  0.60386701294E+03  0.00000000000E+00 0. -1.
         25    2    1    2    0    0  0.24135870579E+02 -0.53278148597E+02 -0.21270510479E+03  0.25359831510E+03  0.12509013730E+03 0.  0.
          5    1    3    3  502    0  0.73544684345E+02 -0.37008147561E+02 -0.10152240985E+03  0.13077727510E+03  0.41800000000E+01 0. -1.
         -5    1    3    3    0  502 -0.49408813766E+02 -0.16270001037E+02 -0.11118269494E+03  0.12282103999E+03  0.41800000000E+01 0. -1.
        -11    1    1    2    0    0 -0.29771786441E+02  0.77449582032E+02 -0.32640764035E+03  0.33678887259E+03  0.00000000000E+00 0. -1.
         11    1    1    2    0    0  0.56359158620E+01 -0.24171433435E+02 -0.35180005021E+02  0.43054088019E+02  0.00000000000E+00 0.  1.
</event>
<event>
 7    1  0.2790144E-009  0.1476227E+03  0.7561462E-02  0.1203425E+00
         -2   -1    0    0    0  501 -0.00000000000E+00  0.00000000000E+00  0.83545994522E+02  0.83545994522E+02  0.00000000000E+00 0.  1.
          2   -1    0    0  501    0  0.00000000000E+00 -0.00000000000E+00 -0.32377310109E+03  0.32377310109E+03  0.00000000000E+00 0. -1.
         25    2    1    2    0    0 -0.83909281192E+02  0.85306053335E+02 -0.16558352117E+03  0.23954790410E+03  0.12508959056E+03 0.  0.
          5    1    3    3  502    0 -0.10840302035E+03  0.89043331373E+02 -0.16171564884E+03  0.21412462064E+03  0.41800000000E+01 0. -1.
         -5    1    3    3    0  502  0.24493739163E+02 -0.37372780380E+01 -0.38678723294E+01  0.25423283456E+02  0.41800000000E+01 0. -1.
        -11    1    1    2    0    0  0.13562496011E+01 -0.30837809731E+02  0.14971806937E+02  0.34306922406E+02  0.00000000000E+00 0.  1.
         11    1    1    2    0    0  0.82553031591E+02 -0.54468243603E+02 -0.89615392335E+02  0.13346426911E+03  0.00000000000E+00 0. -1.
</event>
<event>
 7    1  0.2690635E-009  0.1599683E+03  0.7561462E-02  0.1188733E+00
         -2   -1    0    0    0  501 -0.00000000000E+00  0.00000000000E+00  0.64446665074E+02  0.64446665074E+02  0.00000000000E+00 0.  1.
          2   -1    0    0  501    0  0.00000000000E+00 -0.00000000000E+00 -0.69485848271E+03  0.69485848271E+03  0.00000000000E+00 0. -1.
         25    2    1    2    0    0 -0.12907327873E+03  0.68126932619E+02 -0.14065489034E+03  0.23818450912E+03  0.12508745731E+03 0.  0.
          5    1    3    3  502    0 -0.10214101097E+03  0.90553615770E+02 -0.14879156688E+03  0.20196322989E+03  0.41800000000E+01 0.  1.
         -5    1    3    3    0  502 -0.26932267757E+02 -0.22426683151E+02  0.81366765417E+01  0.36221279227E+02  0.41800000000E+01 0.  1.
        -11    1    1    2    0    0  0.42148969181E+02 -0.94363528649E+01 -0.38581305450E+02  0.57914570607E+02  0.00000000000E+00 0.  1.
         11    1    1    2    0    0  0.86924309548E+02 -0.58690579754E+02 -0.45117562184E+03  0.46320606806E+03  0.00000000000E+00 0. -1.
</event>
<event>
 7    1  0.2690635E-009  0.1393135E+03  0.7561462E-02  0.1214256E+00
          2   -1    0    0  501    0  0.00000000000E+00  0.00000000000E+00  0.67528734068E+03  0.67528734068E+03  0.00000000000E+00 0. -1.
         -2   -1    0    0    0  501 -0.00000000000E+00 -0.00000000000E+00 -0.35571904541E+02  0.35571904541E+02  0.00000000000E+00 0.  1.
         25    2    1    2    0    0  0.21668725225E+02 -0.10637032909E+03  0.38639155221E+03  0.42039246494E+03  0.12508881803E+03 0.  0.
          5    1    3    3  502    0  0.49983685373E+02 -0.35970085206E+02  0.29568214842E+03  0.30205565899E+03  0.41800000000E+01 0. -1.
         -5    1    3    3    0  502 -0.28314960148E+02 -0.70400243880E+02  0.90709403796E+02  0.11833680595E+03  0.41800000000E+01 0. -1.
        -11    1    1    2    0    0  0.33196562426E+02  0.62074299240E+02  0.14547622784E+03  0.16161238581E+03  0.00000000000E+00 0. -1.
         11    1    1    2    0    0 -0.54865287650E+02  0.44296029846E+02  0.10784765608E+03  0.12885439446E+03  0.00000000000E+00 0.  1.
</event>
<event>
 7    1  0.2690635E-009  0.1235630E+03  0.7561462E-02  0.1237332E+00
         -2   -1    0    0    0  501 -0.00000000000E+00  0.00000000000E+00  0.35580703729E+02  0.35580703729E+02  0.00000000000E+00 0.  1.
          2   -1    0    0  501    0  0.00000000000E+00 -0.00000000000E+00 -0.80360292662E+03  0.80360292662E+03  0.00000000000E+00 0. -1.
         25    2    1    2    0    0 -0.51171710807E+02  0.32768332258E+02 -0.12537034680E+03  0.18723465968E+03  0.12508711502E+03 0.  0.
          5    1    3    3  502    0 -0.29804574184E+02 -0.46444358276E+02 -0.64509520858E+02  0.84996127790E+02  0.41800000000E+01 0.  1.
         -5    1    3    3    0  502 -0.21367136623E+02  0.79212690533E+02 -0.60860825940E+02  0.10223853189E+03  0.41800000000E+01 0.  1.
        -11    1    1    2    0    0  0.23700555334E+02 -0.63876102776E+02 -0.41105510120E+03  0.41666313618E+03  0.00000000000E+00 0. -1.
         11    1    1    2    0    0  0.27471155473E+02  0.31107770519E+02 -0.23159677489E+03  0.23528583449E+03  0.00000000000E+00 0.  1.
</event>
<event>
 7    1  0.2690635E-009  0.2082966E+03  0.7561462E-02  0.1142922E+00
          1   -1    0    0  501    0  0.00000000000E+00  0.00000000000E+00  0.12558025194E+03  0.12558025194E+03  0.00000000000E+00 0. -1.
         -1   -1    0    0    0  501 -0.00000000000E+00 -0.00000000000E+00 -0.42777152103E+03  0.42777152103E+03  0.00000000000E+00 0.  1.
         25    2    1    2    0    0  0.19479401300E+03 -0.28618989347E+02 -0.22118061504E+03  0.32145266464E+03  0.12508875681E+03 0.  0.
          5    1    3    3  502    0  0.65693659262E+02 -0.48483451378E+02 -0.24562548762E+02  0.85364472273E+02  0.41800000000E+01 0. -1.
         -5    1    3    3    0  502  0.12910035374E+03  0.19864462030E+02 -0.19661806627E+03  0.23608819236E+03  0.41800000000E+01 0. -1.
        -11    1    1    2    0    0 -0.96689407618E+02  0.41474116200E+02 -0.19145728275E+01  0.10522646744E+03  0.00000000000E+00 0. -1.
         11    1    1    2    0    0 -0.98104605387E+02 -0.12855126853E+02 -0.79096081232E+02  0.12667264089E+03  0.00000000000E+00 0.  1.
</event>
<event>
 7    1  0.2690635E-009  0.7895103E+02  0.7561462E-02  0.1332055E+00
          1   -1    0    0  501    0  0.00000000000E+00  0.00000000000E+00  0.12181305075E+03  0.12181305075E+03  0.00000000000E+00 0. -1.
         -1   -1    0    0    0  501 -0.00000000000E+00 -0.00000000000E+00 -0.10584042962E+03  0.10584042962E+03  0.00000000000E+00 0.  1.
         25    2    1    2    0    0 -0.15039705077E+01  0.25746367656E+02  0.32388147702E+02  0.13176749768E+03  0.12509414039E+03 0.  0.
          5    1    3    3  502    0  0.34485526108E+02  0.18926955460E+02  0.69173836148E+02  0.79686718851E+02  0.41800000000E+01 0.  1.
         -5    1    3    3    0  502 -0.35989496616E+02  0.68194121967E+01 -0.36785688445E+02  0.52080778832E+02  0.41800000000E+01 0.  1.
        -11    1    1    2    0    0 -0.28214476128E+02 -0.39650808771E+02 -0.33318412157E+02  0.58977621926E+02  0.00000000000E+00 0.  1.
         11    1    1    2    0    0  0.29718446636E+02  0.13904441115E+02  0.16902885580E+02  0.36908360762E+02  0.00000000000E+00 0. -1.
</event>
<event>
 7    1  0.2690635E-009  0.2055731E+03  0.7561462E-02  0.1145120E+00
         -3   -1    0    0    0  501 -0.00000000000E+00  0.00000000000E+00  0.43733014026E+03  0.43733014026E+03  0.00000000000E+00 0.  1.
          3   -1    0    0  501    0  0.00000000000E+00 -0.00000000000E+00 -0.18020722372E+03  0.18020722372E+03  0.00000000000E+00 0. -1.
         25    2    1    2    0    0  0.49516544975E+02 -0.16697377700E+03 -0.78618629681E+02  0.22838448048E+03  0.12508577680E+03 0.  0.
          5    1    3    3  502    0  0.34627880682E+01 -0.16806377255E+03 -0.60407760241E+02  0.17867286432E+03  0.41800000000E+01 0. -1.
         -5    1    3    3    0  502  0.46053756906E+02  0.10899955516E+01 -0.18210869440E+02  0.49711616160E+02  0.41800000000E+01 0. -1.
        -11    1    1    2    0    0 -0.65094208371E+02  0.16893129973E+03  0.30709992910E+03  0.35649040161E+03  0.00000000000E+00 0.  1.
         11    1    1    2    0    0  0.15577663396E+02 -0.19575227253E+01  0.28641617116E+02  0.32662481889E+02  0.00000000000E+00 0. -1.
</event>
<event>
 7    1  0.2690635E-009  0.1157959E+03  0.7561462E-02  0.1250198E+00
         -2   -1    0    0    0  501 -0.00000000000E+00  0.00000000000E+00  0.34052079095E+02  0.34052079095E+02  0.00000000000E+00 0. -1.
          2   -1    0    0  501    0  0.00000000000E+00 -0.00000000000E+00 -0.62129994630E+03  0.62129994630E+03  0.00000000000E+00 0.  1.
         25    2    1    2    0    0 -0.44953783978E+02  0.11600410674E+02 -0.12913658158E+03  0.18568621739E+03  0.12509077666E+03 0.  0.
          5    1    3    3  502    0 -0.35236376370E+02  0.64772860335E+02 -0.47927648179E+02  0.88043497862E+02  0.41800000000E+01 0. -1.
         -5    1    3    3    0  502 -0.97174076073E+01 -0.53172449662E+02 -0.81208933399E+02  0.97642719531E+02  0.41800000000E+01 0. -1.
        -11    1    1    2    0    0  0.64601617402E+02  0.18838802953E+02 -0.30164521077E+03  0.30906003081E+03  0.00000000000E+00 0.  1.
         11    1    1    2    0    0 -0.19647833424E+02 -0.30439213626E+02 -0.15646607486E+03  0.16060577719E+03  0.00000000000E+00 0. -1.
</event>
<event>
 7    1  0.2975450E-009  0.1087436E+03  0.7561462E-02  0.1262914E+00
          2   -1    0    0  501    0  0.00000000000E+00  0.00000000000E+00  0.54016743484E+02  0.54016743484E+02  0.00000000000E+00 0.  1.
         -2   -1    0    0    0  501 -0.00000000000E+00 -0.00000000000E+00 -0.34064706658E+03  0.34064706658E+03  0.00000000000E+00 0. -1.
         25    2    1    2    0    0  0.74580398263E+02  0.16445956116E+02 -0.19701913088E+03  0.24555543620E+03  0.12509288164E+03 0.  0.
          5    1    3    3  502    0  0.10429967815E+03  0.41305174530E+01 -0.10555463323E+03  0.14850837361E+03  0.41800000000E+01 0.  1.
         -5    1    3    3    0  502 -0.29719279889E+02  0.12315438663E+02 -0.91464497647E+02  0.97047062586E+02  0.41800000000E+01 0.  1.
        -11    1    1    2    0    0 -0.51542498969E+02  0.12092028486E+01 -0.10447138526E+03  0.11650047944E+03  0.00000000000E+00 0. -1.
         11    1    1    2    0    0 -0.23037899294E+02 -0.17655158964E+02  0.14860193038E+02  0.32607894428E+02  0.00000000000E+00 0.  1.
</event>
<event>
 7    1  0.2690635E-009  0.9881595E+02  0.7561462E-02  0.1282806E+00
          3   -1    0    0  501    0  0.00000000000E+00  0.00000000000E+00  0.21685017042E+03  0.21685017042E+03  0.00000000000E+00 0. -1.
         -3   -1    0    0    0  501 -0.00000000000E+00 -0.00000000000E+00 -0.73655676220E+02  0.73655676220E+02  0.00000000000E+00 0.  1.
         25    2    1    2    0    0  0.52978256086E+02 -0.31455269313E+02  0.10128192258E+03  0.17234179035E+03  0.12509010862E+03 0.  0.
          5    1    3    3  502    0  0.55849739966E+02  0.13989453588E+02 -0.36881435863E+01  0.57844386669E+02  0.41800000000E+01 0.  1.
         -5    1    3    3    0  502 -0.28714838799E+01 -0.45444722901E+02  0.10497006617E+03  0.11449740368E+03  0.41800000000E+01 0.  1.
        -11    1    1    2    0    0 -0.24279936342E+02 -0.22476529755E+02 -0.13452790983E+02  0.35716764745E+02  0.00000000000E+00 0.  1.
         11    1    1    2    0    0 -0.28698319744E+02  0.53931799067E+02  0.55365362604E+02  0.82447291545E+02  0.00000000000E+00 0. -1.
</event>
<event>
 7    1  0.2690635E-009  0.1314737E+03  0.7561462E-02  0.1225285E+00
          2   -1    0    0  501    0  0.00000000000E+00  0.00000000000E+00  0.12833425071E+03  0.12833425071E+03  0.00000000000E+00 0.  1.
         -2   -1    0    0    0  501 -0.00000000000E+00 -0.00000000000E+00 -0.16286975711E+03  0.16286975711E+03  0.00000000000E+00 0. -1.
         25    2    1    2    0    0  0.91655920401E+02 -0.56788677995E+01 -0.45855521840E+02  0.16181193568E+03  0.12508923359E+03 0.  0.
          5    1    3    3  502    0 -0.91906987948E+01  0.38583377035E+02  0.54323425378E+01  0.40250822019E+02  0.41800000000E+01 0.  1.
         -5    1    3    3    0  502  0.10084661920E+03 -0.44262244834E+02 -0.51287864378E+02  0.12156111366E+03  0.41800000000E+01 0.  1.
        -11    1    1    2    0    0 -0.28715175324E+02  0.33426746190E+02  0.35387744161E+02  0.56517263660E+02  0.00000000000E+00 0.  1.
         11    1    1    2    0    0 -0.62940745078E+02 -0.27747878391E+02 -0.24067728724E+02  0.72874808487E+02  0.00000000000E+00 0. -1.
</event>
<event>
 7    1  0.2690635E-009  0.1941875E+03  0.7561462E-02  0.1154738E+00
         -4   -1    0    0    0  501 -0.00000000000E+00  0.00000000000E+00  0.33766945206E+03  0.33766945206E+03  0.00000000000E+00 0.  1.
          4   -1    0    0  501    0  0.00000000000E+00 -0.00000000000E+00 -0.11747857818E+03  0.11747857818E+03  0.00000000000E+00 0. -1.
         25    2    1    2    0    0 -0.14870748898E+03 -0.67234871442E+02  0.15241350322E+03  0.25595213016E+03  0.12508865559E+03 0.  0.
          5    1    3    3  502    0 -0.16795080717E+03 -0.50760956513E+02  0.11240496604E+03  0.20841424406E+03  0.41800000000E+01 0.  1.
         -5    1    3    3    0  502  0.19243318194E+02 -0.16473914929E+02  0.40008537181E+02  0.47537886107E+02  0.41800000000E+01 0.  1.
        -11    1    1    2    0    0  0.48884040777E+02 -0.21717503564E+02  0.22518905006E+02  0.58037922830E+02  0.00000000000E+00 0. -1.
         11    1    1    2    0    0  0.99823448199E+02  0.88952375006E+02  0.45258465657E+02  0.14115797726E+03  0.00000000000E+00 0.  1.
</event>
<event>
 7    1  0.2890083E-009  0.1499585E+03  0.7561462E-02  0.1200524E+00
         -3   -1    0    0    0  501 -0.00000000000E+00  0.00000000000E+00  0.31840578351E+02  0.31840578351E+02  0.00000000000E+00 0.  1.
          3   -1    0    0  501    0  0.00000000000E+00 -0.00000000000E+00 -0.85297759651E+03  0.85297759651E+03  0.00000000000E+00 0. -1.
         25    2    1    2    0    0  0.11338946436E+03  0.49481848119E+02 -0.42714925892E+03  0.46196220615E+03  0.12508783552E+03 0.  0.
          5    1    3    3  502    0  0.13709676226E+03  0.58761049565E+02 -0.34583666104E+03  0.37665481768E+03  0.41800000000E+01 0.  1.
         -5    1    3    3    0  502 -0.23707297893E+02 -0.92792014468E+01 -0.81312597883E+02  0.85307388469E+02  0.41800000000E+01 0.  1.
        -11    1    1    2    0    0 -0.67238699365E+02 -0.38423132107E+02 -0.10764853301E+03  0.13261065731E+03  0.00000000000E+00 0.  1.
         11    1    1    2    0    0 -0.46150764998E+02 -0.11058716012E+02 -0.28633922623E+03  0.29024531140E+03  0.00000000000E+00 0. -1.
</event>
<event>
 7    1  0.2690635E-009  0.1097263E+03  0.7561462E-02  0.1261078E+00
          1   -1    0    0  501    0  0.00000000000E+00  0.00000000000E+00  0.45622753733E+03  0.45622753733E+03  0.00000000000E+00 0. -1.
         -1   -1    0    0    0  501 -0.00000000000E+00 -0.00000000000E+00 -0.26841709535E+02  0.26841709535E+02  0.00000000000E+00 0.  1.
         25    2    1    2    0    0  0.32615291543E+02  0.11036096221E+02  0.25797321047E+03  0.28876396244E+03  0.12509554757E+03 0.  0.
          5    1    3    3  502    0  0.79406285224E+02 -0.13682315273E+01  0.13718781669E+03  0.15857237981E+03  0.41800000000E+01 0. -1.
         -5    1    3    3    0  502 -0.46790993681E+02  0.12404327748E+02  0.12078539378E+03  0.13019158263E+03  0.41800000000E+01 0. -1.
        -11    1    1    2    0    0 -0.23744422932E+02  0.36190600825E+02  0.87033659452E+02  0.97202958217E+02  0.00000000000E+00 0.  1.
         11    1    1    2    0    0 -0.88708686107E+01 -0.47226697046E+02  0.84378957878E+02  0.97102326215E+02  0.00000000000E+00 0. -1.
</event>
<event>
 7    1  0.2690635E-009  0.7053152E+02  0.7561462E-02  0.1358295E+00
          1   -1    0    0  501    0  0.00000000000E+00  0.00000000000E+00  0.16273247662E+03  0.16273247662E+03  0.00000000000E+00 0. -1.
         -1   -1    0    0    0  501 -0.00000000000E+00 -0.00000000000E+00 -0.91000058304E+02  0.91000058304E+02  0.00000000000E+00 0.  1.
         25    2    1    2    0    0 -0.92791191653E+01 -0.44879455356E+02 -0.95718238127E+01  0.13356481674E+03  0.12509065871E+03 0.  0.
          5    1    3    3  502    0 -0.20101298022E+02  0.52595915300E+01 -0.58704529438E+02  0.62413297155E+02  0.41800000000E+01 0.  1.
         -5    1    3    3    0  502  0.10822178856E+02 -0.50139046886E+02  0.49132705625E+02  0.71151519589E+02  0.41800000000E+01 0.  1.
        -11    1    1    2    0    0 -0.20800478303E+02  0.24157340819E+02  0.94035488665E+00  0.31892338898E+02  0.00000000000E+00 0.  1.
         11    1    1    2    0    0  0.30079597468E+02  0.20722114537E+02  0.80363887242E+02  0.88275379282E+02  0.00000000000E+00 0. -1.
</event>
<event>
 7    1  0.2690635E-009  0.1157758E+03  0.7561462E-02  0.1250233E+00
         -1   -1    0    0    0  501 -0.00000000000E+00  0.00000000000E+00  0.25504255740E+03  0.25504255740E+03  0.00000000000E+00 0.  1.
          1   -1    0    0  501    0  0.00000000000E+00 -0.00000000000E+00 -0.80780906275E+02  0.80780906275E+02  0.00000000000E+00 0. -1.
         25    2    1    2    0    0  0.72420598103E+02  0.20840358574E+02  0.16429994901E+03  0.21981892355E+03  0.12508725886E+03 0.  0.
          5    1    3    3  502    0  0.69658259364E+02 -0.25929578701E+02  0.15488673533E+03  0.17184873969E+03  0.41800000000E+01 0. -1.
         -5    1    3    3    0  502  0.27623387394E+01  0.46769937275E+02  0.94132136758E+01  0.47970183862E+02  0.41800000000E+01 0. -1.
        -11    1    1    2    0    0 -0.82132089734E+02  0.51799634529E+01  0.22817488514E+02  0.85399941262E+02  0.00000000000E+00 0.  1.
         11    1    1    2    0    0  0.97114916307E+01 -0.26020322027E+02 -0.12855786395E+02  0.30604598869E+02  0.00000000000E+00 0. -1.
</event>
<event>
 7    1  0.2690635E-009  0.1121278E+03  0.7561462E-02  0.1256679E+00
          4   -1    0    0  501    0  0.00000000000E+00  0.00000000000E+00  0.60097672846E+02  0.60097672846E+02  0.00000000000E+00 0.  1.
         -4   -1    0    0    0  501 -0.00000000000E+00 -0.00000000000E+00 -0.24495062613E+03  0.24495062613E+03  0.00000000000E+00 0. -1.
         25    2    1    2    0    0 -0.33762346012E+02  0.17665134721E+02 -0.15332337148E+03  0.20151439124E+03  0.12509212862E+03 0.  0.
          5    1    3    3  502    0  0.46984602467E+02 -0.30670951855E+01 -0.57388790908E+02  0.74349886776E+02  0.41800000000E+01 0. -1.
         -5    1    3    3    0  502 -0.80746948479E+02  0.20732229906E+02 -0.95934580576E+02  0.12716450447E+03  0.41800000000E+01 0. -1.
        -11    1    1    2    0    0  0.62611399962E+02 -0.81622024443E+01 -0.52319788763E+01  0.63357576950E+02  0.00000000000E+00 0.  1.
         11    1    1    2    0    0 -0.28849053950E+02 -0.95029322765E+01 -0.26297602922E+02  0.40176330782E+02  0.00000000000E+00 0. -1.
</event>
<event>
 7    1  0.2690635E-009  0.1220916E+03  0.7561462E-02  0.1239686E+00
          1   -1    0    0  501    0  0.00000000000E+00  0.00000000000E+00  0.45975210114E+03  0.45975210114E+03  0.00000000000E+00 0. -1.
         -1   -1    0    0    0  501 -0.00000000000E+00 -0.00000000000E+00 -0.33307064285E+02  0.33307064285E+02  0.00000000000E+00 0.  1.
         25    2    1    2    0    0 -0.39800359162E+02 -0.44938215954E+02  0.24620792499E+03  0.28261328310E+03  0.12509361941E+03 0.  0.
          5    1    3    3  502    0 -0.57502782939E+02  0.27244898641E+02  0.12613609067E+03  0.14133874315E+03  0.41800000000E+01 0. -1.
         -5    1    3    3    0  502  0.17702423777E+02 -0.72183114595E+02  0.12007183432E+03  0.14127453995E+03  0.41800000000E+01 0. -1.
        -11    1    1    2    0    0  0.62851517650E+02  0.93047806214E+01  0.12989798308E+03  0.14460421232E+03  0.00000000000E+00 0. -1.
         11    1    1    2    0    0 -0.23051158487E+02  0.35633435332E+02  0.50339128783E+02  0.65841669996E+02  0.00000000000E+00 0.  1.
</event>
<event>
 7    1  0.2690635E-009  0.1092304E+03  0.7561462E-02  0.1262002E+00
         -1   -1    0    0    0  501 -0.00000000000E+00  0.00000000000E+00  0.35288791460E+02  0.35288791460E+02  0.00000000000E+00 0.  1.
          1   -1    0    0  501    0  0.00000000000E+00 -0.00000000000E+00 -0.40010504452E+03  0.40010504452E+03  0.00000000000E+00 0. -1.
         25    2    1    2    0    0  0.15905524545E+02 -0.11632827226E+02 -0.16021347575E+03  0.20421190162E+03  0.12508331053E+03 0.  0.
          5    1    3    3  502    0  0.51991182689E+02  0.26236525824E+02 -0.13266442593E+03  0.14494399150E+03  0.41800000000E+01 0.  1.
         -5    1    3    3    0  502 -0.36085658145E+02 -0.37869353050E+02 -0.27549049818E+02  0.59267910120E+02  0.41800000000E+01 0.  1.
        -11    1    1    2    0    0 -0.49002828252E+02 -0.27623261584E+02 -0.10942621264E+03  0.12303827766E+03  0.00000000000E+00 0. -1.
         11    1    1    2    0    0  0.33097303707E+02  0.39256088809E+02 -0.95176564672E+02  0.10814365670E+03  0.00000000000E+00 0.  1.
</event>
<event>
 7    1  0.3104887E-009  0.1288306E+03  0.7561462E-02  0.1229201E+00
          2   -1    0    0  501    0  0.00000000000E+00  0.00000000000E+00  0.15856395664E+03  0.15856395664E+03  0.00000000000E+00 0. -1.
         -2   -1    0    0    0  501 -0.00000000000E+00 -0.00000000000E+00 -0.13563344296E+03  0.13563344296E+03  0.00000000000E+00 0.  1.
         25    2    1    2    0    0 -0.81054769168E+02 -0.40712697515E+02 -0.26149412665E+02  0.15671588645E+03  0.12509467590E+03 0.  0.
          5    1    3    3  502    0  0.31532631734E+02 -0.25578894484E+02 -0.56772763031E+01  0.41210321199E+02  0.41800000000E+01 0. -1.
         -5    1    3    3    0  502 -0.11258740090E+03 -0.15133803031E+02 -0.20472136362E+02  0.11550556525E+03  0.41800000000E+01 0. -1.
        -11    1    1    2    0    0  0.19665580429E+02  0.36712239853E+02 -0.18953930828E+02  0.45757787343E+02  0.00000000000E+00 0.  1.
         11    1    1    2    0    0  0.61389188738E+02  0.40004576619E+01  0.68033857174E+02  0.91723725815E+02  0.00000000000E+00 0. -1.
</event>
<event>
 7    1  0.2690635E-009  0.2011448E+03  0.7561462E-02  0.1148777E+00
          1   -1    0    0  501    0  0.00000000000E+00  0.00000000000E+00  0.21996922222E+03  0.21996922222E+03  0.00000000000E+00 0. -1.
         -1   -1    0    0    0  501 -0.00000000000E+00 -0.00000000000E+00 -0.20922473861E+03  0.20922473861E+03  0.00000000000E+00 0.  1.
         25    2    1    2    0    0 -0.16678821404E+03  0.58937580917E+02  0.59958978216E+02  0.22479873443E+03  0.12508974836E+03 0.  0.
          5    1    3    3  502    0 -0.33932358457E+02  0.65337189673E+02  0.54347335267E+02  0.91604904647E+02  0.41800000000E+01 0.  1.
         -5    1    3    3    0  502 -0.13285585558E+03 -0.63996087563E+01  0.56116429492E+01  0.13319382978E+03  0.41800000000E+01 0.  1.
        -11    1    1    2    0    0  0.15572158987E+03 -0.22435281235E+02 -0.53114611170E+02  0.16605335683E+03  0.00000000000E+00 0.  1.
         11    1    1    2    0    0  0.11066624174E+02 -0.36502299682E+02  0.39001165660E+01  0.38341869567E+02  0.00000000000E+00 0. -1.
</event>
<event>
 7    1  0.2690635E-009  0.1844886E+03  0.7561462E-02  0.1163528E+00
          1   -1    0    0  501    0  0.00000000000E+00  0.00000000000E+00  0.11442585310E+04  0.11442585310E+04  0.00000000000E+00 0. -1.
         -1   -1    0    0    0  501 -0.00000000000E+00 -0.00000000000E+00 -0.31959225470E+02  0.31959225470E+02  0.00000000000E+00 0.  1.
         25    2    1    2    0    0 -0.14845804331E+03 -0.25361179321E+02  0.73036567597E+03  0.75615099014E+03  0.12508924498E+03 0.  0.
          5    1    3    3  502    0 -0.15508460201E+03  0.13110383705E+02  0.55355048869E+03  0.57502933131E+03  0.41800000000E+01 0. -1.
         -5    1    3    3    0  502  0.66265587042E+01 -0.38471563026E+02  0.17681518728E+03  0.18112165882E+03  0.41800000000E+01 0. -1.
        -11    1    1    2    0    0  0.12037747218E+03 -0.18652137584E+02  0.28565805857E+03  0.31054655766E+03  0.00000000000E+00 0. -1.
         11    1    1    2    0    0  0.28080571131E+02  0.44013316905E+02  0.96275571001E+02  0.10952020869E+03  0.00000000000E+00 0.  1.
</event>
<event>
 7    1  0.2690635E-009  0.1198541E+03  0.7561462E-02  0.1243338E+00
          2   -1    0    0  501    0  0.00000000000E+00  0.00000000000E+00  0.97687998771E+02  0.97687998771E+02  0.00000000000E+00 0.  1.
         -2   -1    0    0    0  501 -0.00000000000E+00 -0.00000000000E+00 -0.21421021366E+03  0.21421021366E+03  0.00000000000E+00 0. -1.
         25    2    1    2    0    0 -0.99120111231E+02 -0.12868027223E+01 -0.11825758663E+03  0.19864269612E+03  0.12509041376E+03 0.  0.
          5    1    3    3  502    0 -0.94037678281E+02  0.36260551939E+02 -0.12426384701E+03  0.16005276829E+03  0.41800000000E+01 0.  1.
         -5    1    3    3    0  502 -0.50824329506E+01 -0.37547354661E+02  0.60062603752E+01  0.38589927837E+02  0.41800000000E+01 0.  1.
        -11    1    1    2    0    0  0.73178627086E+02  0.88050277961E+01  0.24770686564E+02  0.77757487675E+02  0.00000000000E+00 0.  1.
         11    1    1    2    0    0  0.25941484145E+02 -0.75182250738E+01 -0.23035314826E+02  0.35498028636E+02  0.00000000000E+00 0. -1.
</event>
<event>
 7    1  0.2690635E-009  0.1111955E+03  0.7561462E-02  0.1258372E+00
         -1   -1    0    0    0  501 -0.00000000000E+00  0.00000000000E+00  0.82051142566E+02  0.82051142566E+02  0.00000000000E+00 0. -1.
          1   -1    0    0  501    0  0.00000000000E+00 -0.00000000000E+00 -0.19516191690E+03  0.19516191690E+03  0.00000000000E+00 0.  1.
         25    2    1    2    0    0 -0.16036731476E+02  0.52335051599E+02 -0.10137377320E+03  0.17006334549E+03  0.12509502470E+03 0.  0.
          5    1    3    3  502    0  0.41477030004E+02  0.62623525976E+01 -0.84376657332E+02  0.94321014522E+02  0.41800000000E+01 0.  1.
         -5    1    3    3    0  502 -0.57513761479E+02  0.46072699002E+02 -0.16997115865E+02  0.75742330969E+02  0.41800000000E+01 0.  1.
        -11    1    1    2    0    0 -0.12895112613E+02  0.22643928327E+02 -0.10985799306E+01  0.26081378361E+02  0.00000000000E+00 0.  1.
         11    1    1    2    0    0  0.28931844088E+02 -0.74978979926E+02 -0.10638421202E+02  0.81068335611E+02  0.00000000000E+00 0. -1.
</event>
<event>
 7    1  0.2690635E-009  0.1659669E+03  0.7561462E-02  0.1182120E+00
         -3   -1    0    0    0  501 -0.00000000000E+00  0.00000000000E+00  0.17995458735E+03  0.17995458735E+03  0.00000000000E+00 0.  1.
          3   -1    0    0  501    0  0.00000000000E+00 -0.00000000000E+00 -0.18307789236E+03  0.18307789236E+03  0.00000000000E+00 0. -1.
         25    2    1    2    0    0  0.12510595159E+03  0.30908531032E+02 -0.70354865400E+02  0.19288376988E+03  0.12508998834E+03 0.  0.
          5    1    3    3  502    0  0.33127820390E+02  0.68759839279E+02 -0.11670798558E+02  0.77324303557E+02  0.41800000000E+01 0. -1.
         -5    1    3    3    0  502  0.91978131204E+02 -0.37851308248E+02 -0.58684066842E+02  0.11555946632E+03  0.41800000000E+01 0. -1.
        -11    1    1    2    0    0 -0.32133440675E+02 -0.51516328440E+02  0.20604666229E+02  0.64117410865E+02  0.00000000000E+00 0.  1.
         11    1    1    2    0    0 -0.92972510919E+02  0.20607797409E+02  0.46626894164E+02  0.10603129896E+03  0.00000000000E+00 0. -1.
</event>
<event>
 7    1  0.2690635E-009  0.9475725E+02  0.7561462E-02  0.1291724E+00
          1   -1    0    0  501    0  0.00000000000E+00  0.00000000000E+00  0.31166943557E+02  0.31166943557E+02  0.00000000000E+00 0. -1.
         -1   -1    0    0    0  501 -0.00000000000E+00 -0.00000000000E+00 -0.47216280342E+03  0.47216280342E+03  0.00000000000E+00 0.  1.
         25    2    1    2    0    0 -0.38756161638E+02 -0.39701138492E+02 -0.23646077895E+03  0.27320323356E+03  0.12509231144E+03 0.  0.
          5    1    3    3  502    0 -0.34301675010E+02  0.12960696903E+02 -0.21133916174E+03  0.21453740526E+03  0.41800000000E+01 0.  1.
         -5    1    3    3    0  502 -0.44544866288E+01 -0.52661835395E+02 -0.25121617215E+02  0.58665828297E+02  0.41800000000E+01 0.  1.
        -11    1    1    2    0    0 -0.18349201288E+02  0.38302679517E+02 -0.12635200638E+03  0.13329897960E+03  0.00000000000E+00 0.  1.
         11    1    1    2    0    0  0.57105362927E+02  0.13984589748E+01 -0.78183074535E+02  0.96827533823E+02  0.00000000000E+00 0. -1.
</event>
<event>
 7    1  0.2690635E-009  0.9929660E+02  0.7561462E-02  0.1281782E+00
         -3   -1    0    0    0  501 -0.00000000000E+00  0.00000000000E+00  0.10284390091E+03  0.10284390091E+03  0.00000000000E+00 0.  1.
          3   -1    0    0  501    0  0.00000000000E+00 -0.00000000000E+00 -0.12218943155E+03  0.12218943155E+03  0.00000000000E+00 0. -1.
         25    2    1    2    0    0  0.75062840915E+01 -0.62436469318E+01  0.27179434923E+02  0.12837803675E+03  0.12508745424E+03 0.  0.
          5    1    3    3  502    0  0.19192303428E+02  0.51401620872E+02  0.40006501435E+02  0.68032813379E+02  0.41800000000E+01 0. -1.
         -5    1    3    3    0  502 -0.11686019337E+02 -0.57645267804E+02 -0.12827066512E+02  0.60345223369E+02  0.41800000000E+01 0. -1.
        -11    1    1    2    0    0  0.23376819441E+02  0.35206641943E+02 -0.20660061391E+02  0.47040636270E+02  0.00000000000E+00 0.  1.
         11    1    1    2    0    0 -0.30883103532E+02 -0.28962995011E+02 -0.25864904171E+02  0.49614659442E+02  0.00000000000E+00 0. -1.
</event>
<event>
 7    1  0.2690635E-009  0.1221964E+03  0.7561462E-02  0.1239517E+00
         -1   -1    0    0    0  501 -0.00000000000E+00  0.00000000000E+00  0.52997024040E+02  0.52997024040E+02  0.00000000000E+00 0.  1.
          1   -1    0    0  501    0  0.00000000000E+00 -0.00000000000E+00 -0.34310827332E+03  0.34310827332E+03  0.00000000000E+00 0. -1.
         25    2    1    2    0    0 -0.73928885662E+02  0.20981795982E+02 -0.18284108396E+03  0.23448700902E+03  0.12509028547E+03 0.  0.
          5    1    3    3  502    0 -0.53734071145E+02  0.62100116566E+02 -0.16645223918E+03  0.18565450495E+03  0.41800000000E+01 0. -1.
         -5    1    3    3    0  502 -0.20194814517E+02 -0.41118320584E+02 -0.16388844784E+02  0.48832504076E+02  0.41800000000E+01 0. -1.
        -11    1    1    2    0    0  0.49892242523E+01 -0.43389911962E+02 -0.63067660453E+02  0.76714448533E+02  0.00000000000E+00 0.  1.
         11    1    1    2    0    0  0.68939661410E+02  0.22408115980E+02 -0.44202504863E+02  0.84903839803E+02  0.00000000000E+00 0. -1.
</event>
<event>
 7    1  0.2690635E-009  0.1349897E+03  0.7561462E-02  0.1220234E+00
          1   -1    0    0  501    0  0.00000000000E+00  0.00000000000E+00  0.33626827848E+03  0.33626827848E+03  0.00000000000E+00 0. -1.
         -1   -1    0    0    0  501 -0.00000000000E+00 -0.00000000000E+00 -0.85225748299E+02  0.85225748299E+02  0.00000000000E+00 0.  1.
         25    2    1    2    0    0  0.10707584234E+03 -0.56391446121E+02  0.18833395995E+03  0.25644090831E+03  0.12508808005E+03 0.  0.
          5    1    3    3  502    0  0.41878516655E+01 -0.18010366607E+02 -0.15752698755E+02  0.24648150538E+02  0.41800000000E+01 0. -1.
         -5    1    3    3    0  502  0.10288799068E+03 -0.38381079514E+02  0.20408665871E+03  0.23179275777E+03  0.41800000000E+01 0. -1.
        -11    1    1    2    0    0 -0.43136927629E+02  0.63531758707E+02  0.65098737481E+02  0.10067236220E+03  0.00000000000E+00 0. -1.
         11    1    1    2    0    0 -0.63938914715E+02 -0.71403125855E+01 -0.23901672540E+01  0.64380756273E+02  0.00000000000E+00 0.  1.
</event>
<event>
 7    1  0.2690635E-009  0.1257008E+03  0.7561462E-02  0.1233978E+00
         -3   -1    0    0    0  501 -0.00000000000E+00  0.00000000000E+00  0.56792680664E+02  0.56792680664E+02  0.00000000000E+00 0.  1.
          3   -1    0    0  501    0  0.00000000000E+00 -0.00000000000E+00 -0.32862307750E+03  0.32862307750E+03  0.00000000000E+00 0. -1.
         25    2    1    2    0    0 -0.74085006184E+02  0.95454632962E+01 -0.16869823167E+03  0.22290516265E+03  0.12509162304E+03 0.  0.
          5    1    3    3  502    0  0.44583838220E+01  0.46808429560E+02 -0.10477430470E+03  0.11491750776E+03  0.41800000000E+01 0.  1.
         -5    1    3    3    0  502 -0.78543390006E+02 -0.37262966263E+02 -0.63923926969E+02  0.10798765488E+03  0.41800000000E+01 0.  1.
        -11    1    1    2    0    0  0.89369185454E+02  0.12600272843E+02 -0.10110254750E+03  0.13552617200E+03  0.00000000000E+00 0. -1.
         11    1    1    2    0    0 -0.15284179270E+02 -0.22145736139E+02 -0.20296176649E+01  0.26984423525E+02  0.00000000000E+00 0.  1.
</event>
<event>
 7    1  0.2690635E-009  0.1305783E+03  0.7561462E-02  0.1226600E+00
         -1   -1    0    0    0  501 -0.00000000000E+00  0.00000000000E+00  0.29835375774E+03  0.29835375774E+03  0.00000000000E+00 0.  1.
          1   -1    0    0  501    0  0.00000000000E+00 -0.00000000000E+00 -0.61300351337E+02  0.61300351337E+02  0.00000000000E+00 0. -1.
         25    2    1    2    0    0  0.57526300268E+02  0.55498397774E+02  0.12901028710E+03  0.19666884668E+03  0.12508250756E+03 0.  0.
          5    1    3    3  502    0  0.89690190536E+02  0.20174189428E+02  0.11381107830E+03  0.14636175095E+03  0.41800000000E+01 0. -1.
         -5    1    3    3    0  502 -0.32163890268E+02  0.35324208346E+02  0.15199208800E+02  0.50307095728E+02  0.41800000000E+01 0. -1.
        -11    1    1    2    0    0 -0.56418463240E+02  0.85967218295E+01  0.41321545735E+02  0.70458617375E+02  0.00000000000E+00 0. -1.
         11    1    1    2    0    0 -0.11078370279E+01 -0.64095119604E+02  0.66721573570E+02  0.92526645025E+02  0.00000000000E+00 0.  1.
</event>
<event>
 7    1  0.2690635E-009  0.1093766E+03  0.7561462E-02  0.1261729E+00
         -1   -1    0    0    0  501 -0.00000000000E+00  0.00000000000E+00  0.34186641500E+03  0.34186641500E+03  0.00000000000E+00 0.  1.
          1   -1    0    0  501    0  0.00000000000E+00 -0.00000000000E+00 -0.38209946076E+02  0.38209946076E+02  0.00000000000E+00 0. -1.
         25    2    1    2    0    0  0.32604497734E+02  0.14865988008E+02  0.15667899526E+03  0.20366682382E+03  0.12509123350E+03 0.  0.
          5    1    3    3  502    0 -0.46548990363E+02  0.48565483531E+01  0.80875762784E+02  0.93534784822E+02  0.41800000000E+01 0. -1.
         -5    1    3    3    0  502  0.79153488097E+02  0.10009439655E+02  0.75803232477E+02  0.11013203900E+03  0.41800000000E+01 0. -1.
        -11    1    1    2    0    0  0.24788208225E+02 -0.23110209293E+02  0.27640714430E+02  0.43732666678E+02  0.00000000000E+00 0. -1.
         11    1    1    2    0    0 -0.57392705959E+02  0.82442212854E+01  0.11933675924E+03  0.13267687058E+03  0.00000000000E+00 0.  1.
</event>
<event>
 7    1  0.2690635E-009  0.1116845E+03  0.7561462E-02  0.1257482E+00
         -2   -1    0    0    0  501 -0.00000000000E+00  0.00000000000E+00  0.59832834395E+03  0.59832834395E+03  0.00000000000E+00 0.  1.
          2   -1    0    0  501    0  0.00000000000E+00 -0.00000000000E+00 -0.26104687506E+02  0.26104687506E+02  0.00000000000E+00 0. -1.
         25    2    1    2    0    0  0.43385358698E+02 -0.13519382808E+02  0.21596935633E+03  0.25368450077E+03  0.12509196616E+03 0.  0.
          5    1    3    3  502    0  0.78755583607E+02 -0.36892931428E+02  0.11620719750E+03  0.14520714683E+03  0.41800000000E+01 0.  1.
         -5    1    3    3    0  502 -0.35370224910E+02  0.23373548620E+02  0.99762158826E+02  0.10847735394E+03  0.41800000000E+01 0.  1.
        -11    1    1    2    0    0  0.91383342488E+01  0.35576822048E+02  0.22030363772E+03  0.22334482804E+03  0.00000000000E+00 0.  1.
         11    1    1    2    0    0 -0.52523692946E+02 -0.22057439240E+02  0.13595066240E+03  0.14740370265E+03  0.00000000000E+00 0. -1.
</event>
<event>
 7    1  0.2690635E-009  0.1110236E+03  0.7561462E-02  0.1258686E+00
          2   -1    0    0  501    0  0.00000000000E+00  0.00000000000E+00  0.74574222045E+03  0.74574222045E+03  0.00000000000E+00 0. -1.
         -2   -1    0    0    0  501 -0.00000000000E+00 -0.00000000000E+00 -0.20078103241E+02  0.20078103241E+02  0.00000000000E+00 0.  1.
         25    2    1    2    0    0  0.48138756116E+02  0.16845554643E+02  0.37740387698E+03  0.40085406164E+03  0.12509668188E+03 0.  0.
          5    1    3    3  502    0  0.78900958006E+02  0.21969740638E+02  0.14714430056E+03  0.16845458814E+03  0.41800000000E+01 0.  1.
         -5    1    3    3    0  502 -0.30762201890E+02 -0.51241859942E+01  0.23025957642E+03  0.23239947350E+03  0.41800000000E+01 0.  1.
        -11    1    1    2    0    0  0.13129528508E+02  0.29143833718E+02  0.12049093500E+03  0.12465878621E+03  0.00000000000E+00 0. -1.
         11    1    1    2    0    0 -0.61268284625E+02 -0.45989388361E+02  0.22776930523E+03  0.24030747584E+03  0.00000000000E+00 0.  1.
</event>
<event>
 7    1  0.2690635E-009  0.2142902E+03  0.7561462E-02  0.1138213E+00
         -1   -1    0    0    0  501 -0.00000000000E+00  0.00000000000E+00  0.48873644379E+02  0.48873644379E+02  0.00000000000E+00 0.  1.
          1   -1    0    0  501    0  0.00000000000E+00 -0.00000000000E+00 -0.10743670078E+04  0.10743670078E+04  0.00000000000E+00 0. -1.
         25    2    1    2    0    0  0.19036567485E+03 -0.24846209039E+02 -0.38444411224E+03  0.44755011350E+03  0.12508958545E+03 0.  0.
          5    1    3    3  502    0  0.14355053056E+03  0.37437999976E+02 -0.21798947187E+03  0.26371431685E+03  0.41800000000E+01 0.  1.
         -5    1    3    3    0  502  0.46815144296E+02 -0.62284209015E+02 -0.16645464037E+03  0.18383579665E+03  0.41800000000E+01 0.  1.
        -11    1    1    2    0    0 -0.18050791758E+03  0.39212265470E+02 -0.62594661660E+03  0.65263303387E+03  0.00000000000E+00 0.  1.
         11    1    1    2    0    0 -0.98577572740E+01 -0.14366056431E+02 -0.15102634534E+02  0.23057504759E+02  0.00000000000E+00 0. -1.
</event>
<event>
 7    1  0.2690635E-009  0.1162475E+03  0.7561462E-02  0.1249419E+00
         -3   -1    0    0    0  501 -0.00000000000E+00  0.00000000000E+00  0.41022387219E+03  0.41022387219E+03  0.00000000000E+00 0.  1.
          3   -1    0    0  501    0  0.00000000000E+00 -0.00000000000E+00 -0.43338836348E+02  0.43338836348E+02  0.00000000000E+00 0. -1.
         25    2    1    2    0    0 -0.65069889252E+02  0.36055339384E+02  0.19973123092E+03  0.24713225638E+03  0.12509080524E+03 0.  0.
          5    1    3    3  502    0 -0.21548047481E+02  0.72205422093E+02  0.16279326845E+03  0.17943539780E+03  0.41800000000E+01 0.  1.
         -5    1    3    3    0  502 -0.43521841771E+02 -0.36150082709E+02  0.36937962465E+02  0.67696858584E+02  0.41800000000E+01 0.  1.
        -11    1    1    2    0    0  0.11872136184E+02 -0.44833338697E+02  0.21504119979E+02  0.51121453935E+02  0.00000000000E+00 0. -1.
         11    1    1    2    0    0  0.53197753068E+02  0.87779993129E+01  0.14564968495E+03  0.15530899822E+03  0.00000000000E+00 0.  1.
</event>
<event>
 7    1  0.2690635E-009  0.1672636E+03  0.7561462E-02  0.1180732E+00
          1   -1    0    0  501    0  0.00000000000E+00  0.00000000000E+00  0.33865588859E+03  0.33865588859E+03  0.00000000000E+00 0. -1.
         -1   -1    0    0    0  501 -0.00000000000E+00 -0.00000000000E+00 -0.11369124232E+03  0.11369124232E+03  0.00000000000E+00 0.  1.
         25    2    1    2    0    0 -0.56198872435E+02 -0.13957940102E+03  0.18442187191E+03  0.26888753993E+03  0.12509340447E+03 0.  0.
          5    1    3    3  502    0 -0.83458919996E+02 -0.12999915781E+03  0.18318627910E+03  0.23966613780E+03  0.41800000000E+01 0. -1.
         -5    1    3    3    0  502  0.27260047560E+02 -0.95802432083E+01  0.12355928027E+01  0.29221402131E+02  0.41800000000E+01 0. -1.
        -11    1    1    2    0    0  0.44237410862E+02  0.97916128755E+02 -0.19706618737E+02  0.10923766572E+03  0.00000000000E+00 0.  1.
         11    1    1    2    0    0  0.11961461573E+02  0.41663272265E+02  0.60249393101E+02  0.74221925250E+02  0.00000000000E+00 0. -1.
</event>
<event>
 7    1  0.2690635E-009  0.1287593E+03  0.7561462E-02  0.1229308E+00
          3   -1    0    0  501    0  0.00000000000E+00  0.00000000000E+00  0.16403914851E+03  0.16403914851E+03  0.00000000000E+00 0. -1.
         -3   -1    0    0    0  501 -0.00000000000E+00 -0.00000000000E+00 -0.13901698543E+03  0.13901698543E+03  0.00000000000E+00 0.  1.
         25    2    1    2    0    0  0.26669065073E+02 -0.10107492977E+03  0.35398522902E+01  0.16305640432E+03  0.12508988759E+03 0.  0.
          5    1    3    3  502    0  0.70441315019E+02 -0.62933459270E+02 -0.25606954051E+02  0.97958091310E+02  0.41800000000E+01 0.  1.
         -5    1    3    3    0  502 -0.43772249946E+02 -0.38141470500E+02  0.29146806341E+02  0.65098313013E+02  0.41800000000E+01 0.  1.
        -11    1    1    2    0    0 -0.24536834930E+02  0.82801491761E+02  0.54558940492E+02  0.10215097304E+03  0.00000000000E+00 0. -1.
         11    1    1    2    0    0 -0.21322301434E+01  0.18273438009E+02 -0.33076629700E+02  0.37848756576E+02  0.00000000000E+00 0.  1.
</event>
<event>
 7    1  0.2690635E-009  0.1860973E+03  0.7561462E-02  0.1162029E+00
          1   -1    0    0  501    0  0.00000000000E+00  0.00000000000E+00  0.17537708149E+03  0.17537708149E+03  0.00000000000E+00 0. -1.
         -1   -1    0    0    0  501 -0.00000000000E+00 -0.00000000000E+00 -0.25991885836E+03  0.25991885836E+03  0.00000000000E+00 0.  1.
         25    2    1    2    0    0 -0.21367038322E+02  0.17716343187E+03  0.11004026865E+01  0.21792776861E+03  0.12509144467E+03 0.  0.
          5    1    3    3  502    0 -0.48350363819E+02  0.13081112363E+03 -0.45498956318E+02  0.14675467683E+03  0.41800000000E+01 0.  1.
         -5    1    3    3    0  502  0.26983325497E+02  0.46352308238E+02  0.46599359004E+02  0.71173091779E+02  0.41800000000E+01 0.  1.
        -11    1    1    2    0    0  0.10176869205E+02 -0.40712714311E+02 -0.67194037415E+02  0.79222045149E+02  0.00000000000E+00 0.  1.
         11    1    1    2    0    0  0.11190169117E+02 -0.13645071755E+03 -0.18448142138E+02  0.13814612609E+03  0.00000000000E+00 0. -1.
</event>
<event>
 7    1  0.2690635E-009  0.1063587E+03  0.7561462E-02  0.1267465E+00
         -2   -1    0    0    0  501 -0.00000000000E+00  0.00000000000E+00  0.50709150473E+02  0.50709150473E+02  0.00000000000E+00 0.  1.
          2   -1    0    0  501    0  0.00000000000E+00 -0.00000000000E+00 -0.27617922902E+03  0.27617922902E+03  0.00000000000E+00 0. -1.
         25    2    1    2    0    0  0.16649118858E+02  0.41386585124E+02 -0.11830757691E+03  0.17785966914E+03  0.12508931435E+03 0.  0.
          5    1    3    3  502    0 -0.91810975639E+01  0.80709721431E+02 -0.95391196848E+02  0.12536069768E+03  0.41800000000E+01 0.  1.
         -5    1    3    3    0  502  0.25830216422E+02 -0.39323136307E+02 -0.22916380067E+02  0.52498971464E+02  0.41800000000E+01 0.  1.
        -11    1    1    2    0    0 -0.44110162117E+02 -0.34046477646E+02 -0.23152168899E+02  0.60339804166E+02  0.00000000000E+00 0.  1.
         11    1    1    2    0    0  0.27461043259E+02 -0.73401074780E+01 -0.84010332730E+02  0.88688906183E+02  0.00000000000E+00 0. -1.
</event>
<event>
 7    1  0.2690635E-009  0.1551966E+03  0.7561462E-02  0.1194229E+00
          1   -1    0    0  501    0  0.00000000000E+00  0.00000000000E+00  0.59144604599E+03  0.59144604599E+03  0.00000000000E+00 0. -1.
         -1   -1    0    0    0  501 -0.00000000000E+00 -0.00000000000E+00 -0.44394060058E+02  0.44394060058E+02  0.00000000000E+00 0.  1.
         25    2    1    2    0    0  0.11448569677E+03  0.14572038256E+02  0.22623956675E+03  0.28310997619E+03  0.12509035931E+03 0.  0.
          5    1    3    3  502    0 -0.21605477806E+02 -0.17415994377E+02  0.57179755984E+02  0.63695450589E+02  0.41800000000E+01 0.  1.
         -5    1    3    3    0  502  0.13609117457E+03  0.31988032632E+02  0.16905981076E+03  0.21941452560E+03  0.41800000000E+01 0.  1.
        -11    1    1    2    0    0 -0.83511082186E+02  0.29526363534E+02  0.15677463038E+03  0.18006718669E+03  0.00000000000E+00 0.  1.
         11    1    1    2    0    0 -0.30974614580E+02 -0.44098401789E+02  0.16403778881E+03  0.17266294317E+03  0.00000000000E+00 0. -1.
</event>
<event>
 7    1  0.2690635E-009  0.1060597E+03  0.7561462E-02  0.1268046E+00
         -2   -1    0    0    0  501 -0.00000000000E+00  0.00000000000E+00  0.74146162172E+02  0.74146162172E+02  0.00000000000E+00 0.  1.
          2   -1    0    0  501    0  0.00000000000E+00 -0.00000000000E+00 -0.19988331621E+03  0.19988331621E+03  0.00000000000E+00 0. -1.
         25    2    1    2    0    0  0.73915908899E+01 -0.78589408095E+01 -0.92198629943E+01  0.12591008497E+03  0.12510773380E+03 0.  0.
          5    1    3    3  502    0 -0.53602873665E+02 -0.21842323943E+02 -0.21712351363E+02  0.61961712227E+02  0.41800000000E+01 0.  1.
         -5    1    3    3    0  502  0.60994464555E+02  0.13983383133E+02  0.12492488369E+02  0.63948372738E+02  0.41800000000E+01 0.  1.
        -11    1    1    2    0    0 -0.42643124469E+02  0.27766062372E+02 -0.61808651089E+02  0.80060599757E+02  0.00000000000E+00 0. -1.
         11    1    1    2    0    0  0.35251533579E+02 -0.19907121562E+02 -0.54708639955E+02  0.68058793659E+02  0.00000000000E+00 0.  1.
</event>
<event>
 7    1  0.2690635E-009  0.1042342E+03  0.7561462E-02  0.1271636E+00
          1   -1    0    0  501    0  0.00000000000E+00  0.00000000000E+00  0.28721987498E+03  0.28721987498E+03  0.00000000000E+00 0. -1.
         -1   -1    0    0    0  501 -0.00000000000E+00 -0.00000000000E+00 -0.54859130485E+02  0.54859130485E+02  0.00000000000E+00 0.  1.
         25    2    1    2    0    0  0.36271317813E+02  0.63198046735E+02  0.11967684177E+03  0.18782862771E+03  0.12508974908E+03 0.  0.
          5    1    3    3  502    0  0.58950599045E+01 -0.26937365280E+02  0.79931584045E+02  0.84657568519E+02  0.41800000000E+01 0. -1.
         -5    1    3    3    0  502  0.30376257908E+02  0.90135412015E+02  0.39745257725E+02  0.10317105919E+03  0.41800000000E+01 0. -1.
        -11    1    1    2    0    0 -0.30884318170E+02 -0.10833289936E+02  0.33454966127E+01  0.32899751173E+02  0.00000000000E+00 0.  1.
         11    1    1    2    0    0 -0.53869996426E+01 -0.52364756799E+02  0.10933840611E+03  0.12135062658E+03  0.00000000000E+00 0. -1.
</event>
<event>
 7    1  0.2690635E-009  0.1474241E+03  0.7561462E-02  0.1203674E+00
         -1   -1    0    0    0  501 -0.00000000000E+00  0.00000000000E+00  0.81817671957E+03  0.81817671957E+03  0.00000000000E+00 0.  1.
          1   -1    0    0  501    0  0.00000000000E+00 -0.00000000000E+00 -0.29221396748E+02  0.29221396748E+02  0.00000000000E+00 0. -1.
         25    2    1    2    0    0 -0.85022683379E+02  0.75908816700E+02  0.42786308069E+03  0.46011415349E+03  0.12508882157E+03 0.  0.
          5    1    3    3  502    0 -0.54394148134E+02  0.10942422825E+03  0.33606771075E+03  0.35761902031E+03  0.41800000000E+01 0. -1.
         -5    1    3    3    0  502 -0.30628535245E+02 -0.33515411552E+02  0.91795369941E+02  0.10249513318E+03  0.41800000000E+01 0. -1.
        -11    1    1    2    0    0  0.13638468606E+02 -0.48727177044E+02  0.70233924008E+02  0.86562981061E+02  0.00000000000E+00 0. -1.
         11    1    1    2    0    0  0.71384214773E+02 -0.27181639656E+02  0.29085831813E+03  0.30072098177E+03  0.00000000000E+00 0.  1.
</event>
<event>
 7    1  0.2690635E-009  0.7172089E+02  0.7561462E-02  0.1354337E+00
          2   -1    0    0  501    0  0.00000000000E+00  0.00000000000E+00  0.63198208235E+03  0.63198208235E+03  0.00000000000E+00 0. -1.
         -2   -1    0    0    0  501 -0.00000000000E+00 -0.00000000000E+00 -0.20220687911E+02  0.20220687911E+02  0.00000000000E+00 0.  1.
         25    2    1    2    0    0  0.22050564912E+02  0.61017811801E+01  0.43598438917E+03  0.45415126785E+03  0.12509007690E+03 0.  0.
          5    1    3    3  502    0 -0.65962713126E+01  0.28810554547E+02  0.18648496825E+02  0.35196557820E+02  0.41800000000E+01 0.  1.
         -5    1    3    3    0  502  0.28646836224E+02 -0.22708773367E+02  0.41733589235E+03  0.41895471003E+03  0.41800000000E+01 0.  1.
        -11    1    1    2    0    0 -0.41092505280E+02  0.19014868619E+02  0.15191388128E+03  0.15851809532E+03  0.00000000000E+00 0. -1.
         11    1    1    2    0    0  0.19041940368E+02 -0.25116649799E+02  0.23863123999E+02  0.39533407102E+02  0.00000000000E+00 0.  1.
</event>
<event>
 7    1  0.2690635E-009  0.9620580E+02  0.7561462E-02  0.1288483E+00
          3   -1    0    0  501    0  0.00000000000E+00  0.00000000000E+00  0.15140111094E+03  0.15140111094E+03  0.00000000000E+00 0. -1.
         -3   -1    0    0    0  501 -0.00000000000E+00 -0.00000000000E+00 -0.10722927304E+03  0.10722927304E+03  0.00000000000E+00 0.  1.
         25    2    1    2    0    0 -0.49071842942E+02  0.25924327094E+02  0.62711680179E+02  0.15053525090E+03  0.12509192790E+03 0.  0.
          5    1    3    3  502    0  0.14448794351E+02  0.44897423975E+02  0.69140108005E+02  0.83799601865E+02  0.41800000000E+01 0.  1.
         -5    1    3    3    0  502 -0.63520637293E+02 -0.18973096880E+02 -0.64284278254E+01  0.66735649031E+02  0.41800000000E+01 0.  1.
        -11    1    1    2    0    0  0.30878084127E+02  0.14644367132E+02 -0.44885045297E+02  0.56414367491E+02  0.00000000000E+00 0.  1.
         11    1    1    2    0    0  0.18193758815E+02 -0.40568694226E+02  0.26345203016E+02  0.51680765600E+02  0.00000000000E+00 0. -1.
</event>
<event>
 7    1  0.2690635E-009  0.1093039E+03  0.7561462E-02  0.1261864E+00
          1   -1    0    0  501    0  0.00000000000E+00  0.00000000000E+00  0.11823965108E+03  0.11823965108E+03  0.00000000000E+00 0. -1.
         -1   -1    0    0    0  501 -0.00000000000E+00 -0.00000000000E+00 -0.16475760179E+03  0.16475760179E+03  0.00000000000E+00 0.  1.
         25    2    1    2    0    0  0.37889450226E+02  0.85204382495E+01 -0.10960501699E+03  0.17078997720E+03  0.12509095993E+03 0.  0.
          5    1    3    3  502    0  0.64524237709E+02  0.49511467304E+02 -0.61225166025E+02  0.10188599512E+03  0.41800000000E+01 0.  1.
         -5    1    3    3    0  502 -0.26634787482E+02 -0.40991029054E+02 -0.48379850962E+02  0.68903982078E+02  0.41800000000E+01 0.  1.
        -11    1    1    2    0    0 -0.62719329964E+02 -0.38183239238E+01  0.59764781807E+02  0.86718643285E+02  0.00000000000E+00 0. -1.
         11    1    1    2    0    0  0.24829879737E+02 -0.47021143257E+01  0.33222844756E+01  0.25488632389E+02  0.00000000000E+00 0.  1.
</event>
<event>
 7    1  0.2690635E-009  0.1356536E+03  0.7561462E-02  0.1219300E+00
         -2   -1    0    0    0  501 -0.00000000000E+00  0.00000000000E+00  0.48594186252E+02  0.48594186252E+02  0.00000000000E+00 0.  1.
          2   -1    0    0  501    0  0.00000000000E+00 -0.00000000000E+00 -0.58691578479E+03  0.58691578479E+03  0.00000000000E+00 0. -1.
         25    2    1    2    0    0 -0.71048808966E+02  0.10593173298E+03 -0.25387454959E+03  0.31043527011E+03  0.12509318404E+03 0.  0.
          5    1    3    3  502    0 -0.24567433222E+02  0.84981163053E+02 -0.24231307184E+03  0.25798925178E+03  0.41800000000E+01 0.  1.
         -5    1    3    3    0  502 -0.46481375744E+02  0.20950569929E+02 -0.11561477748E+02  0.52446018334E+02  0.41800000000E+01 0.  1.
        -11    1    1    2    0    0  0.44996358271E+02 -0.91116277811E+02 -0.11701659234E+03  0.15498300301E+03  0.00000000000E+00 0.  1.
         11    1    1    2    0    0  0.26052450695E+02 -0.14815455171E+02 -0.16743045661E+03  0.17009169792E+03  0.00000000000E+00 0. -1.
</event>
<event>
 7    1  0.2742880E-009  0.1292839E+03  0.7561462E-02  0.1228522E+00
         -2   -1    0    0    0  501 -0.00000000000E+00  0.00000000000E+00  0.39913294185E+02  0.39913294185E+02  0.00000000000E+00 0.  1.
          2   -1    0    0  501    0  0.00000000000E+00 -0.00000000000E+00 -0.57102478765E+03  0.57102478765E+03  0.00000000000E+00 0. -1.
         25    2    1    2    0    0  0.35166557218E+02  0.98073009771E+02 -0.27045314349E+03  0.31567401934E+03  0.12510068613E+03 0.  0.
          5    1    3    3  502    0 -0.27539735094E+02 -0.89397117104E+01 -0.17951918070E+02  0.34323449956E+02  0.41800000000E+01 0. -1.
         -5    1    3    3    0  502  0.62706292312E+02  0.10701272148E+03 -0.25250122542E+03  0.28135056938E+03  0.41800000000E+01 0. -1.
        -11    1    1    2    0    0 -0.16429669193E+02 -0.26110179000E+02 -0.79714797795E+01  0.31862516647E+02  0.00000000000E+00 0.  1.
         11    1    1    2    0    0 -0.18736888025E+02 -0.71962830771E+02 -0.25268687020E+03  0.26340154585E+03  0.00000000000E+00 0. -1.
</event>
<event>
 7    1  0.2690635E-009  0.1636614E+03  0.7561462E-02  0.1184624E+00
          1   -1    0    0  501    0  0.00000000000E+00  0.00000000000E+00  0.67641979638E+02  0.67641979638E+02  0.00000000000E+00 0. -1.
         -1   -1    0    0    0  501 -0.00000000000E+00 -0.00000000000E+00 -0.55632446181E+03  0.55632446181E+03  0.00000000000E+00 0.  1.
         25    2    1    2    0    0  0.95518083262E+02  0.86858191709E+02 -0.10334307777E+03  0.20735180558E+03  0.12508768867E+03 0.  0.
          5    1    3    3  502    0 -0.27337163611E+02  0.13202820404E+01 -0.29219938296E+02  0.40253457653E+02  0.41800000000E+01 0.  1.
         -5    1    3    3    0  502  0.12285524687E+03  0.85537909668E+02 -0.74123139478E+02  0.16709834793E+03  0.41800000000E+01 0.  1.
        -11    1    1    2    0    0 -0.10643479937E+03 -0.63104809911E+02 -0.25203086105E+03  0.28076705375E+03  0.00000000000E+00 0. -1.
         11    1    1    2    0    0  0.10916716103E+02 -0.23753381798E+02 -0.13330854334E+03  0.13584758211E+03  0.00000000000E+00 0.  1.
</event>
<event>
 7    1  0.2690635E-009  0.1491387E+03  0.7561462E-02  0.1201535E+00
         -2   -1    0    0    0  501 -0.00000000000E+00  0.00000000000E+00  0.71088479920E+02  0.71088479920E+02  0.00000000000E+00 0.  1.
          2   -1    0    0  501    0  0.00000000000E+00 -0.00000000000E+00 -0.53790620835E+03  0.53790620835E+03  0.00000000000E+00 0. -1.
         25    2    1    2    0    0  0.89082172881E+02 -0.10184032601E+03 -0.10593181870E+03  0.21254439621E+03  0.12508590895E+03 0.  0.
          5    1    3    3  502    0  0.71204257847E+02 -0.27503406760E+02  0.62728820956E+01  0.76702706398E+02  0.41800000000E+01 0. -1.
         -5    1    3    3    0  502  0.17877915034E+02 -0.74336919252E+02 -0.11220470079E+03  0.13584168981E+03  0.41800000000E+01 0. -1.
        -11    1    1    2    0    0 -0.81680679835E+02  0.56493050276E+02 -0.31961418544E+03  0.33468855033E+03  0.00000000000E+00 0. -1.
         11    1    1    2    0    0 -0.74014930463E+01  0.45347275736E+02 -0.41271724293E+02  0.61761741735E+02  0.00000000000E+00 0.  1.
</event>
<event>
 7    1  0.2690635E-009  0.1139643E+03  0.7561462E-02  0.1253400E+00
          1   -1    0    0  501    0  0.00000000000E+00  0.00000000000E+00  0.58738510045E+03  0.58738510045E+03  0.00000000000E+00 0. -1.
         -1   -1    0    0    0  501 -0.00000000000E+00 -0.00000000000E+00 -0.24569494309E+02  0.24569494309E+02  0.00000000000E+00 0.  1.
         25    2    1    2    0    0 -0.41220216278E+02 -0.17399040719E+02  0.24273924850E+03  0.27671608882E+03  0.12509044009E+03 0.  0.
          5    1    3    3  502    0 -0.78509634291E+02  0.18662467073E+02  0.14861705430E+03  0.16916427396E+03  0.41800000000E+01 0. -1.
         -5    1    3    3    0  502  0.37289418013E+02 -0.36061507792E+02  0.94122194199E+02  0.10755181487E+03  0.41800000000E+01 0. -1.
        -11    1    1    2    0    0  0.51263269870E+02  0.43425394828E+02  0.26645575793E+03  0.27479512129E+03  0.00000000000E+00 0. -1.
         11    1    1    2    0    0 -0.10043053593E+02 -0.26026354108E+02  0.53620599708E+02  0.60443384639E+02  0.00000000000E+00 0.  1.
</event>
<event>
 7    1  0.2690635E-009  0.9413287E+02  0.7561462E-02  0.1293141E+00
          2   -1    0    0  501    0  0.00000000000E+00  0.00000000000E+00  0.28216013859E+03  0.28216013859E+03  0.00000000000E+00 0.  1.
         -2   -1    0    0    0  501 -0.00000000000E+00 -0.00000000000E+00 -0.58826491726E+02  0.58826491726E+02  0.00000000000E+00 0. -1.
         25    2    1    2    0    0  0.65121633526E+02  0.18968228658E+02  0.15559472341E+03  0.21084649820E+03  0.12508360004E+03 0.  0.
          5    1    3    3  502    0  0.80401301269E+02 -0.13110140659E+02  0.41994074156E+02  0.91745406959E+02  0.41800000000E+01 0. -1.
         -5    1    3    3    0  502 -0.15279667743E+02  0.32078369317E+02  0.11360064925E+03  0.11910109124E+03  0.41800000000E+01 0. -1.
        -11    1    1    2    0    0 -0.12043760046E+02  0.45360215280E+01 -0.20686561751E+02  0.24363117297E+02  0.00000000000E+00 0. -1.
         11    1    1    2    0    0 -0.53077873480E+02 -0.23504250186E+02  0.88425485206E+02  0.10577701482E+03  0.00000000000E+00 0.  1.
</event>
<event>
 7    1  0.2690635E-009  0.1239828E+03  0.7561462E-02  0.1236668E+00
         -1   -1    0    0    0  501 -0.00000000000E+00  0.00000000000E+00  0.12079514638E+03  0.12079514638E+03  0.00000000000E+00 0.  1.
          1   -1    0    0  501    0  0.00000000000E+00 -0.00000000000E+00 -0.13262966041E+03  0.13262966041E+03  0.00000000000E+00 0. -1.
         25    2    1    2    0    0  0.66036955730E+01 -0.49706034965E+02 -0.26797346565E+02  0.13740355758E+03  0.12508933267E+03 0.  0.
          5    1    3    3  502    0 -0.37412934792E+02  0.26378936390E+02 -0.21514593062E+01  0.46018226302E+02  0.41800000000E+01 0.  1.
         -5    1    3    3    0  502  0.44016630365E+02 -0.76084971355E+02 -0.24645887258E+02  0.91385331282E+02  0.41800000000E+01 0.  1.
        -11    1    1    2    0    0 -0.27992799898E+02  0.75481010813E+02  0.17660404258E+02  0.82418867489E+02  0.00000000000E+00 0. -1.
         11    1    1    2    0    0  0.21389104325E+02 -0.25774975848E+02 -0.26975717202E+01  0.33602381716E+02  0.00000000000E+00 0.  1.
</event>
<event>
 7    1  0.2690635E-009  0.1474053E+03  0.7561462E-02  0.1203698E+00
         -2   -1    0    0    0  501 -0.00000000000E+00  0.00000000000E+00  0.10813290743E+03  0.10813290743E+03  0.00000000000E+00 0.  1.
          2   -1    0    0  501    0  0.00000000000E+00 -0.00000000000E+00 -0.28730340009E+03  0.28730340009E+03  0.00000000000E+00 0. -1.
         25    2    1    2    0    0  0.10227897461E+03 -0.91591867766E+02 -0.11706636067E+03  0.21955084374E+03  0.12509189141E+03 0.  0.
          5    1    3    3  502    0  0.10073919199E+03 -0.45319703609E+02 -0.20569157297E+02  0.11244030847E+03  0.41800000000E+01 0. -1.
         -5    1    3    3    0  502  0.15397826273E+01 -0.46272164157E+02 -0.96497203371E+02  0.10711053527E+03  0.41800000000E+01 0. -1.
        -11    1    1    2    0    0 -0.15506409909E+02  0.19873738345E+02  0.23498401143E+02  0.34461414369E+02  0.00000000000E+00 0.  1.
         11    1    1    2    0    0 -0.86772564706E+02  0.71718129421E+02 -0.85602533137E+02  0.14142404941E+03  0.00000000000E+00 0. -1.
</event>
<event>
 7    1  0.2690635E-009  0.2032427E+03  0.7561462E-02  0.1147032E+00
          1   -1    0    0  501    0  0.00000000000E+00  0.00000000000E+00  0.81895562764E+03  0.81895562764E+03  0.00000000000E+00 0. -1.
         -1   -1    0    0    0  501 -0.00000000000E+00 -0.00000000000E+00 -0.66520801107E+02  0.66520801107E+02  0.00000000000E+00 0.  1.
         25    2    1    2    0    0 -0.17366939489E+03  0.59709172028E+02  0.20941435052E+03  0.30532900750E+03  0.12508072862E+03 0.  0.
          5    1    3    3  502    0 -0.13695889722E+03  0.60170306550E+01  0.75899323572E+02  0.15675498048E+03  0.41800000000E+01 0. -1.
         -5    1    3    3    0  502 -0.36710497668E+02  0.53692141373E+02  0.13351502695E+03  0.14857402702E+03  0.41800000000E+01 0. -1.
        -11    1    1    2    0    0  0.78933243003E+02  0.18769990919E+02  0.20948739360E+03  0.22465025593E+03  0.00000000000E+00 0.  1.
         11    1    1    2    0    0  0.94736151883E+02 -0.78479162947E+02  0.33353308240E+03  0.35549716532E+03  0.00000000000E+00 0. -1.
</event>
<event>
 7    1  0.2690635E-009  0.1798453E+03  0.7561462E-02  0.1167953E+00
          2   -1    0    0  501    0  0.00000000000E+00  0.00000000000E+00  0.25666656427E+04  0.25666656427E+04  0.00000000000E+00 0. -1.
         -2   -1    0    0    0  501 -0.00000000000E+00 -0.00000000000E+00 -0.14430069617E+02  0.14430069617E+02  0.00000000000E+00 0.  1.
         25    2    1    2    0    0  0.13397812425E+03  0.55791613868E+02  0.17712441434E+04  0.17815769541E+04  0.12509111094E+03 0.  0.
          5    1    3    3  502    0  0.63376575322E+01  0.61052551175E+02  0.71080225708E+03  0.71345981034E+03  0.41800000000E+01 0.  1.
         -5    1    3    3    0  502  0.12764046672E+03 -0.52609373075E+01  0.10604418863E+04  0.10681171438E+04  0.41800000000E+01 0.  1.
        -11    1    1    2    0    0 -0.31705752663E+02 -0.60139998908E+02  0.34953145859E+03  0.35608189334E+03  0.00000000000E+00 0.  1.
         11    1    1    2    0    0 -0.10227237159E+03  0.43483850404E+01  0.43145997113E+03  0.44343686488E+03  0.00000000000E+00 0. -1.
</event>
<event>
 7    1  0.2690635E-009  0.1664889E+03  0.7561462E-02  0.1181560E+00
          1   -1    0    0  501    0  0.00000000000E+00  0.00000000000E+00  0.72099826649E+03  0.72099826649E+03  0.00000000000E+00 0. -1.
         -1   -1    0    0    0  501 -0.00000000000E+00 -0.00000000000E+00 -0.47576096632E+02  0.47576096632E+02  0.00000000000E+00 0.  1.
         25    2    1    2    0    0  0.10621388799E+03  0.10325989099E+03  0.39582645141E+03  0.44076091739E+03  0.12509041357E+03 0.  0.
          5    1    3    3  502    0  0.48637565415E+02 -0.13802762945E+02  0.19308317959E+03  0.19963645878E+03  0.41800000000E+01 0. -1.
         -5    1    3    3    0  502  0.57576322576E+02  0.11706265394E+03  0.20274327182E+03  0.24112445860E+03  0.41800000000E+01 0. -1.
        -11    1    1    2    0    0 -0.65856538687E+02 -0.84737185430E+02  0.10705229978E+03  0.15158386843E+03  0.00000000000E+00 0.  1.
         11    1    1    2    0    0 -0.40357349304E+02 -0.18522705561E+02  0.17054341867E+03  0.17622957730E+03  0.00000000000E+00 0. -1.
</event>
<event>
 7    1  0.2690635E-009  0.1080058E+03  0.7561462E-02  0.1264308E+00
         -1   -1    0    0    0  501 -0.00000000000E+00  0.00000000000E+00  0.13216814137E+03  0.13216814137E+03  0.00000000000E+00 0.  1.
          1   -1    0    0  501    0  0.00000000000E+00 -0.00000000000E+00 -0.25190279463E+03  0.25190279463E+03  0.00000000000E+00 0. -1.
         25    2    1    2    0    0  0.37918474012E+01 -0.59861164390E+02  0.77614804565E+02  0.15896272414E+03  0.12508937873E+03 0.  0.
          5    1    3    3  502    0 -0.53519687675E+02 -0.21136145027E+02  0.39510603898E+01  0.57828858485E+02  0.41800000000E+01 0.  1.
         -5    1    3    3    0  502  0.57311535076E+02 -0.38725019363E+02  0.73663744175E+02  0.10113386566E+03  0.41800000000E+01 0.  1.
        -11    1    1    2    0    0 -0.32029147304E+02  0.49473133860E+02 -0.18205414701E+03  0.19135613315E+03  0.00000000000E+00 0. -1.
         11    1    1    2    0    0  0.28237299903E+02  0.10388030530E+02 -0.15295310823E+02  0.33752078711E+02  0.00000000000E+00 0.  1.
</event>
<event>
 7    1  0.2690635E-009  0.1556249E+03  0.7561462E-02  0.1193727E+00
          1   -1    0    0  501    0  0.00000000000E+00  0.00000000000E+00  0.21544248532E+03  0.21544248532E+03  0.00000000000E+00 0. -1.
         -1   -1    0    0    0  501 -0.00000000000E+00 -0.00000000000E+00 -0.13264668601E+03  0.13264668601E+03  0.00000000000E+00 0.  1.
         25    2    1    2    0    0  0.29353768781E+01  0.11953641774E+03 -0.67715161042E+01  0.17317833459E+03  0.12508921032E+03 0.  0.
          5    1    3    3  502    0  0.43570299699E+02  0.97499390988E+01  0.25615712410E+02  0.51643677740E+02  0.41800000000E+01 0.  1.
         -5    1    3    3    0  502 -0.40634922821E+02  0.10978647864E+03 -0.32387228514E+02  0.12153465685E+03  0.41800000000E+01 0.  1.
        -11    1    1    2    0    0 -0.15928793928E+02  0.10178282689E+02  0.51165449993E+01  0.19583231277E+02  0.00000000000E+00 0.  1.
         11    1    1    2    0    0  0.12993417050E+02 -0.12971470043E+03  0.84450770420E+02  0.15532760546E+03  0.00000000000E+00 0. -1.
</event>
<event>
 7    1  0.2690635E-009  0.1067043E+03  0.7561462E-02  0.1266798E+00
          1   -1    0    0  501    0  0.00000000000E+00  0.00000000000E+00  0.20049738767E+03  0.20049738767E+03  0.00000000000E+00 0. -1.
         -1   -1    0    0    0  501 -0.00000000000E+00 -0.00000000000E+00 -0.67717762296E+02  0.67717762296E+02  0.00000000000E+00 0.  1.
         25    2    1    2    0    0 -0.22040905700E+02  0.35976690132E+02  0.95693598616E+02  0.16304775685E+03  0.12508869829E+03 0.  0.
          5    1    3    3  502    0 -0.65212663178E+02  0.10072083194E+02  0.90756024039E+02  0.11228653792E+03  0.41800000000E+01 0.  1.
         -5    1    3    3    0  502  0.43171757478E+02  0.25904606938E+02  0.49375745770E+01  0.50761218928E+02  0.41800000000E+01 0.  1.
        -11    1    1    2    0    0  0.54803691424E+02 -0.11818989393E+02  0.11941307097E+02  0.57321269344E+02  0.00000000000E+00 0.  1.
         11    1    1    2    0    0 -0.32762785724E+02 -0.24157700740E+02  0.25144719662E+02  0.47846123776E+02  0.00000000000E+00 0. -1.
</event>
<event>
 7    1  0.2690635E-009  0.2840195E+03  0.7561462E-02  0.1093514E+00
          4   -1    0    0  501    0  0.00000000000E+00  0.00000000000E+00  0.61060795050E+02  0.61060795050E+02  0.00000000000E+00 0. -1.
         -4   -1    0    0    0  501 -0.00000000000E+00 -0.00000000000E+00 -0.18667262880E+04  0.18667262880E+04  0.00000000000E+00 0.  1.
         25    2    1    2    0    0  0.49824595212E+02 -0.27419959125E+03 -0.13625682707E+04  0.13963912802E+04  0.12509360078E+03 0.  0.
          5    1    3    3  502    0  0.36022882947E+02 -0.85010956784E+02 -0.73441755014E+03  0.74021018720E+03  0.41800000000E+01 0.  1.
         -5    1    3    3    0  502  0.13801712265E+02 -0.18918863447E+03 -0.62815072052E+03  0.65618109297E+03  0.41800000000E+01 0.  1.
        -11    1    1    2    0    0 -0.65214184933E+02  0.21200862517E+03 -0.38785084051E+03  0.44679841265E+03  0.00000000000E+00 0. -1.
         11    1    1    2    0    0  0.15389589721E+02  0.62190966084E+02 -0.55246381751E+02  0.84597390213E+02  0.00000000000E+00 0.  1.
</event>
<event>
 7    1  0.2690635E-009  0.1881498E+03  0.7561462E-02  0.1160141E+00
         -2   -1    0    0    0  501 -0.00000000000E+00  0.00000000000E+00  0.38117202504E+03  0.38117202504E+03  0.00000000000E+00 0.  1.
          2   -1    0    0  501    0  0.00000000000E+00 -0.00000000000E+00 -0.13138194160E+03  0.13138194160E+03  0.00000000000E+00 0. -1.
         25    2    1    2    0    0  0.13420449304E+02  0.18237386268E+03  0.51571029178E+02  0.22747545999E+03  0.12508069234E+03 0.  0.
          5    1    3    3  502    0 -0.11832135046E+02  0.49463916170E+02 -0.39333086231E+02  0.64430136544E+02  0.41800000000E+01 0.  1.
         -5    1    3    3    0  502  0.25252584350E+02  0.13290994651E+03  0.90904115409E+02  0.16304532344E+03  0.41800000000E+01 0.  1.
        -11    1    1    2    0    0  0.14718456170E+02 -0.12653716458E+03  0.77458759795E+02  0.14909106761E+03  0.00000000000E+00 0. -1.
         11    1    1    2    0    0 -0.28138905475E+02 -0.55836698099E+02  0.12076029447E+03  0.13598743904E+03  0.00000000000E+00 0.  1.
</event>
<event>
 7    1  0.2690635E-009  0.1194544E+03  0.7561462E-02  0.1244000E+00
         -2   -1    0    0    0  501 -0.00000000000E+00  0.00000000000E+00  0.14073973958E+03  0.14073973958E+03  0.00000000000E+00 0.  1.
          2   -1    0    0  501    0  0.00000000000E+00 -0.00000000000E+00 -0.13168191062E+03  0.13168191062E+03  0.00000000000E+00 0. -1.
         25    2    1    2    0    0  0.75697148680E+02 -0.26736495611E+02 -0.14941983280E+02  0.14938464766E+03  0.12509041360E+03 0.  0.
          5    1    3    3  502    0  0.31927365274E+01  0.37015531697E+02 -0.34403456367E+02  0.50807611274E+02  0.41800000000E+01 0.  1.
         -5    1    3    3    0  502  0.72504412152E+02 -0.63752027308E+02  0.19461473087E+02  0.98577036383E+02  0.41800000000E+01 0.  1.
        -11    1    1    2    0    0 -0.65834154514E+02 -0.10230660423E+02 -0.15119083678E+02  0.68318291873E+02  0.00000000000E+00 0. -1.
         11    1    1    2    0    0 -0.98629941656E+01  0.36967156034E+02  0.39118895921E+02  0.54718710669E+02  0.00000000000E+00 0.  1.
</event>
<event>
 7    1  0.2690635E-009  0.2076286E+03  0.7561462E-02  0.1143458E+00
          1   -1    0    0  501    0  0.00000000000E+00  0.00000000000E+00  0.12119453238E+03  0.12119453238E+03  0.00000000000E+00 0. -1.
         -1   -1    0    0    0  501 -0.00000000000E+00 -0.00000000000E+00 -0.36952046973E+03  0.36952046973E+03  0.00000000000E+00 0.  1.
         25    2    1    2    0    0  0.86367236932E+02 -0.15818108136E+03 -0.14927974851E+03  0.26535414393E+03  0.12509126376E+03 0.  0.
          5    1    3    3  502    0 -0.30084456397E+02 -0.16633617384E+02 -0.35411833330E+02  0.49530011950E+02  0.41800000000E+01 0. -1.
         -5    1    3    3    0  502  0.11645169333E+03 -0.14154746398E+03 -0.11386791518E+03  0.21582413198E+03  0.41800000000E+01 0. -1.
        -11    1    1    2    0    0 -0.49952072649E+02  0.19038776939E+02 -0.53926978822E+01  0.53728630912E+02  0.00000000000E+00 0.  1.
         11    1    1    2    0    0 -0.36415164283E+02  0.13914230442E+03 -0.93653490958E+02  0.17163222727E+03  0.00000000000E+00 0. -1.
</event>
<event>
 7    1  0.2690635E-009  0.1316230E+03  0.7561462E-02  0.1225067E+00
          2   -1    0    0  501    0  0.00000000000E+00  0.00000000000E+00  0.33209938402E+02  0.33209938402E+02  0.00000000000E+00 0. -1.
         -2   -1    0    0    0  501 -0.00000000000E+00 -0.00000000000E+00 -0.76999660534E+03  0.76999660534E+03  0.00000000000E+00 0.  1.
         25    2    1    2    0    0  0.40583998928E+02 -0.64238127506E+02 -0.17070507008E+03  0.22485870563E+03  0.12509044149E+03 0.  0.
          5    1    3    3  502    0  0.81006589819E+02 -0.17429021746E+02 -0.82083262304E+02  0.11670892315E+03  0.41800000000E+01 0.  1.
         -5    1    3    3    0  502 -0.40422590892E+02 -0.46809105760E+02 -0.88621807777E+02  0.10814978248E+03  0.41800000000E+01 0.  1.
        -11    1    1    2    0    0 -0.54584083447E+01  0.79719469605E+02 -0.39737704157E+03  0.40533134744E+03  0.00000000000E+00 0. -1.
         11    1    1    2    0    0 -0.35125590583E+02 -0.15481342098E+02 -0.16870455529E+03  0.17301649067E+03  0.00000000000E+00 0.  1.
</event>
<event>
 7    1  0.2690635E-009  0.9548552E+02  0.7561462E-02  0.1290086E+00
         -3   -1    0    0    0  501 -0.00000000000E+00  0.00000000000E+00  0.29614437802E+02  0.29614437802E+02  0.00000000000E+00 0.  1.
          3   -1    0    0  501    0  0.00000000000E+00 -0.00000000000E+00 -0.43779614729E+03  0.43779614729E+03  0.00000000000E+00 0. -1.
         25    2    1    2    0    0  0.12297997822E+02  0.41853038541E+02 -0.23334833679E+03  0.26833210835E+03  0.12509099290E+03 0.  0.
          5    1    3    3  502    0  0.17382010788E+02 -0.29788473792E+02 -0.16663285412E+03  0.17021594503E+03  0.41800000000E+01 0. -1.
         -5    1    3    3    0  502 -0.50840129660E+01  0.71641512333E+02 -0.66715482669E+02  0.98116163321E+02  0.41800000000E+01 0. -1.
        -11    1    1    2    0    0 -0.15616007254E+02 -0.61965126742E+02 -0.81606747216E+02  0.10364939848E+03  0.00000000000E+00 0.  1.
         11    1    1    2    0    0  0.33180094322E+01  0.20112088201E+02 -0.93226625480E+02  0.95429078256E+02  0.00000000000E+00 0. -1.
</event>
<event>
 7    1  0.2690635E-009  0.1597644E+03  0.7561462E-02  0.1188963E+00
         -1   -1    0    0    0  501 -0.00000000000E+00  0.00000000000E+00  0.28908443890E+03  0.28908443890E+03  0.00000000000E+00 0.  1.
          1   -1    0    0  501    0  0.00000000000E+00 -0.00000000000E+00 -0.12579795787E+03  0.12579795787E+03  0.00000000000E+00 0. -1.
         25    2    1    2    0    0  0.55124101409E+00 -0.13507075030E+03 -0.20870375045E+01  0.18411187539E+03  0.12509362686E+03 0.  0.
          5    1    3    3  502    0  0.41762459686E+02 -0.12912456459E+03  0.19260903112E+02  0.13713391633E+03  0.41800000000E+01 0. -1.
         -5    1    3    3    0  502 -0.41211218672E+02 -0.59461857117E+01 -0.21347940617E+02  0.46977959061E+02  0.41800000000E+01 0. -1.
        -11    1    1    2    0    0  0.14822681632E+02  0.15857163035E+02 -0.49888122667E+01  0.22272174526E+02  0.00000000000E+00 0.  1.
         11    1    1    2    0    0 -0.15373922646E+02  0.11921358726E+03  0.17036233080E+03  0.20849834686E+03  0.00000000000E+00 0. -1.
</event>
<event>
 7    1  0.2690635E-009  0.8795536E+02  0.7561462E-02  0.1307880E+00
         -2   -1    0    0    0  501 -0.00000000000E+00  0.00000000000E+00  0.20667426360E+02  0.20667426360E+02  0.00000000000E+00 0.  1.
          2   -1    0    0  501    0  0.00000000000E+00 -0.00000000000E+00 -0.71601816030E+03  0.71601816030E+03  0.00000000000E+00 0. -1.
         25    2    1    2    0    0 -0.31134998621E+02  0.39843988768E+02 -0.43101842648E+03  0.45164352062E+03  0.12509218267E+03 0.  0.
          5    1    3    3  502    0 -0.14563900818E+02 -0.10263403672E+02 -0.94640029088E+00  0.18325194009E+02  0.41800000000E+01 0. -1.
         -5    1    3    3    0  502 -0.16571097803E+02  0.50107392440E+02 -0.43007202619E+03  0.43331832661E+03  0.41800000000E+01 0. -1.
        -11    1    1    2    0    0  0.51394741760E+02 -0.57978019550E+02 -0.21751582185E+03  0.23090258333E+03  0.00000000000E+00 0. -1.
         11    1    1    2    0    0 -0.20259743140E+02  0.18134030781E+02 -0.46816485607E+02  0.54139482719E+02  0.00000000000E+00 0.  1.
</event>
<event>
 7    1  0.2690635E-009  0.1193072E+03  0.7561462E-02  0.1244244E+00
         -1   -1    0    0    0  501 -0.00000000000E+00  0.00000000000E+00  0.23030194025E+02  0.23030194025E+02  0.00000000000E+00 0.  1.
          1   -1    0    0  501    0  0.00000000000E+00 -0.00000000000E+00 -0.71589324293E+03  0.71589324293E+03  0.00000000000E+00 0. -1.
         25    2    1    2    0    0 -0.42995344332E+02 -0.22879435266E+02 -0.25108634384E+03  0.28471784408E+03  0.12509128859E+03 0.  0.
          5    1    3    3  502    0 -0.83804296796E+02  0.59101019435E+01 -0.15855020397E+03  0.17948183486E+03  0.41800000000E+01 0.  1.
         -5    1    3    3    0  502  0.40808952464E+02 -0.28789537209E+02 -0.92536139871E+02  0.10523600922E+03  0.41800000000E+01 0.  1.
        -11    1    1    2    0    0  0.25477525299E+02  0.58984107571E+02 -0.30332751075E+03  0.31005774949E+03  0.00000000000E+00 0. -1.
         11    1    1    2    0    0  0.17517819033E+02 -0.36104672305E+02 -0.13844919432E+03  0.14414784339E+03  0.00000000000E+00 0.  1.
</event>
<event>
 7    1  0.2690635E-009  0.8081662E+02  0.7561462E-02  0.1326750E+00
         -1   -1    0    0    0  501 -0.00000000000E+00  0.00000000000E+00  0.37474515435E+02  0.37474515435E+02  0.00000000000E+00 0.  1.
          1   -1    0    0  501    0  0.00000000000E+00 -0.00000000000E+00 -0.40885220467E+03  0.40885220467E+03  0.00000000000E+00 0. -1.
         25    2    1    2    0    0 -0.38170201003E+02 -0.29424231606E+02 -0.27127210672E+03  0.30258718747E+03  0.12509076901E+03 0.  0.
          5    1    3    3  502    0  0.29810009530E+02 -0.11816304645E+02 -0.12910942791E+02  0.34819916247E+02  0.41800000000E+01 0.  1.
         -5    1    3    3    0  502 -0.67980210533E+02 -0.17607926962E+02 -0.25836116392E+03  0.26776727123E+03  0.41800000000E+01 0.  1.
        -11    1    1    2    0    0  0.12778331602E+02  0.30976153371E+02 -0.11108741236E+03  0.11603112092E+03  0.00000000000E+00 0. -1.
         11    1    1    2    0    0  0.25391869401E+02 -0.15519217650E+01  0.10981829844E+02  0.27708411712E+02  0.00000000000E+00 0.  1.
</event>
<event>
 7    1  0.2690635E-009  0.1137122E+03  0.7561462E-02  0.1253846E+00
         -1   -1    0    0    0  501 -0.00000000000E+00  0.00000000000E+00  0.53581920808E+03  0.53581920808E+03  0.00000000000E+00 0.  1.
          1   -1    0    0  501    0  0.00000000000E+00 -0.00000000000E+00 -0.37375528553E+02  0.37375528553E+02  0.00000000000E+00 0. -1.
         25    2    1    2    0    0 -0.28557619986E+02  0.85078385976E+02  0.29867887572E+03  0.33602046937E+03  0.12508723201E+03 0.  0.
          5    1    3    3  502    0 -0.49139313662E+02  0.56330713547E+02  0.28981812533E+03  0.29933232303E+03  0.41800000000E+01 0.  1.
         -5    1    3    3    0  502  0.20581693676E+02  0.28747672429E+02  0.88607503878E+01  0.36688146343E+02  0.41800000000E+01 0.  1.
        -11    1    1    2    0    0  0.24535388655E+01 -0.90299335938E+02  0.18694827423E+03  0.20762862799E+03  0.00000000000E+00 0.  1.
         11    1    1    2    0    0  0.26104081121E+02  0.52209499627E+01  0.12816529574E+02  0.29545639272E+02  0.00000000000E+00 0. -1.
</event>
<event>
 7    1  0.2690635E-009  0.7013233E+02  0.7561462E-02  0.1359644E+00
          1   -1    0    0  501    0  0.00000000000E+00  0.00000000000E+00  0.36101110648E+02  0.36101110648E+02  0.00000000000E+00 0. -1.
         -1   -1    0    0    0  501 -0.00000000000E+00 -0.00000000000E+00 -0.47338218741E+03  0.47338218741E+03  0.00000000000E+00 0.  1.
         25    2    1    2    0    0  0.46249753293E+02 -0.26983340342E+02 -0.36979588905E+03  0.39403511824E+03  0.12509010558E+03 0.  0.
          5    1    3    3  502    0  0.35555565836E+02  0.27321670329E+00 -0.16357369130E+02  0.39361260576E+02  0.41800000000E+01 0.  1.
         -5    1    3    3    0  502  0.10694187457E+02 -0.27256557045E+02 -0.35343851992E+03  0.35467385767E+03  0.41800000000E+01 0.  1.
        -11    1    1    2    0    0 -0.43266713535E+02 -0.42833448883E+01 -0.71604156990E+02  0.83770584585E+02  0.00000000000E+00 0.  1.
         11    1    1    2    0    0 -0.29830397585E+01  0.31266685230E+02  0.41189692814E+01  0.31677595228E+02  0.00000000000E+00 0. -1.
</event>
<event>
 7    1  0.2690635E-009  0.9966392E+02  0.7561462E-02  0.1281004E+00
         -1   -1    0    0    0  501 -0.00000000000E+00  0.00000000000E+00  0.14255526220E+03  0.14255526220E+03  0.00000000000E+00 0.  1.
          1   -1    0    0  501    0  0.00000000000E+00 -0.00000000000E+00 -0.15601360332E+03  0.15601360332E+03  0.00000000000E+00 0. -1.
         25    2    1    2    0    0  0.48392691504E+02  0.21280320463E+02  0.79370809800E+02  0.15729505087E+03  0.12508917998E+03 0.  0.
          5    1    3    3  502    0  0.41478410394E+02 -0.27814431334E+02  0.93055335859E+02  0.10569233204E+03  0.41800000000E+01 0.  1.
         -5    1    3    3    0  502  0.69142811098E+01  0.49094751797E+02 -0.13684526059E+02  0.51602718831E+02  0.41800000000E+01 0.  1.
        -11    1    1    2    0    0  0.12130959675E+01  0.28883073722E+02 -0.52706619925E+02  0.60113986171E+02  0.00000000000E+00 0. -1.
         11    1    1    2    0    0 -0.49605787471E+02 -0.50163394185E+02 -0.40122530996E+02  0.81159828489E+02  0.00000000000E+00 0.  1.
</event>
<event>
 7    1  0.2690635E-009  0.1117777E+03  0.7561462E-02  0.1257313E+00
          2   -1    0    0  501    0  0.00000000000E+00  0.00000000000E+00  0.18951481198E+03  0.18951481198E+03  0.00000000000E+00 0. -1.
         -2   -1    0    0    0  501 -0.00000000000E+00 -0.00000000000E+00 -0.72679353043E+02  0.72679353043E+02  0.00000000000E+00 0.  1.
         25    2    1    2    0    0  0.30846909162E+02  0.60402962483E+01  0.28879019096E+02  0.13217321380E+03  0.12509094179E+03 0.  0.
          5    1    3    3  502    0 -0.22410901622E+02 -0.47838560926E+02  0.14604652829E+02  0.54968579272E+02  0.41800000000E+01 0.  1.
         -5    1    3    3    0  502  0.53257810783E+02  0.53878857174E+02  0.14274366267E+02  0.77204634525E+02  0.41800000000E+01 0.  1.
        -11    1    1    2    0    0  0.21944269893E+02  0.25145634894E+02  0.22034205397E+02  0.39992000986E+02  0.00000000000E+00 0.  1.
         11    1    1    2    0    0 -0.52791179055E+02 -0.31185931142E+02  0.65922234448E+02  0.90028950243E+02  0.00000000000E+00 0. -1.
</event>
<event>
 7    1  0.2690635E-009  0.9689809E+02  0.7561462E-02  0.1286957E+00
         -2   -1    0    0    0  501 -0.00000000000E+00  0.00000000000E+00  0.77246260379E+02  0.77246260379E+02  0.00000000000E+00 0.  1.
          2   -1    0    0  501    0  0.00000000000E+00 -0.00000000000E+00 -0.17387748799E+03  0.17387748799E+03  0.00000000000E+00 0. -1.
         25    2    1    2    0    0  0.17264214957E+02 -0.29469893906E+02 -0.74272350208E+02  0.14943955946E+03  0.12509705098E+03 0.  0.
          5    1    3    3  502    0  0.35798452114E+02  0.33603972152E+02  0.11628897750E+01  0.49290778355E+02  0.41800000000E+01 0.  1.
         -5    1    3    3    0  502 -0.18534237157E+02 -0.63073866058E+02 -0.75435239983E+02  0.10014878111E+03  0.41800000000E+01 0.  1.
        -11    1    1    2    0    0  0.27596129246E+02  0.69878020380E+01 -0.39473134265E+02  0.48667279104E+02  0.00000000000E+00 0. -1.
         11    1    1    2    0    0 -0.44860344203E+02  0.22482091868E+02  0.17114256862E+02  0.53016909800E+02  0.00000000000E+00 0.  1.
</event>
<event>
 7    1  0.2725777E-009  0.5400064E+02  0.7561462E-02  0.1424885E+00
          2   -1    0    0  501    0  0.00000000000E+00  0.00000000000E+00  0.44681418252E+03  0.44681418252E+03  0.00000000000E+00 0. -1.
         -2   -1    0    0    0  501 -0.00000000000E+00 -0.00000000000E+00 -0.29986656358E+02  0.29986656358E+02  0.00000000000E+00 0.  1.
         25    2    1    2    0    0  0.31424606950E+01 -0.33660081213E+02  0.28582382181E+03  0.31382493393E+03  0.12509178996E+03 0.  0.
          5    1    3    3  502    0 -0.13457436353E+02 -0.19204204222E+02  0.29004833294E+03  0.29102476165E+03  0.41800000000E+01 0. -1.
         -5    1    3    3    0  502  0.16599897048E+02 -0.14455876991E+02 -0.42245111324E+01  0.22800172278E+02  0.41800000000E+01 0. -1.
        -11    1    1    2    0    0 -0.24654115375E+02  0.37558766369E+01  0.12270690568E+03  0.12521548113E+03  0.00000000000E+00 0. -1.
         11    1    1    2    0    0  0.21511654680E+02  0.29904204576E+02  0.82967986753E+01  0.37760423815E+02  0.00000000000E+00 0.  1.
</event>
<event>
 7    1  0.2690635E-009  0.2941296E+03  0.7561462E-02  0.1088213E+00
          2   -1    0    0  501    0  0.00000000000E+00  0.00000000000E+00  0.10655705765E+04  0.10655705765E+04  0.00000000000E+00 0. -1.
         -2   -1    0    0    0  501 -0.00000000000E+00 -0.00000000000E+00 -0.10029453611E+03  0.10029453611E+03  0.00000000000E+00 0.  1.
         25    2    1    2    0    0 -0.28270451232E+03  0.67209726716E+01  0.70870008619E+03  0.77322072367E+03  0.12508981807E+03 0.  0.
          5    1    3    3  502    0 -0.25676738132E+03  0.42079918758E+02  0.64733218634E+03  0.69767946762E+03  0.41800000000E+01 0.  1.
         -5    1    3    3    0  502 -0.25937130997E+02 -0.35358946087E+02  0.61367899852E+02  0.75541256046E+02  0.41800000000E+01 0.  1.
        -11    1    1    2    0    0  0.36700531763E+02 -0.96984015979E+01  0.11108525099E+01  0.37976598301E+02  0.00000000000E+00 0.  1.
         11    1    1    2    0    0  0.24600398056E+03  0.29774289263E+01  0.25546510172E+03  0.35466779065E+03  0.00000000000E+00 0. -1.
</event>
<event>
 7    1  0.2690635E-009  0.7033140E+02  0.7561462E-02  0.1358970E+00
          2   -1    0    0  501    0  0.00000000000E+00  0.00000000000E+00  0.65098152544E+03  0.65098152544E+03  0.00000000000E+00 0.  1.
         -2   -1    0    0    0  501 -0.00000000000E+00 -0.00000000000E+00 -0.30690001293E+02  0.30690001293E+02  0.00000000000E+00 0. -1.
         25    2    1    2    0    0 -0.24588038483E+02  0.45778684413E+02  0.51675907255E+03  0.53421655639E+03  0.12508849061E+03 0.  0.
          5    1    3    3  502    0  0.19214142612E+02 -0.25388887138E+01  0.81667607001E+01  0.21442891889E+02  0.41800000000E+01 0. -1.
         -5    1    3    3    0  502 -0.43802181095E+02  0.48317573126E+02  0.50859231185E+03  0.51277366451E+03  0.41800000000E+01 0. -1.
        -11    1    1    2    0    0  0.22238445659E+02 -0.20971189366E+02  0.11573896012E+03  0.11970733535E+03  0.00000000000E+00 0.  1.
         11    1    1    2    0    0  0.23495928242E+01 -0.24807495046E+02 -0.12206508518E+02  0.27747634982E+02  0.00000000000E+00 0. -1.
</event>
<event>
 7    1  0.3916382E-009  0.1823601E+03  0.7561462E-02  0.1165538E+00
          2   -1    0    0  501    0  0.00000000000E+00  0.00000000000E+00  0.41554331777E+03  0.41554331777E+03  0.00000000000E+00 0. -1.
         -2   -1    0    0    0  501 -0.00000000000E+00 -0.00000000000E+00 -0.93204091997E+02  0.93204091997E+02  0.00000000000E+00 0.  1.
         25    2    1    2    0    0 -0.45030879362E+02  0.15699205316E+03  0.16372784891E+03  0.26292280215E+03  0.12508919430E+03 0.  0.
          5    1    3    3  502    0  0.37628604564E+02  0.78656170491E+02  0.98508685245E+02  0.13162119323E+03  0.41800000000E+01 0. -1.
         -5    1    3    3    0  502 -0.82659483925E+02  0.78335882666E+02  0.65219163662E+02  0.13130160892E+03  0.41800000000E+01 0. -1.
        -11    1    1    2    0    0  0.23840261394E+02 -0.70665185097E+02  0.13438602375E+03  0.15369297260E+03  0.00000000000E+00 0. -1.
         11    1    1    2    0    0  0.21190617967E+02 -0.86326868060E+02  0.24225353125E+02  0.92131635027E+02  0.00000000000E+00 0.  1.
</event>
<event>
 7    1  0.2690635E-009  0.2717899E+03  0.7561462E-02  0.1100260E+00
         -1   -1    0    0    0  501 -0.00000000000E+00  0.00000000000E+00  0.13842609834E+03  0.13842609834E+03  0.00000000000E+00 0. -1.
          1   -1    0    0  501    0  0.00000000000E+00 -0.00000000000E+00 -0.58264784940E+03  0.58264784940E+03  0.00000000000E+00 0.  1.
         25    2    1    2    0    0 -0.17616852677E+03  0.18948903163E+03 -0.17503916611E+03  0.33649219955E+03  0.12508736049E+03 0.  0.
          5    1    3    3  502    0 -0.10872784513E+03  0.18284934449E+03 -0.99392183762E+02  0.23484442867E+03  0.41800000000E+01 0.  1.
         -5    1    3    3    0  502 -0.67440681640E+02  0.66396871365E+01 -0.75646982344E+02  0.10164777087E+03  0.41800000000E+01 0.  1.
        -11    1    1    2    0    0  0.11818492908E+03 -0.15678266089E+03 -0.24451708570E+03  0.31358744461E+03  0.00000000000E+00 0.  1.
         11    1    1    2    0    0  0.57983597686E+02 -0.32706370737E+02 -0.24665499260E+02  0.70994303583E+02  0.00000000000E+00 0. -1.
</event>
<event>
 7    1  0.2690635E-009  0.1143031E+03  0.7561462E-02  0.1252802E+00
          2   -1    0    0  501    0  0.00000000000E+00  0.00000000000E+00  0.10494611451E+04  0.10494611451E+04  0.00000000000E+00 0. -1.
         -2   -1    0    0    0  501 -0.00000000000E+00 -0.00000000000E+00 -0.23560020926E+02  0.23560020926E+02  0.00000000000E+00 0.  1.
         25    2    1    2    0    0  0.69628250108E+02 -0.65628475199E+02  0.79621079389E+03  0.81163654182E+03  0.12508819980E+03 0.  0.
          5    1    3    3  502    0 -0.87259759432E+01  0.10159878529E+02  0.41199601056E+03  0.41223482495E+03  0.41800000000E+01 0.  1.
         -5    1    3    3    0  502  0.78354226052E+02 -0.75788353728E+02  0.38421478334E+03  0.39940171686E+03  0.41800000000E+01 0.  1.
        -11    1    1    2    0    0 -0.47779304673E+02  0.14573963651E+02  0.40791298251E+02  0.64491800909E+02  0.00000000000E+00 0.  1.
         11    1    1    2    0    0 -0.21848945435E+02  0.51054511548E+02  0.18889903207E+03  0.19689282334E+03  0.00000000000E+00 0. -1.
</event>
<event>
 7    1  0.2690635E-009  0.1041535E+03  0.7561462E-02  0.1271796E+00
          3   -1    0    0  501    0  0.00000000000E+00  0.00000000000E+00  0.11041477827E+03  0.11041477827E+03  0.00000000000E+00 0. -1.
         -3   -1    0    0    0  501 -0.00000000000E+00 -0.00000000000E+00 -0.11507622183E+03  0.11507622183E+03  0.00000000000E+00 0.  1.
         25    2    1    2    0    0 -0.18240246153E+01 -0.84772247162E+01  0.30366890470E+02  0.12901777934E+03  0.12509296121E+03 0.  0.
          5    1    3    3  502    0  0.60744141880E+02 -0.13072913442E+02  0.11105621951E+02  0.63257877592E+02  0.41800000000E+01 0. -1.
         -5    1    3    3    0  502 -0.62568166495E+02  0.45956887255E+01  0.19261268519E+02  0.65759901752E+02  0.41800000000E+01 0. -1.
        -11    1    1    2    0    0  0.38586282424E+02 -0.12832141218E+02 -0.35498568277E+02  0.53978823526E+02  0.00000000000E+00 0.  1.
         11    1    1    2    0    0 -0.36762257809E+02  0.21309365934E+02  0.47023424630E+00  0.42494397230E+02  0.00000000000E+00 0. -1.
</event>
<event>
 7    1  0.2690635E-009  0.1353124E+03  0.7561462E-02  0.1219779E+00
         -2   -1    0    0    0  501 -0.00000000000E+00  0.00000000000E+00  0.16974247956E+03  0.16974247956E+03  0.00000000000E+00 0. -1.
          2   -1    0    0  501    0  0.00000000000E+00 -0.00000000000E+00 -0.11615929589E+03  0.11615929589E+03  0.00000000000E+00 0.  1.
         25    2    1    2    0    0  0.87788466441E+02 -0.80786598848E+01  0.44307072257E+02  0.15931328226E+03  0.12508207572E+03 0.  0.
          5    1    3    3  502    0  0.43634959917E+02 -0.64925437846E+02  0.84616073084E+01  0.78793358886E+02  0.41800000000E+01 0.  1.
         -5    1    3    3    0  502  0.44153506525E+02  0.56846777961E+02  0.35845464948E+02  0.80519923375E+02  0.41800000000E+01 0.  1.
        -11    1    1    2    0    0 -0.10288737431E+03  0.14259879029E+02 -0.62602391912E+01  0.10405934143E+03  0.00000000000E+00 0.  1.
         11    1    1    2    0    0  0.15098907873E+02 -0.61812191442E+01  0.15536350608E+02  0.22529151766E+02  0.00000000000E+00 0. -1.
</event>
<event>
 7    1  0.2690635E-009  0.1554904E+03  0.7561462E-02  0.1193884E+00
          2   -1    0    0  501    0  0.00000000000E+00  0.00000000000E+00  0.86496976483E+03  0.86496976483E+03  0.00000000000E+00 0. -1.
         -2   -1    0    0    0  501 -0.00000000000E+00 -0.00000000000E+00 -0.30947298878E+02  0.30947298878E+02  0.00000000000E+00 0.  1.
         25    2    1    2    0    0  0.41471077477E+02 -0.11398193519E+03  0.47508857983E+03  0.50603230406E+03  0.12509117575E+03 0.  0.
          5    1    3    3  502    0  0.30357252375E+02 -0.13587903399E+03  0.32064862921E+03  0.34959646803E+03  0.41800000000E+01 0. -1.
         -5    1    3    3    0  502  0.11113825102E+02  0.21897098799E+02  0.15443995062E+03  0.15643583602E+03  0.41800000000E+01 0. -1.
        -11    1    1    2    0    0  0.23391445526E+02  0.52204157006E+02  0.92125536276E+02  0.10844145041E+03  0.00000000000E+00 0.  1.
         11    1    1    2    0    0 -0.64862523003E+02  0.61777778187E+02  0.26680834985E+03  0.28144330924E+03  0.00000000000E+00 0. -1.
</event>
<event>
 7    1  0.2690635E-009  0.8942151E+02  0.7561462E-02  0.1304259E+00
          2   -1    0    0  501    0  0.00000000000E+00  0.00000000000E+00  0.25693238428E+03  0.25693238428E+03  0.00000000000E+00 0.  1.
         -2   -1    0    0    0  501 -0.00000000000E+00 -0.00000000000E+00 -0.61901934219E+02  0.61901934219E+02  0.00000000000E+00 0. -1.
         25    2    1    2    0    0 -0.29211336907E+02 -0.56154825083E+02  0.12452762164E+03  0.18751442798E+03  0.12509142882E+03 0.  0.
          5    1    3    3  502    0 -0.80300684302E+01 -0.68712547834E+02  0.96761056913E+01  0.69978537068E+02  0.41800000000E+01 0.  1.
         -5    1    3    3    0  502 -0.21181268477E+02  0.12557722752E+02  0.11485151595E+03  0.11753589091E+03  0.41800000000E+01 0.  1.
        -11    1    1    2    0    0  0.37812822109E+02  0.12141257931E+02  0.76382319943E+02  0.86089944012E+02  0.00000000000E+00 0.  1.
         11    1    1    2    0    0 -0.86014852024E+01  0.44013567152E+02 -0.58794915228E+01  0.45229946515E+02  0.00000000000E+00 0. -1.
</event>
<event>
 7    1  0.2690635E-009  0.1724881E+03  0.7561462E-02  0.1175278E+00
          1   -1    0    0  501    0  0.00000000000E+00  0.00000000000E+00  0.45822819969E+03  0.45822819969E+03  0.00000000000E+00 0. -1.
         -1   -1    0    0    0  501 -0.00000000000E+00 -0.00000000000E+00 -0.72494163947E+02  0.72494163947E+02  0.00000000000E+00 0.  1.
         25    2    1    2    0    0 -0.13931058020E+03 -0.17773153576E+02  0.14745254033E+03  0.23898575731E+03  0.12509443553E+03 0.  0.
          5    1    3    3  502    0 -0.83433219091E+02 -0.71622563437E+02  0.79490530690E+02  0.13574649355E+03  0.41800000000E+01 0. -1.
         -5    1    3    3    0  502 -0.55877361111E+02  0.53849409861E+02  0.67962009641E+02  0.10323926376E+03  0.41800000000E+01 0. -1.
        -11    1    1    2    0    0  0.13082995139E+03  0.37209023230E+02  0.23313931690E+03  0.26991652168E+03  0.00000000000E+00 0. -1.
         11    1    1    2    0    0  0.84806288090E+01 -0.19435869654E+02  0.51421785118E+01  0.21820084648E+02  0.00000000000E+00 0.  1.
</event>
<event>
 7    1  0.2690635E-009  0.1078551E+03  0.7561462E-02  0.1264594E+00
         -2   -1    0    0    0  501 -0.00000000000E+00  0.00000000000E+00  0.47690079041E+02  0.47690079041E+02  0.00000000000E+00 0.  1.
          2   -1    0    0  501    0  0.00000000000E+00 -0.00000000000E+00 -0.31568621096E+03  0.31568621096E+03  0.00000000000E+00 0. -1.
         25    2    1    2    0    0  0.75422317604E+01 -0.45461211058E+02 -0.99681618566E+02  0.16646482935E+03  0.12510198783E+03 0.  0.
          5    1    3    3  502    0  0.10055885708E+02  0.42013020060E+02 -0.19051956245E+02  0.47398988689E+02  0.41800000000E+01 0.  1.
         -5    1    3    3    0  502 -0.25136539475E+01 -0.87474231118E+02 -0.80629662321E+02  0.11906584066E+03  0.41800000000E+01 0.  1.
        -11    1    1    2    0    0 -0.43798546737E+00 -0.19422348614E+02 -0.36297707595E+01  0.19763468641E+02  0.00000000000E+00 0.  1.
         11    1    1    2    0    0 -0.71042462930E+01  0.64883559672E+02 -0.16468474259E+03  0.17714799201E+03  0.00000000000E+00 0. -1.
</event>
<event>
 7    1  0.2690635E-009  0.1254761E+03  0.7561462E-02  0.1234327E+00
          1   -1    0    0  501    0  0.00000000000E+00  0.00000000000E+00  0.11696948390E+04  0.11696948390E+04  0.00000000000E+00 0. -1.
         -1   -1    0    0    0  501 -0.00000000000E+00 -0.00000000000E+00 -0.15542015236E+02  0.15542015236E+02  0.00000000000E+00 0.  1.
         25    2    1    2    0    0 -0.36341403725E+02  0.70522118445E+02  0.67265586404E+03  0.68877233900E+03  0.12508939492E+03 0.  0.
          5    1    3    3  502    0 -0.29457035441E+02  0.99727295360E+02  0.36258154266E+03  0.37722155010E+03  0.41800000000E+01 0. -1.
         -5    1    3    3    0  502 -0.68843682848E+01 -0.29205176915E+02  0.31007432138E+03  0.31155078890E+03  0.41800000000E+01 0. -1.
        -11    1    1    2    0    0  0.50935905409E+02 -0.83000995024E+02  0.44128933229E+03  0.45190696656E+03  0.00000000000E+00 0.  1.
         11    1    1    2    0    0 -0.14594501683E+02  0.12478876579E+02  0.40207627388E+02  0.44557548634E+02  0.00000000000E+00 0. -1.
</event>
<event>
 7    1  0.2690635E-009  0.9740229E+02  0.7561462E-02  0.1285855E+00
          2   -1    0    0  501    0  0.00000000000E+00  0.00000000000E+00  0.18986385709E+03  0.18986385709E+03  0.00000000000E+00 0.  1.
         -2   -1    0    0    0  501 -0.00000000000E+00 -0.00000000000E+00 -0.63626171091E+02  0.63626171091E+02  0.00000000000E+00 0. -1.
         25    2    1    2    0    0  0.15495603149E+02  0.68969294114E+01  0.75859349405E+02  0.14727640149E+03  0.12509203088E+03 0.  0.
          5    1    3    3  502    0  0.36411860773E+01  0.57294058964E+02  0.75996442879E+02  0.95335193706E+02  0.41800000000E+01 0.  1.
         -5    1    3    3    0  502  0.11854417071E+02 -0.50397129553E+02 -0.13709347401E+00  0.51941207782E+02  0.41800000000E+01 0.  1.
        -11    1    1    2    0    0 -0.43729783391E+02 -0.26313064468E+02  0.50710603080E+02  0.71946067174E+02  0.00000000000E+00 0.  1.
         11    1    1    2    0    0  0.28234180242E+02  0.19416135056E+02 -0.33226648478E+00  0.34267559521E+02  0.00000000000E+00 0. -1.
</event>
<event>
 7    1  0.2690635E-009  0.1657017E+03  0.7561462E-02  0.1182406E+00
         -2   -1    0    0    0  501 -0.00000000000E+00  0.00000000000E+00  0.27340759966E+02  0.27340759966E+02  0.00000000000E+00 0. -1.
          2   -1    0    0  501    0  0.00000000000E+00 -0.00000000000E+00 -0.13476793835E+04  0.13476793835E+04  0.00000000000E+00 0.  1.
         25    2    1    2    0    0  0.13445703798E+03 -0.29525280484E+02 -0.94304206502E+03  0.96121112469E+03  0.12509217632E+03 0.  0.
          5    1    3    3  502    0  0.64128446338E+02 -0.76661052840E+02 -0.56442709381E+03  0.57322316010E+03  0.41800000000E+01 0. -1.
         -5    1    3    3    0  502  0.70328591638E+02  0.47135772356E+02 -0.37861497122E+03  0.38798796459E+03  0.41800000000E+01 0. -1.
        -11    1    1    2    0    0 -0.43729376598E+02 -0.14079968277E+02 -0.23535393246E+03  0.23979569932E+03  0.00000000000E+00 0. -1.
         11    1    1    2    0    0 -0.90727661378E+02  0.43605248762E+02 -0.14194262602E+03  0.17401331943E+03  0.00000000000E+00 0.  1.
</event>
<event>
 7    1  0.2690635E-009  0.7530033E+02  0.7561462E-02  0.1342944E+00
         -3   -1    0    0    0  501 -0.00000000000E+00  0.00000000000E+00  0.12429413702E+03  0.12429413702E+03  0.00000000000E+00 0.  1.
          3   -1    0    0  501    0  0.00000000000E+00 -0.00000000000E+00 -0.12609468108E+03  0.12609468108E+03  0.00000000000E+00 0. -1.
         25    2    1    2    0    0 -0.94047389141E+00  0.17152651193E+01  0.67498460182E+02  0.14215250145E+03  0.12508982739E+03 0.  0.
          5    1    3    3  502    0 -0.20621879520E+02 -0.51131975712E+02  0.15964830337E+01  0.55315115594E+02  0.41800000000E+01 0. -1.
         -5    1    3    3    0  502  0.19681405628E+02  0.52847240831E+02  0.65901977149E+02  0.86837385861E+02  0.41800000000E+01 0. -1.
        -11    1    1    2    0    0  0.60448351691E+01 -0.19417826828E+02  0.12843508276E+02  0.24053019265E+02  0.00000000000E+00 0.  1.
         11    1    1    2    0    0 -0.51043612776E+01  0.17702561708E+02 -0.82142512517E+02  0.84183297379E+02  0.00000000000E+00 0. -1.
</event>
<event>
 7    1  0.2690635E-009  0.6615674E+02  0.7561462E-02  0.1373672E+00
         -2   -1    0    0    0  501 -0.00000000000E+00  0.00000000000E+00  0.35086599779E+02  0.35086599779E+02  0.00000000000E+00 0. -1.
          2   -1    0    0  501    0  0.00000000000E+00 -0.00000000000E+00 -0.42520663541E+03  0.42520663541E+03  0.00000000000E+00 0.  1.
         25    2    1    2    0    0  0.25048796005E+02  0.78005326782E+01 -0.31682267291E+03  0.34163142185E+03  0.12508849599E+03 0.  0.
          5    1    3    3  502    0  0.33832161160E+02  0.39298162753E+02 -0.47966243876E+02  0.70761526807E+02  0.41800000000E+01 0.  1.
         -5    1    3    3    0  502 -0.87833651557E+01 -0.31497630075E+02 -0.26885642904E+03  0.27086989504E+03  0.41800000000E+01 0.  1.
        -11    1    1    2    0    0 -0.35826862273E+02 -0.48782948683E+01 -0.90893503963E+02  0.97821218985E+02  0.00000000000E+00 0.  1.
         11    1    1    2    0    0  0.10778066269E+02 -0.29222378099E+01  0.17596141247E+02  0.20840594356E+02  0.00000000000E+00 0. -1.
</event>
<event>
 7    1  0.2690635E-009  0.1530172E+03  0.7561462E-02  0.1196814E+00
          1   -1    0    0  501    0  0.00000000000E+00  0.00000000000E+00  0.25035870434E+02  0.25035870434E+02  0.00000000000E+00 0. -1.
         -1   -1    0    0    0  501 -0.00000000000E+00 -0.00000000000E+00 -0.12493069524E+04  0.12493069524E+04  0.00000000000E+00 0.  1.
         25    2    1    2    0    0 -0.53065126990E+02  0.11826895883E+03 -0.83186395666E+03  0.85114529817E+03  0.12508885592E+03 0.  0.
          5    1    3    3  502    0 -0.46558962531E+02 -0.95989337891E+01 -0.15190376961E+03  0.15922344094E+03  0.41800000000E+01 0. -1.
         -5    1    3    3    0  502 -0.65061644591E+01  0.12786789262E+03 -0.67996018705E+03  0.69192185723E+03  0.41800000000E+01 0. -1.
        -11    1    1    2    0    0  0.15983002984E+02 -0.23259940370E+02 -0.14419794340E+02  0.31692454610E+02  0.00000000000E+00 0. -1.
         11    1    1    2    0    0  0.37082124006E+02 -0.95009018463E+02 -0.37798733094E+03  0.39150507003E+03  0.00000000000E+00 0.  1.
</event>
<event>
 7    1  0.2690635E-009  0.5887194E+02  0.7561462E-02  0.1402628E+00
         -2   -1    0    0    0  501 -0.00000000000E+00  0.00000000000E+00  0.28042251625E+03  0.28042251625E+03  0.00000000000E+00 0.  1.
          2   -1    0    0  501    0  0.00000000000E+00 -0.00000000000E+00 -0.56356474562E+02  0.56356474562E+02  0.00000000000E+00 0. -1.
         25    2    1    2    0    0 -0.50264353890E+02 -0.19346700622E+02  0.17108108953E+03  0.21867152316E+03  0.12509075006E+03 0.  0.
          5    1    3    3  502    0 -0.10188406987E+00 -0.12071772196E+01 -0.19882845520E+02  0.20353564877E+02  0.41800000000E+01 0.  1.
         -5    1    3    3    0  502 -0.50162469820E+02 -0.18139523402E+02  0.19096393505E+03  0.19831795829E+03  0.41800000000E+01 0.  1.
        -11    1    1    2    0    0  0.42278495189E+02  0.25878595945E+02  0.77223807920E+02  0.91764314377E+02  0.00000000000E+00 0.  1.
         11    1    1    2    0    0  0.79858587013E+01 -0.65318953234E+01 -0.24238855763E+02  0.26343153274E+02  0.00000000000E+00 0. -1.
</event>
<event>
 7    1  0.2690635E-009  0.1100584E+03  0.7561462E-02  0.1260462E+00
          3   -1    0    0  501    0  0.00000000000E+00  0.00000000000E+00  0.94496328524E+02  0.94496328524E+02  0.00000000000E+00 0. -1.
         -3   -1    0    0    0  501 -0.00000000000E+00 -0.00000000000E+00 -0.13525542441E+03  0.13525542441E+03  0.00000000000E+00 0.  1.
         25    2    1    2    0    0  0.36753757856E+02 -0.13678048015E+01 -0.17803712057E+02  0.13159404783E+03  0.12508921478E+03 0.  0.
          5    1    3    3  502    0 -0.37660340487E+01  0.57931349021E+02 -0.11915211430E+02  0.59411016447E+02  0.41800000000E+01 0. -1.
         -5    1    3    3    0  502  0.40519791905E+02 -0.59299153822E+02 -0.58885006277E+01  0.72183031383E+02  0.41800000000E+01 0. -1.
        -11    1    1    2    0    0 -0.52866226916E+02 -0.25458745727E+02 -0.30264377311E+02  0.66022103998E+02  0.00000000000E+00 0.  1.
         11    1    1    2    0    0  0.16112469060E+02  0.26826550528E+02  0.73089934849E+01  0.32135601102E+02  0.00000000000E+00 0. -1.
</event>
<event>
 7    1  0.2690635E-009  0.9997663E+02  0.7561462E-02  0.1280345E+00
          2   -1    0    0  501    0  0.00000000000E+00  0.00000000000E+00  0.31743008741E+03  0.31743008741E+03  0.00000000000E+00 0. -1.
         -2   -1    0    0    0  501 -0.00000000000E+00 -0.00000000000E+00 -0.40415912333E+02  0.40415912333E+02  0.00000000000E+00 0.  1.
         25    2    1    2    0    0 -0.22547357249E+02  0.10197230686E+02  0.12977092389E+03  0.18193216213E+03  0.12508577896E+03 0.  0.
          5    1    3    3  502    0  0.24994465700E+02  0.44885649056E+02  0.16337649440E+02  0.54072506840E+02  0.41800000000E+01 0.  1.
         -5    1    3    3    0  502 -0.47541822948E+02 -0.34688418370E+02  0.11343327445E+03  0.12785965529E+03  0.41800000000E+01 0.  1.
        -11    1    1    2    0    0  0.30191546928E+02 -0.44770790416E+02  0.54861800722E+02  0.76979025448E+02  0.00000000000E+00 0.  1.
         11    1    1    2    0    0 -0.76441896798E+01  0.34573559730E+02  0.92381450467E+02  0.98934812167E+02  0.00000000000E+00 0. -1.
</event>
<event>
 7    1  0.2690635E-009  0.1053140E+03  0.7561462E-02  0.1269502E+00
          2   -1    0    0  501    0  0.00000000000E+00  0.00000000000E+00  0.54175257271E+03  0.54175257271E+03  0.00000000000E+00 0. -1.
         -2   -1    0    0    0  501 -0.00000000000E+00 -0.00000000000E+00 -0.34021149156E+02  0.34021149156E+02  0.00000000000E+00 0.  1.
         25    2    1    2    0    0  0.22935749008E+02  0.71805047126E+02  0.21541133239E+03  0.26025050377E+03  0.12508504791E+03 0.  0.
          5    1    3    3  502    0 -0.16719801084E+02  0.26080124542E+02 -0.49859708986E+01  0.31655283132E+02  0.41800000000E+01 0. -1.
         -5    1    3    3    0  502  0.39655550092E+02  0.45724922585E+02  0.22039730329E+03  0.22859522063E+03  0.41800000000E+01 0. -1.
        -11    1    1    2    0    0 -0.24730185289E+02 -0.93608933483E+02  0.23440584949E+03  0.25361450425E+03  0.00000000000E+00 0.  1.
         11    1    1    2    0    0  0.17944362817E+01  0.21803886357E+02  0.57914241673E+02  0.61908713849E+02  0.00000000000E+00 0. -1.
</event>
<event>
 7    1  0.2690635E-009  0.9689551E+02  0.7561462E-02  0.1286963E+00
          2   -1    0    0  501    0  0.00000000000E+00  0.00000000000E+00  0.16333167105E+03  0.16333167105E+03  0.00000000000E+00 0. -1.
         -2   -1    0    0    0  501 -0.00000000000E+00 -0.00000000000E+00 -0.88098015203E+02  0.88098015203E+02  0.00000000000E+00 0.  1.
         25    2    1    2    0    0 -0.45337002643E+02 -0.26622309798E+02  0.34405339262E+02  0.13998313222E+03  0.12508940302E+03 0.  0.
          5    1    3    3  502    0 -0.17653182522E+02 -0.75085407768E+02  0.67104734600E+01  0.77536805240E+02  0.41800000000E+01 0.  1.
         -5    1    3    3    0  502 -0.27683820121E+02  0.48463097969E+02  0.27694865802E+02  0.62446326978E+02  0.41800000000E+01 0.  1.
        -11    1    1    2    0    0  0.35343856108E+02  0.33297660651E+02 -0.17710144284E+02  0.51687247749E+02  0.00000000000E+00 0.  1.
         11    1    1    2    0    0  0.99931465356E+01 -0.66753508525E+01  0.58538460866E+02  0.59759306282E+02  0.00000000000E+00 0. -1.
</event>
<event>
 7    1  0.2690635E-009  0.1354572E+03  0.7561462E-02  0.1219576E+00
         -2   -1    0    0    0  501 -0.00000000000E+00  0.00000000000E+00  0.19803150684E+03  0.19803150684E+03  0.00000000000E+00 0. -1.
          2   -1    0    0  501    0  0.00000000000E+00 -0.00000000000E+00 -0.10654854348E+03  0.10654854348E+03  0.00000000000E+00 0.  1.
         25    2    1    2    0    0  0.12703622772E+02 -0.90642315991E+02  0.81958950490E+02  0.17533420415E+03  0.12508957630E+03 0.  0.
          5    1    3    3  502    0 -0.41871680885E+02 -0.76398150385E+02  0.80600701887E+02  0.11875967576E+03  0.41800000000E+01 0. -1.
         -5    1    3    3    0  502  0.54575303657E+02 -0.14244165606E+02  0.13582486034E+01  0.56574528388E+02  0.41800000000E+01 0. -1.
        -11    1    1    2    0    0  0.11115261900E+02  0.10067748041E+03 -0.11149093184E+01  0.10129534605E+03  0.00000000000E+00 0.  1.
         11    1    1    2    0    0 -0.23818884672E+02 -0.10035164417E+02  0.10638922192E+02  0.27950500126E+02  0.00000000000E+00 0. -1.
</event>
<event>
 7    1  0.2690635E-009  0.1166732E+03  0.7561462E-02  0.1248688E+00
          2   -1    0    0  501    0  0.00000000000E+00  0.00000000000E+00  0.12000802096E+04  0.12000802096E+04  0.00000000000E+00 0. -1.
         -2   -1    0    0    0  501 -0.00000000000E+00 -0.00000000000E+00 -0.17202733346E+02  0.17202733346E+02  0.00000000000E+00 0.  1.
         25    2    1    2    0    0 -0.57579722853E+02 -0.48323346569E+02  0.88649481835E+03  0.89842907093E+03  0.12510460514E+03 0.  0.
          5    1    3    3  502    0 -0.53913971615E+02 -0.83245795456E+02  0.77822811168E+03  0.78453364810E+03  0.41800000000E+01 0.  1.
         -5    1    3    3    0  502 -0.36657512377E+01  0.34922448887E+02  0.10826670667E+03  0.11389542283E+03  0.41800000000E+01 0.  1.
        -11    1    1    2    0    0  0.54485275403E+02  0.43763821040E+01  0.73156326614E+02  0.91321662708E+02  0.00000000000E+00 0.  1.
         11    1    1    2    0    0  0.30944474496E+01  0.43946964465E+02  0.22322633133E+03  0.22753220934E+03  0.00000000000E+00 0. -1.
</event>
<event>
 7    1  0.2690635E-009  0.1408473E+03  0.7561462E-02  0.1212193E+00
         -1   -1    0    0    0  501 -0.00000000000E+00  0.00000000000E+00  0.31314458357E+02  0.31314458357E+02  0.00000000000E+00 0.  1.
          1   -1    0    0  501    0  0.00000000000E+00 -0.00000000000E+00 -0.91841986520E+03  0.91841986520E+03  0.00000000000E+00 0. -1.
         25    2    1    2    0    0 -0.41307198333E+02  0.12075794778E+03 -0.50800155866E+03  0.53851808835E+03  0.12508949313E+03 0.  0.
          5    1    3    3  502    0  0.43207282827E+01  0.25216244573E+02 -0.75901262241E+01  0.27011295774E+02  0.41800000000E+01 0. -1.
         -5    1    3    3    0  502 -0.45627926615E+02  0.95541703210E+02 -0.50041143243E+03  0.51150679257E+03  0.41800000000E+01 0. -1.
        -11    1    1    2    0    0  0.36064563577E+02 -0.80123407967E+01 -0.16607600007E+03  0.17013549938E+03  0.00000000000E+00 0. -1.
         11    1    1    2    0    0  0.52426347562E+01 -0.11274560699E+03 -0.21302784812E+03  0.24108073583E+03  0.00000000000E+00 0.  1.
</event>
<event>
 7    1  0.2690635E-009  0.1110011E+03  0.7561462E-02  0.1258727E+00
         -2   -1    0    0    0  501 -0.00000000000E+00  0.00000000000E+00  0.45132719869E+02  0.45132719869E+02  0.00000000000E+00 0.  1.
          2   -1    0    0  501    0  0.00000000000E+00 -0.00000000000E+00 -0.34512024624E+03  0.34512024624E+03  0.00000000000E+00 0. -1.
         25    2    1    2    0    0  0.11730593113E+02 -0.27411500189E+02 -0.25404431888E+03  0.28473629438E+03  0.12508894526E+03 0.  0.
          5    1    3    3  502    0  0.67166771761E+02 -0.26481051200E+02 -0.12903085581E+03  0.14791570388E+03  0.41800000000E+01 0.  1.
         -5    1    3    3    0  502 -0.55436178649E+02 -0.93044898896E+00 -0.12501346307E+03  0.13682059051E+03  0.41800000000E+01 0.  1.
        -11    1    1    2    0    0 -0.11736988442E+01  0.59904763603E+02 -0.36144222256E+02  0.69974017133E+02  0.00000000000E+00 0. -1.
         11    1    1    2    0    0 -0.10556894268E+02 -0.32493263414E+02 -0.97989852370E+01  0.35542654593E+02  0.00000000000E+00 0.  1.
</event>
<event>
 7    1  0.2690635E-009  0.1127489E+03  0.7561462E-02  0.1255562E+00
         -1   -1    0    0    0  501 -0.00000000000E+00  0.00000000000E+00  0.58854195091E+02  0.58854195091E+02  0.00000000000E+00 0.  1.
          1   -1    0    0  501    0  0.00000000000E+00 -0.00000000000E+00 -0.27019049192E+03  0.27019049192E+03  0.00000000000E+00 0. -1.
         25    2    1    2    0    0  0.50908270808E+02  0.33073151592E+02 -0.13721175925E+03  0.19534588146E+03  0.12508981227E+03 0.  0.
          5    1    3    3  502    0  0.92278745154E+02  0.14973674796E+02 -0.96097701108E+02  0.13413358380E+03  0.41800000000E+01 0.  1.
         -5    1    3    3    0  502 -0.41370474346E+02  0.18099476796E+02 -0.41114058146E+02  0.61212297662E+02  0.41800000000E+01 0.  1.
        -11    1    1    2    0    0 -0.55489888209E+02 -0.23853046714E+01 -0.24484782198E+01  0.55595075478E+02  0.00000000000E+00 0.  1.
         11    1    1    2    0    0  0.45816174009E+01 -0.30687846921E+02 -0.71676059358E+02  0.78103730076E+02  0.00000000000E+00 0. -1.
</event>
<event>
 7    1  0.2690635E-009  0.8072923E+02  0.7561462E-02  0.1326995E+00
         -1   -1    0    0    0  501 -0.00000000000E+00  0.00000000000E+00  0.13429265875E+02  0.13429265875E+02  0.00000000000E+00 0.  1.
          1   -1    0    0  501    0  0.00000000000E+00 -0.00000000000E+00 -0.13349952485E+04  0.13349952485E+04  0.00000000000E+00 0. -1.
         25    2    1    2    0    0 -0.18839762383E+02 -0.52575386906E+02 -0.10880101476E+04  0.10966006412E+04  0.12509107454E+03 0.  0.
          5    1    3    3  502    0 -0.28975746491E+02 -0.10315933988E+02 -0.97434413576E+03  0.97483843772E+03  0.41800000000E+01 0. -1.
         -5    1    3    3    0  502  0.10135984108E+02 -0.42259452918E+02 -0.11366601187E+03  0.12176220345E+03  0.41800000000E+01 0. -1.
        -11    1    1    2    0    0  0.30821555311E+01 -0.16052713917E+02 -0.14928482592E+02  0.22137048117E+02  0.00000000000E+00 0.  1.
         11    1    1    2    0    0  0.15757606852E+02  0.68628100823E+02 -0.21862735237E+03  0.22968682505E+03  0.00000000000E+00 0. -1.
</event>
<event>
 7    1  0.2690635E-009  0.2538476E+03  0.7561462E-02  0.1110897E+00
         -2   -1    0    0    0  501 -0.00000000000E+00  0.00000000000E+00  0.27415768646E+03  0.27415768646E+03  0.00000000000E+00 0. -1.
          2   -1    0    0  501    0  0.00000000000E+00 -0.00000000000E+00 -0.25066740138E+03  0.25066740138E+03  0.00000000000E+00 0.  1.
         25    2    1    2    0    0  0.14739742842E+03 -0.18744370851E+03  0.20936793143E+02  0.27008606152E+03  0.12508791130E+03 0.  0.
          5    1    3    3  502    0  0.74231508107E+02 -0.89167061430E+01  0.18295573908E+02  0.77084530672E+02  0.41800000000E+01 0. -1.
         -5    1    3    3    0  502  0.73165920314E+02 -0.17852700237E+03  0.26412192353E+01  0.19300153085E+03  0.41800000000E+01 0. -1.
        -11    1    1    2    0    0 -0.87822583436E+02  0.90977185984E+02 -0.41523029507E+02  0.13309326245E+03  0.00000000000E+00 0.  1.
         11    1    1    2    0    0 -0.59574844985E+02  0.96466522530E+02  0.44076521446E+02  0.12164576387E+03  0.00000000000E+00 0. -1.
</event>
<event>
 7    1  0.2690635E-009  0.1576979E+03  0.7561462E-02  0.1191321E+00
          3   -1    0    0  501    0  0.00000000000E+00  0.00000000000E+00  0.16732142156E+02  0.16732142156E+02  0.00000000000E+00 0. -1.
         -3   -1    0    0    0  501 -0.00000000000E+00 -0.00000000000E+00 -0.15902039072E+04  0.15902039072E+04  0.00000000000E+00 0.  1.
         25    2    1    2    0    0  0.55050947521E+01 -0.11918768440E+03 -0.96622493475E+03  0.98156777142E+03  0.12509458489E+03 0.  0.
          5    1    3    3  502    0 -0.29800478913E+02 -0.12942633020E+03 -0.82212306226E+03  0.83279231828E+03  0.41800000000E+01 0. -1.
         -5    1    3    3    0  502  0.35305573666E+02  0.10238645800E+02 -0.14410187249E+03  0.14877545314E+03  0.41800000000E+01 0. -1.
        -11    1    1    2    0    0 -0.17238586021E+02  0.12904764472E+03 -0.57643744358E+03  0.59095735025E+03  0.00000000000E+00 0.  1.
         11    1    1    2    0    0  0.11733491269E+02 -0.98599603183E+01 -0.30809386735E+02  0.34410927709E+02  0.00000000000E+00 0. -1.
</event>
<event>
 7    1  0.2690635E-009  0.1069758E+03  0.7561462E-02  0.1266275E+00
         -3   -1    0    0    0  501 -0.00000000000E+00  0.00000000000E+00  0.21486663282E+03  0.21486663282E+03  0.00000000000E+00 0.  1.
          3   -1    0    0  501    0  0.00000000000E+00 -0.00000000000E+00 -0.78169316133E+02  0.78169316133E+02  0.00000000000E+00 0. -1.
         25    2    1    2    0    0 -0.41840789385E+02  0.48363601295E+02  0.40863221017E+02  0.14631200356E+03  0.12509080688E+03 0.  0.
          5    1    3    3  502    0 -0.67092680149E+02 -0.63385846307E+01 -0.88374256374E+01  0.68096827214E+02  0.41800000000E+01 0.  1.
         -5    1    3    3    0  502  0.25251890764E+02  0.54702185925E+02  0.49700646655E+02  0.78215176341E+02  0.41800000000E+01 0.  1.
        -11    1    1    2    0    0 -0.70897669100E+01  0.84672642089E+01  0.64515747064E+02  0.65454113524E+02  0.00000000000E+00 0.  1.
         11    1    1    2    0    0  0.48930556295E+02 -0.56830865504E+02  0.31318348606E+02  0.81269831873E+02  0.00000000000E+00 0. -1.
</event>
<event>
 7    1  0.2690635E-009  0.2208759E+03  0.7561462E-02  0.1133232E+00
         -2   -1    0    0    0  501 -0.00000000000E+00  0.00000000000E+00  0.14230329121E+03  0.14230329121E+03  0.00000000000E+00 0.  1.
          2   -1    0    0  501    0  0.00000000000E+00 -0.00000000000E+00 -0.42196664547E+03  0.42196664547E+03  0.00000000000E+00 0. -1.
         25    2    1    2    0    0 -0.11211387010E+03  0.17246093484E+03 -0.23373222452E+03  0.33554106389E+03  0.12507901047E+03 0.  0.
          5    1    3    3  502    0 -0.41893370060E+02 -0.75606307107E+01 -0.19507540912E+02  0.47013127360E+02  0.41800000000E+01 0. -1.
         -5    1    3    3    0  502 -0.70220500039E+02  0.18002156556E+03 -0.21422468361E+03  0.28852793653E+03  0.41800000000E+01 0. -1.
        -11    1    1    2    0    0  0.68859500757E+02 -0.10604524639E+03  0.16928780115E+02  0.12756883915E+03  0.00000000000E+00 0.  1.
         11    1    1    2    0    0  0.43254369342E+02 -0.66415688453E+02 -0.62859909858E+02  0.10116003365E+03  0.00000000000E+00 0. -1.
</event>
<event>
 7    1  0.2690635E-009  0.1053972E+03  0.7561462E-02  0.1269339E+00
          2   -1    0    0  501    0  0.00000000000E+00  0.00000000000E+00  0.22243167862E+03  0.22243167862E+03  0.00000000000E+00 0. -1.
         -2   -1    0    0    0  501 -0.00000000000E+00 -0.00000000000E+00 -0.74814447952E+02  0.74814447952E+02  0.00000000000E+00 0.  1.
         25    2    1    2    0    0  0.24596174480E+01  0.37601451358E+02  0.12163425067E+02  0.13120820629E+03  0.12509086947E+03 0.  0.
          5    1    3    3  502    0 -0.59853967929E+02  0.31600175004E+02  0.87417608082E+01  0.68373674168E+02  0.41800000000E+01 0. -1.
         -5    1    3    3    0  502  0.62313585377E+02  0.60012763535E+01  0.34216642586E+01  0.62834532120E+02  0.41800000000E+01 0. -1.
        -11    1    1    2    0    0  0.21692893026E+02  0.12202306601E+02  0.93021442481E+02  0.96293648054E+02  0.00000000000E+00 0. -1.
         11    1    1    2    0    0 -0.24152510474E+02 -0.49803757958E+02  0.42432363122E+02  0.69744272232E+02  0.00000000000E+00 0.  1.
</event>
<event>
 7    1  0.2690635E-009  0.1058978E+03  0.7561462E-02  0.1268361E+00
          2   -1    0    0  501    0  0.00000000000E+00  0.00000000000E+00  0.14245409576E+03  0.14245409576E+03  0.00000000000E+00 0. -1.
         -2   -1    0    0    0  501 -0.00000000000E+00 -0.00000000000E+00 -0.12469501488E+03  0.12469501488E+03  0.00000000000E+00 0.  1.
         25    2    1    2    0    0  0.19621127537E+02  0.11253025793E+02 -0.63578177172E+02  0.14213210465E+03  0.12509089226E+03 0.  0.
          5    1    3    3  502    0 -0.35708404236E+02 -0.38390698397E+02 -0.24015875540E+02  0.57820156818E+02  0.41800000000E+01 0.  1.
         -5    1    3    3    0  502  0.55329531773E+02  0.49643724190E+02 -0.39562301632E+02  0.84311947837E+02  0.41800000000E+01 0.  1.
        -11    1    1    2    0    0  0.20685937946E+02  0.23654684864E+02  0.59714356217E+02  0.67477822158E+02  0.00000000000E+00 0. -1.
         11    1    1    2    0    0 -0.40307065483E+02 -0.34907710656E+02  0.21622901834E+02  0.57539183821E+02  0.00000000000E+00 0.  1.
</event>
<event>
 7    1  0.2953190E-009  0.1563293E+03  0.7561462E-02  0.1192904E+00
         -1   -1    0    0    0  501 -0.00000000000E+00  0.00000000000E+00  0.22069613782E+02  0.22069613782E+02  0.00000000000E+00 0.  1.
          1   -1    0    0  501    0  0.00000000000E+00 -0.00000000000E+00 -0.14496504179E+04  0.14496504179E+04  0.00000000000E+00 0. -1.
         25    2    1    2    0    0 -0.11731612575E+03 -0.88887154060E+01 -0.10816667742E+04  0.10952131532E+04  0.12508700169E+03 0.  0.
          5    1    3    3  502    0 -0.11826359574E+03  0.32403359749E+02 -0.64411899013E+03  0.65570039016E+03  0.41800000000E+01 0. -1.
         -5    1    3    3    0  502  0.94746998781E+00 -0.41292075155E+02 -0.43754778403E+03  0.43951276304E+03  0.41800000000E+01 0. -1.
        -11    1    1    2    0    0  0.67960819192E+02 -0.40101241816E+02 -0.17379438179E+03  0.19086977153E+03  0.00000000000E+00 0. -1.
         11    1    1    2    0    0  0.49355306558E+02  0.48989957222E+02 -0.17211964813E+03  0.18563710692E+03  0.00000000000E+00 0.  1.
</event>
<event>
 7    1  0.2690635E-009  0.9952795E+02  0.7561462E-02  0.1281292E+00
          2   -1    0    0  501    0  0.00000000000E+00  0.00000000000E+00  0.11365462207E+03  0.11365462207E+03  0.00000000000E+00 0.  1.
         -2   -1    0    0    0  501 -0.00000000000E+00 -0.00000000000E+00 -0.14024799231E+03  0.14024799231E+03  0.00000000000E+00 0. -1.
         25    2    1    2    0    0 -0.95898800200E+01  0.21433317666E+02  0.46531505711E+02  0.13551797977E+03  0.12509432007E+03 0.  0.
          5    1    3    3  502    0 -0.73397134285E+01  0.68056785797E+02  0.54981358719E+02  0.87897779795E+02  0.41800000000E+01 0.  1.
         -5    1    3    3    0  502 -0.22501665915E+01 -0.46623468131E+02 -0.84498530077E+01  0.47620199980E+02  0.41800000000E+01 0.  1.
        -11    1    1    2    0    0  0.36781003661E+01 -0.52176522814E+02 -0.69331576925E+02  0.86849211362E+02  0.00000000000E+00 0. -1.
         11    1    1    2    0    0  0.59117796539E+01  0.30743205149E+02 -0.37932990229E+01  0.31535423241E+02  0.00000000000E+00 0.  1.
</event>
<event>
 7    1  0.2890637E-009  0.8922861E+02  0.7561462E-02  0.1304731E+00
         -4   -1    0    0    0  501 -0.00000000000E+00  0.00000000000E+00  0.60390657758E+02  0.60390657758E+02  0.00000000000E+00 0.  1.
          4   -1    0    0  501    0  0.00000000000E+00 -0.00000000000E+00 -0.23883956748E+03  0.23883956748E+03  0.00000000000E+00 0. -1.
         25    2    1    2    0    0 -0.51391365039E+02  0.12384641762E+01 -0.11231084728E+03  0.17579548219E+03  0.12509084278E+03 0.  0.
          5    1    3    3  502    0 -0.35393687434E+02 -0.55370422314E+02 -0.25002874860E+02  0.70435878135E+02  0.41800000000E+01 0.  1.
         -5    1    3    3    0  502 -0.15997677605E+02  0.56608886490E+02 -0.87307972424E+02  0.10535960406E+03  0.41800000000E+01 0.  1.
        -11    1    1    2    0    0  0.31579244143E+02  0.67147997718E+01 -0.87480197393E+02  0.93247638750E+02  0.00000000000E+00 0. -1.
         11    1    1    2    0    0  0.19812120896E+02 -0.79532639480E+01  0.21342134949E+02  0.30187104300E+02  0.00000000000E+00 0.  1.
</event>
<event>
 7    1  0.2690635E-009  0.1366024E+03  0.7561462E-02  0.1217975E+00
          1   -1    0    0  501    0  0.00000000000E+00  0.00000000000E+00  0.35701257693E+03  0.35701257693E+03  0.00000000000E+00 0. -1.
         -1   -1    0    0    0  501 -0.00000000000E+00 -0.00000000000E+00 -0.62966377525E+02  0.62966377525E+02  0.00000000000E+00 0.  1.
         25    2    1    2    0    0  0.26020745024E+01  0.98859558207E+02  0.19958836171E+03  0.25546827285E+03  0.12509412961E+03 0.  0.
          5    1    3    3  502    0  0.57956449193E+02  0.45461356438E+02  0.13938452602E+03  0.15770606655E+03  0.41800000000E+01 0.  1.
         -5    1    3    3    0  502 -0.55354374690E+02  0.53398201769E+02  0.60203835685E+02  0.97762206301E+02  0.41800000000E+01 0.  1.
        -11    1    1    2    0    0  0.30278661833E+02 -0.77466780064E+02  0.93680609931E+02  0.12527552057E+03  0.00000000000E+00 0. -1.
         11    1    1    2    0    0 -0.32880736336E+02 -0.21392778143E+02  0.77722776634E+00  0.39235161038E+02  0.00000000000E+00 0.  1.
</event>
<event>
 7    1  0.2690635E-009  0.8608714E+02  0.7561462E-02  0.1312614E+00
         -2   -1    0    0    0  501 -0.00000000000E+00  0.00000000000E+00  0.88794019204E+03  0.88794019204E+03  0.00000000000E+00 0.  1.
          2   -1    0    0  501    0  0.00000000000E+00 -0.00000000000E+00 -0.14121006254E+02  0.14121006254E+02  0.00000000000E+00 0. -1.
         25    2    1    2    0    0  0.14745077531E+02 -0.20300014806E+02  0.59430739671E+03  0.60784735181E+03  0.12509042093E+03 0.  0.
          5    1    3    3  502    0  0.17504319985E+01 -0.49080200133E+02  0.90647965837E+02  0.10318166585E+03  0.41800000000E+01 0. -1.
         -5    1    3    3    0  502  0.12994645532E+02  0.28780185327E+02  0.50365943087E+03  0.50466568596E+03  0.41800000000E+01 0. -1.
        -11    1    1    2    0    0 -0.81756844389E+01  0.55056455141E+02  0.15134410155E+03  0.16125474300E+03  0.00000000000E+00 0.  1.
         11    1    1    2    0    0 -0.65693930918E+01 -0.34756440335E+02  0.12816768753E+03  0.13295910348E+03  0.00000000000E+00 0. -1.
</event>
<event>
 7    1  0.2690635E-009  0.1866466E+03  0.7561462E-02  0.1161521E+00
          1   -1    0    0  501    0  0.00000000000E+00  0.00000000000E+00  0.38801071842E+03  0.38801071842E+03  0.00000000000E+00 0.  1.
         -1   -1    0    0    0  501 -0.00000000000E+00 -0.00000000000E+00 -0.10640634857E+03  0.10640634857E+03  0.00000000000E+00 0. -1.
         25    2    1    2    0    0 -0.95844449558E+02  0.13610738646E+03  0.97013780073E+02  0.22972061282E+03  0.12509399374E+03 0.  0.
          5    1    3    3  502    0 -0.61406384928E+02 -0.46485293263E+01  0.16483149573E+02  0.63886771359E+02  0.41800000000E+01 0.  1.
         -5    1    3    3    0  502 -0.34438064630E+02  0.14075591579E+03  0.80530630501E+02  0.16583384146E+03  0.41800000000E+01 0.  1.
        -11    1    1    2    0    0  0.54878711766E+02 -0.83621695202E+02  0.44268462450E+02  0.10937987786E+03  0.00000000000E+00 0. -1.
         11    1    1    2    0    0  0.40965737791E+02 -0.52485691261E+02  0.14032212733E+03  0.15531657631E+03  0.00000000000E+00 0.  1.
</event>
<event>
 7    1  0.2690635E-009  0.1506373E+03  0.7561462E-02  0.1199692E+00
         -1   -1    0    0    0  501 -0.00000000000E+00  0.00000000000E+00  0.20306817239E+02  0.20306817239E+02  0.00000000000E+00 0.  1.
          1   -1    0    0  501    0  0.00000000000E+00 -0.00000000000E+00 -0.12582431734E+04  0.12582431734E+04  0.00000000000E+00 0. -1.
         25    2    1    2    0    0 -0.48845500590E+02  0.94039166216E+02 -0.46102221792E+03  0.48930416114E+03  0.12509128259E+03 0.  0.
          5    1    3    3  502    0 -0.74263437517E+02  0.97252729593E+01 -0.23567607884E+03  0.24732635449E+03  0.41800000000E+01 0.  1.
         -5    1    3    3    0  502  0.25417936927E+02  0.84313893256E+02 -0.22534613908E+03  0.24197780665E+03  0.41800000000E+01 0.  1.
        -11    1    1    2    0    0 -0.26112132408E+02 -0.26477282842E+02 -0.17219886338E+03  0.17616849467E+03  0.00000000000E+00 0.  1.
         11    1    1    2    0    0  0.74957632999E+02 -0.67561883374E+02 -0.60471527484E+03  0.61307733481E+03  0.00000000000E+00 0. -1.
</event>
<event>
 7    1  0.2690635E-009  0.9753819E+02  0.7561462E-02  0.1285560E+00
          2   -1    0    0  501    0  0.00000000000E+00  0.00000000000E+00  0.15742325042E+03  0.15742325042E+03  0.00000000000E+00 0. -1.
         -2   -1    0    0    0  501 -0.00000000000E+00 -0.00000000000E+00 -0.84079118539E+02  0.84079118539E+02  0.00000000000E+00 0.  1.
         25    2    1    2    0    0  0.56135128462E+01  0.38043217115E+02  0.29615217658E+02  0.13417748256E+03  0.12509091819E+03 0.  0.
          5    1    3    3  502    0 -0.17533270376E+02 -0.38705771105E+02  0.32801317997E+02  0.53841908856E+02  0.41800000000E+01 0.  1.
         -5    1    3    3    0  502  0.23146783222E+02  0.76748988220E+02 -0.31861003392E+01  0.80335573700E+02  0.41800000000E+01 0.  1.
        -11    1    1    2    0    0 -0.17200309783E+02 -0.51531009863E+02 -0.58632635599E+01  0.54641316728E+02  0.00000000000E+00 0.  1.
         11    1    1    2    0    0  0.11586796936E+02  0.13487792748E+02  0.49592177785E+02  0.52683569677E+02  0.00000000000E+00 0. -1.
</event>
<event>
 7    1  0.2690635E-009  0.8803155E+02  0.7561462E-02  0.1307690E+00
         -1   -1    0    0    0  501 -0.00000000000E+00  0.00000000000E+00  0.46819151350E+02  0.46819151350E+02  0.00000000000E+00 0.  1.
          1   -1    0    0  501    0  0.00000000000E+00 -0.00000000000E+00 -0.29772970986E+03  0.29772970986E+03  0.00000000000E+00 0. -1.
         25    2    1    2    0    0 -0.44002055380E+02 -0.16144972407E+02 -0.13864774572E+03  0.19253216103E+03  0.12509434291E+03 0.  0.
          5    1    3    3  502    0 -0.93244137951E+01  0.37705305473E+02 -0.11923969981E+03  0.12547594656E+03  0.41800000000E+01 0.  1.
         -5    1    3    3    0  502 -0.34677641585E+02 -0.53850277880E+02 -0.19408045902E+02  0.67056214473E+02  0.41800000000E+01 0.  1.
        -11    1    1    2    0    0 -0.10589353430E+00 -0.17397884685E+02 -0.91025258290E+02  0.92673055694E+02  0.00000000000E+00 0. -1.
         11    1    1    2    0    0  0.44107948914E+02  0.33542857092E+02 -0.21237554507E+02  0.59343644485E+02  0.00000000000E+00 0.  1.
</event>
<event>
 7    1  0.2690635E-009  0.1171303E+03  0.7561462E-02  0.1247908E+00
          3   -1    0    0  501    0  0.00000000000E+00  0.00000000000E+00  0.15196000797E+03  0.15196000797E+03  0.00000000000E+00 0. -1.
         -3   -1    0    0    0  501 -0.00000000000E+00 -0.00000000000E+00 -0.12590431918E+03  0.12590431918E+03  0.00000000000E+00 0.  1.
         25    2    1    2    0    0  0.56081162680E+02 -0.59068988218E+02 -0.13333950200E+02  0.14986483207E+03  0.12508969377E+03 0.  0.
          5    1    3    3  502    0 -0.31110577388E+02 -0.44630000215E+02 -0.26075607234E+02  0.60474082360E+02  0.41800000000E+01 0.  1.
         -5    1    3    3    0  502  0.87191740068E+02 -0.14438988003E+02  0.12741657034E+02  0.89390749715E+02  0.41800000000E+01 0.  1.
        -11    1    1    2    0    0 -0.23919573393E+02  0.53466473652E+02  0.64267595373E+02  0.86954779116E+02  0.00000000000E+00 0. -1.
         11    1    1    2    0    0 -0.32161589287E+02  0.56025145666E+01 -0.24877956375E+02  0.41044715961E+02  0.00000000000E+00 0.  1.
</event>
<event>
 7    1  0.2690635E-009  0.1701134E+03  0.7561462E-02  0.1177730E+00
         -2   -1    0    0    0  501 -0.00000000000E+00  0.00000000000E+00  0.11289520707E+04  0.11289520707E+04  0.00000000000E+00 0.  1.
          2   -1    0    0  501    0  0.00000000000E+00 -0.00000000000E+00 -0.26527799848E+02  0.26527799848E+02  0.00000000000E+00 0. -1.
         25    2    1    2    0    0 -0.12753648078E+03  0.41291579400E+02  0.62590775093E+03  0.65221257199E+03  0.12510067116E+03 0.  0.
          5    1    3    3  502    0 -0.19174621632E+02  0.64941646399E+02  0.17113933170E+03  0.18409570013E+03  0.41800000000E+01 0.  1.
         -5    1    3    3    0  502 -0.10836185915E+03 -0.23650066999E+02  0.45476841923E+03  0.46811687186E+03  0.41800000000E+01 0.  1.
        -11    1    1    2    0    0  0.75487621952E+02  0.22775107639E+02  0.21304419243E+03  0.22716715107E+03  0.00000000000E+00 0. -1.
         11    1    1    2    0    0  0.52048858831E+02 -0.64066687039E+02  0.26347232754E+03  0.27610014754E+03  0.00000000000E+00 0.  1.
</event>
<event>
 7    1  0.2690635E-009  0.8028083E+02  0.7561462E-02  0.1328256E+00
          1   -1    0    0  501    0  0.00000000000E+00  0.00000000000E+00  0.15474725500E+03  0.15474725500E+03  0.00000000000E+00 0. -1.
         -1   -1    0    0    0  501 -0.00000000000E+00 -0.00000000000E+00 -0.81852587660E+02  0.81852587660E+02  0.00000000000E+00 0.  1.
         25    2    1    2    0    0 -0.12958120490E+02 -0.23020116522E+02  0.15948144752E+02  0.12883123898E+03  0.12508119829E+03 0.  0.
          5    1    3    3  502    0 -0.49719069924E+02  0.52043519460E+01 -0.33971757882E+02  0.60585674272E+02  0.41800000000E+01 0.  1.
         -5    1    3    3    0  502  0.36760949435E+02 -0.28224468468E+02  0.49919902634E+02  0.68245564711E+02  0.41800000000E+01 0.  1.
        -11    1    1    2    0    0 -0.59699634977E+01  0.38776903548E+02  0.69737943227E+02  0.80016682251E+02  0.00000000000E+00 0. -1.
         11    1    1    2    0    0  0.18928083987E+02 -0.15756787026E+02 -0.12791420640E+02  0.27751921426E+02  0.00000000000E+00 0.  1.
</event>
<event>
 7    1  0.2690635E-009  0.1090670E+03  0.7561462E-02  0.1262308E+00
         -2   -1    0    0    0  501 -0.00000000000E+00  0.00000000000E+00  0.94588129885E+02  0.94588129885E+02  0.00000000000E+00 0.  1.
          2   -1    0    0  501    0  0.00000000000E+00 -0.00000000000E+00 -0.19261925146E+03  0.19261925146E+03  0.00000000000E+00 0. -1.
         25    2    1    2    0    0 -0.46532500632E+02  0.37858516232E+02  0.13915300278E+01  0.13873732780E+03  0.12509024303E+03 0.  0.
          5    1    3    3  502    0 -0.33508724310E+02 -0.34889050292E+02 -0.31351267928E+02  0.57796668034E+02  0.41800000000E+01 0.  1.
         -5    1    3    3    0  502 -0.13023776322E+02  0.72747566524E+02  0.32742797956E+02  0.80940659763E+02  0.41800000000E+01 0.  1.
        -11    1    1    2    0    0  0.42748632553E+02  0.12903921232E+02 -0.84252628726E+02  0.95354403231E+02  0.00000000000E+00 0. -1.
         11    1    1    2    0    0  0.37838680784E+01 -0.50762437464E+02 -0.15170022882E+02  0.53115650322E+02  0.00000000000E+00 0.  1.
</event>
<event>
 7    1  0.2690635E-009  0.1714416E+03  0.7561462E-02  0.1176353E+00
         -1   -1    0    0    0  501 -0.00000000000E+00  0.00000000000E+00  0.82191506260E+02  0.82191506260E+02  0.00000000000E+00 0.  1.
          1   -1    0    0  501    0  0.00000000000E+00 -0.00000000000E+00 -0.38994377840E+03  0.38994377840E+03  0.00000000000E+00 0. -1.
         25    2    1    2    0    0  0.79254635045E+02  0.10656609404E+03 -0.22964202836E+03  0.29329094822E+03  0.12508592864E+03 0.  0.
          5    1    3    3  502    0  0.15492508330E+02  0.11664140475E+03 -0.14667222588E+03  0.18808362332E+03  0.41800000000E+01 0.  1.
         -5    1    3    3    0  502  0.63762126715E+02 -0.10075310709E+02 -0.82969802479E+02  0.10520732490E+03  0.41800000000E+01 0.  1.
        -11    1    1    2    0    0 -0.32319340229E+02 -0.10876778916E+03 -0.61103234839E+02  0.12887426826E+03  0.00000000000E+00 0.  1.
         11    1    1    2    0    0 -0.46935294816E+02  0.22016951151E+01 -0.17007008939E+02  0.49970068180E+02  0.00000000000E+00 0. -1.
</event>
<event>
 7    1  0.2690635E-009  0.1182092E+03  0.7561462E-02  0.1246081E+00
         -2   -1    0    0    0  501 -0.00000000000E+00  0.00000000000E+00  0.37645406981E+03  0.37645406981E+03  0.00000000000E+00 0.  1.
          2   -1    0    0  501    0  0.00000000000E+00 -0.00000000000E+00 -0.52174582665E+02  0.52174582665E+02  0.00000000000E+00 0. -1.
         25    2    1    2    0    0  0.85198915522E+02  0.14205056269E+02  0.15115728387E+03  0.21437009817E+03  0.12508147621E+03 0.  0.
          5    1    3    3  502    0  0.84736185074E+01  0.34914770127E+02  0.12572412033E+03  0.13082381364E+03  0.41800000000E+01 0.  1.
         -5    1    3    3    0  502  0.76725297015E+02 -0.20709713858E+02  0.25433163540E+02  0.83546284524E+02  0.41800000000E+01 0.  1.
        -11    1    1    2    0    0 -0.10186785488E+03 -0.18308728067E+02  0.12019100055E+03  0.15861319615E+03  0.00000000000E+00 0. -1.
         11    1    1    2    0    0  0.16668939360E+02  0.41036717976E+01  0.52931202730E+02  0.55645358154E+02  0.00000000000E+00 0.  1.
</event>
<event>
 7    1  0.2690635E-009  0.1173556E+03  0.7561462E-02  0.1247524E+00
         -2   -1    0    0    0  501 -0.00000000000E+00  0.00000000000E+00  0.15518707248E+03  0.15518707248E+03  0.00000000000E+00 0.  1.
          2   -1    0    0  501    0  0.00000000000E+00 -0.00000000000E+00 -0.51985213301E+03  0.51985213301E+03  0.00000000000E+00 0. -1.
         25    2    1    2    0    0 -0.55884891035E+02  0.15723095785E+01  0.11795706594E+03  0.18078496784E+03  0.12507494549E+03 0.  0.
          5    1    3    3  502    0 -0.84579945900E+02  0.35558929681E+02  0.86304448050E+02  0.12603227714E+03  0.41800000000E+01 0. -1.
         -5    1    3    3    0  502  0.28695054865E+02 -0.33986620102E+02  0.31652617892E+02  0.54752690702E+02  0.41800000000E+01 0. -1.
        -11    1    1    2    0    0 -0.11099390044E+02  0.24037115483E+02 -0.59871937262E+02  0.65464709971E+02  0.00000000000E+00 0.  1.
         11    1    1    2    0    0  0.66984281079E+02 -0.25609425062E+02 -0.42275018921E+03  0.42878952767E+03  0.00000000000E+00 0. -1.
</event>
<event>
 7    1  0.2690635E-009  0.9071508E+02  0.7561462E-02  0.1301129E+00
          1   -1    0    0  501    0  0.00000000000E+00  0.00000000000E+00  0.33649228210E+03  0.33649228210E+03  0.00000000000E+00 0. -1.
         -1   -1    0    0    0  501 -0.00000000000E+00 -0.00000000000E+00 -0.46722317334E+02  0.46722317334E+02  0.00000000000E+00 0.  1.
         25    2    1    2    0    0 -0.43002031643E+02  0.17379295593E+02  0.93628679856E+02  0.16298397466E+03  0.12508489782E+03 0.  0.
          5    1    3    3  502    0  0.64989210873E+01 -0.33917376172E+02 -0.10845097908E+02  0.36437795355E+02  0.41800000000E+01 0. -1.
         -5    1    3    3    0  502 -0.49500952730E+02  0.51296671765E+02  0.10447377776E+03  0.12654617930E+03  0.41800000000E+01 0. -1.
        -11    1    1    2    0    0  0.51506761140E+02  0.45570708486E+01  0.18854582013E+03  0.19550764596E+03  0.00000000000E+00 0. -1.
         11    1    1    2    0    0 -0.85047294974E+01 -0.21936366442E+02  0.75954647742E+01  0.24722978818E+02  0.00000000000E+00 0.  1.
</event>
<event>
 7    1  0.2690635E-009  0.1453489E+03  0.7561462E-02  0.1206308E+00
         -1   -1    0    0    0  501 -0.00000000000E+00  0.00000000000E+00  0.86396074759E+02  0.86396074759E+02  0.00000000000E+00 0.  1.
          1   -1    0    0  501    0  0.00000000000E+00 -0.00000000000E+00 -0.30137798978E+03  0.30137798978E+03  0.00000000000E+00 0. -1.
         25    2    1    2    0    0 -0.11277585426E+03  0.32062041111E+02 -0.61399766046E+02  0.18211062370E+03  0.12509188706E+03 0.  0.
          5    1    3    3  502    0 -0.12002883067E+03 -0.12698795414E+02 -0.23883651110E+02  0.12311003529E+03  0.41800000000E+01 0.  1.
         -5    1    3    3    0  502  0.72529764112E+01  0.44760836525E+02 -0.37516114937E+02  0.59000588414E+02  0.41800000000E+01 0.  1.
        -11    1    1    2    0    0  0.44515235763E+02  0.80189162414E+01 -0.18033891496E+02  0.48694255054E+02  0.00000000000E+00 0.  1.
         11    1    1    2    0    0  0.68260618500E+02 -0.40080957352E+02 -0.13554825748E+03  0.15696918579E+03  0.00000000000E+00 0. -1.
</event>
<event>
 7    1  0.2690635E-009  0.8720218E+02  0.7561462E-02  0.1309772E+00
         -3   -1    0    0    0  501 -0.00000000000E+00  0.00000000000E+00  0.78985454820E+02  0.78985454820E+02  0.00000000000E+00 0.  1.
          3   -1    0    0  501    0  0.00000000000E+00 -0.00000000000E+00 -0.16555336972E+03  0.16555336972E+03  0.00000000000E+00 0. -1.
         25    2    1    2    0    0 -0.32414685677E+02  0.33804790068E+01 -0.35966839973E+02  0.13417668261E+03  0.12509048362E+03 0.  0.
          5    1    3    3  502    0  0.22404830568E+02 -0.30171037161E+01  0.36410337032E+02  0.43061170332E+02  0.41800000000E+01 0. -1.
         -5    1    3    3    0  502 -0.54819516245E+02  0.63975827229E+01 -0.72377177005E+02  0.91115512276E+02  0.41800000000E+01 0. -1.
        -11    1    1    2    0    0 -0.13969613754E+02  0.33828951760E+02 -0.30341245854E+02  0.47540922220E+02  0.00000000000E+00 0.  1.
         11    1    1    2    0    0  0.46384299431E+02 -0.37209430767E+02 -0.20259829070E+02  0.62821219708E+02  0.00000000000E+00 0. -1.
</event>
<event>
 7    1  0.2690635E-009  0.1125846E+03  0.7561462E-02  0.1255857E+00
         -1   -1    0    0    0  501 -0.00000000000E+00  0.00000000000E+00  0.68798923104E+02  0.68798923104E+02  0.00000000000E+00 0.  1.
          1   -1    0    0  501    0  0.00000000000E+00 -0.00000000000E+00 -0.21332468914E+03  0.21332468914E+03  0.00000000000E+00 0. -1.
         25    2    1    2    0    0  0.35189679744E+02  0.43344100591E+01 -0.11113730809E+03  0.17104340327E+03  0.12508894388E+03 0.  0.
          5    1    3    3  502    0  0.77698635381E+02  0.24679856864E+02 -0.59536745420E+02  0.10103598235E+03  0.41800000000E+01 0. -1.
         -5    1    3    3    0  502 -0.42508955636E+02 -0.20345446805E+02 -0.51600562669E+02  0.70007420912E+02  0.41800000000E+01 0. -1.
        -11    1    1    2    0    0  0.30224449842E+02 -0.58920739220E+01 -0.33695664701E+02  0.45646815037E+02  0.00000000000E+00 0.  1.
         11    1    1    2    0    0 -0.65414129587E+02  0.15576638629E+01  0.30720675703E+00  0.65433393938E+02  0.00000000000E+00 0. -1.
</event>
<event>
 7    1  0.2690635E-009  0.1524936E+03  0.7561462E-02  0.1197442E+00
          1   -1    0    0  501    0  0.00000000000E+00  0.00000000000E+00  0.52875901070E+03  0.52875901070E+03  0.00000000000E+00 0. -1.
         -1   -1    0    0    0  501 -0.00000000000E+00 -0.00000000000E+00 -0.79715691035E+02  0.79715691035E+02  0.00000000000E+00 0.  1.
         25    2    1    2    0    0  0.60508551738E+02 -0.11545219055E+03  0.40501240576E+03  0.44347903794E+03  0.12509242637E+03 0.  0.
          5    1    3    3  502    0  0.10932480257E+02  0.74399862822E+01 -0.32364631103E+01  0.14241475131E+02  0.41800000000E+01 0. -1.
         -5    1    3    3    0  502  0.49576071481E+02 -0.12289217683E+03  0.40824886887E+03  0.42923756281E+03  0.41800000000E+01 0. -1.
        -11    1    1    2    0    0 -0.41587965663E+00  0.95086333837E+02  0.32626370602E+02  0.10052892070E+03  0.00000000000E+00 0. -1.
         11    1    1    2    0    0 -0.60092672081E+02  0.20365856713E+02  0.11404543301E+02  0.64466743096E+02  0.00000000000E+00 0.  1.
</event>
<event>
 7    1  0.2690635E-009  0.1202664E+03  0.7561462E-02  0.1242658E+00
         -1   -1    0    0    0  501 -0.00000000000E+00  0.00000000000E+00  0.20393900353E+03  0.20393900353E+03  0.00000000000E+00 0.  1.
          1   -1    0    0  501    0  0.00000000000E+00 -0.00000000000E+00 -0.10651794117E+03  0.10651794117E+03  0.00000000000E+00 0. -1.
         25    2    1    2    0    0  0.96392533856E+02 -0.15224288774E+02  0.57064067704E+02  0.16860064723E+03  0.12508625373E+03 0.  0.
          5    1    3    3  502    0  0.60977914028E+02  0.42930151673E+02  0.66160238409E+02  0.99779524293E+02  0.41800000000E+01 0.  1.
         -5    1    3    3    0  502  0.35414619828E+02 -0.58154440447E+02 -0.90961707047E+01  0.68821122940E+02  0.41800000000E+01 0.  1.
        -11    1    1    2    0    0 -0.66945564763E+02  0.11823099299E+02  0.71638919691E+02  0.98760463410E+02  0.00000000000E+00 0.  1.
         11    1    1    2    0    0 -0.29446969093E+02  0.34011894754E+01 -0.31281925035E+02  0.43095834051E+02  0.00000000000E+00 0. -1.
</event>
<event>
 7    1  0.2690635E-009  0.1386197E+03  0.7561462E-02  0.1215198E+00
          2   -1    0    0  501    0  0.00000000000E+00  0.00000000000E+00  0.70421979527E+03  0.70421979527E+03  0.00000000000E+00 0. -1.
         -2   -1    0    0    0  501 -0.00000000000E+00 -0.00000000000E+00 -0.41921276691E+02  0.41921276691E+02  0.00000000000E+00 0.  1.
         25    2    1    2    0    0 -0.37969246273E+02 -0.84749046673E+02  0.53543794273E+03  0.55763851039E+03  0.12507139235E+03 0.  0.
          5    1    3    3  502    0 -0.15776902254E+02 -0.11599218540E+03  0.39435127462E+03  0.41137999212E+03  0.41800000000E+01 0.  1.
         -5    1    3    3    0  502 -0.22192344020E+02  0.31243138725E+02  0.14108666811E+03  0.14625851828E+03  0.41800000000E+01 0.  1.
        -11    1    1    2    0    0  0.62154325424E+02  0.68060140688E+02  0.12955347888E+03  0.15899511567E+03  0.00000000000E+00 0. -1.
         11    1    1    2    0    0 -0.24185079151E+02  0.16688905985E+02 -0.26929030261E+01  0.29507445894E+02  0.00000000000E+00 0.  1.
</event>
<event>
 7    1  0.2690635E-009  0.9189920E+02  0.7561462E-02  0.1298317E+00
          1   -1    0    0  501    0  0.00000000000E+00  0.00000000000E+00  0.45441312414E+03  0.45441312414E+03  0.00000000000E+00 0. -1.
         -1   -1    0    0    0  501 -0.00000000000E+00 -0.00000000000E+00 -0.29044444718E+02  0.29044444718E+02  0.00000000000E+00 0.  1.
         25    2    1    2    0    0  0.11920980060E+00  0.34520864243E+02  0.19761829096E+03  0.23641514596E+03  0.12508967999E+03 0.  0.
          5    1    3    3  502    0  0.48245729935E+02  0.81727335777E+01  0.16565005357E+03  0.17277689856E+03  0.41800000000E+01 0. -1.
         -5    1    3    3    0  502 -0.48126520134E+02  0.26348130665E+02  0.31968237395E+02  0.63638247398E+02  0.41800000000E+01 0. -1.
        -11    1    1    2    0    0 -0.17762646435E+02  0.17375317879E+02  0.14921807379E+03  0.15127275639E+03  0.00000000000E+00 0. -1.
         11    1    1    2    0    0  0.17643436635E+02 -0.51896182122E+02  0.78532314670E+02  0.95769666506E+02  0.00000000000E+00 0.  1.
</event>
<event>
 7    1  0.2744790E-009  0.1054071E+03  0.7561462E-02  0.1269320E+00
         -1   -1    0    0    0  501 -0.00000000000E+00  0.00000000000E+00  0.69956976134E+02  0.69956976134E+02  0.00000000000E+00 0.  1.
          1   -1    0    0  501    0  0.00000000000E+00 -0.00000000000E+00 -0.33758209612E+03  0.33758209612E+03  0.00000000000E+00 0. -1.
         25    2    1    2    0    0  0.21697825420E+02  0.89677933526E+02 -0.68351127860E+02  0.16980033672E+03  0.12508936918E+03 0.  0.
          5    1    3    3  502    0  0.35954734838E+02  0.10197108565E+02  0.25867047005E+02  0.45643186798E+02  0.41800000000E+01 0.  1.
         -5    1    3    3    0  502 -0.14256909418E+02  0.79480824961E+02 -0.94218174865E+02  0.12415714993E+03  0.41800000000E+01 0.  1.
        -11    1    1    2    0    0 -0.21453813563E+01 -0.15133726585E+02  0.75320883190E+01  0.17040090843E+02  0.00000000000E+00 0.  1.
         11    1    1    2    0    0 -0.19552444064E+02 -0.74544206941E+02 -0.20680608045E+03  0.22069864469E+03  0.00000000000E+00 0. -1.
</event>
<event>
 7    1  0.2690635E-009  0.1108158E+03  0.7561462E-02  0.1259067E+00
         -1   -1    0    0    0  501 -0.00000000000E+00  0.00000000000E+00  0.44317016978E+03  0.44317016978E+03  0.00000000000E+00 0.  1.
          1   -1    0    0  501    0  0.00000000000E+00 -0.00000000000E+00 -0.34710242287E+02  0.34710242287E+02  0.00000000000E+00 0. -1.
         25    2    1    2    0    0  0.19409472596E+02  0.49742808369E+02  0.17657389383E+03  0.22288012103E+03  0.12508450645E+03 0.  0.
          5    1    3    3  502    0 -0.27362247694E+02 -0.21153062196E+02  0.10848901068E+03  0.11394508536E+03  0.41800000000E+01 0.  1.
         -5    1    3    3    0  502  0.46771720290E+02  0.70895870564E+02  0.68084883157E+02  0.10893503567E+03  0.41800000000E+01 0.  1.
        -11    1    1    2    0    0  0.29498530010E+02 -0.43348498431E+02  0.15523121189E+03  0.16384744348E+03  0.00000000000E+00 0.  1.
         11    1    1    2    0    0 -0.48908002606E+02 -0.63943099384E+01  0.76654821767E+02  0.91152847562E+02  0.00000000000E+00 0. -1.
</event>
<event>
 7    1  0.2690635E-009  0.1248010E+03  0.7561462E-02  0.1235381E+00
          1   -1    0    0  501    0  0.00000000000E+00  0.00000000000E+00  0.16677083876E+02  0.16677083876E+02  0.00000000000E+00 0. -1.
         -1   -1    0    0    0  501 -0.00000000000E+00 -0.00000000000E+00 -0.95901622746E+03  0.95901622746E+03  0.00000000000E+00 0.  1.
         25    2    1    2    0    0 -0.23087579863E+02  0.60537310749E+02 -0.50030175820E+03  0.51975721967E+03  0.12509162966E+03 0.  0.
          5    1    3    3  502    0 -0.73091502492E+02  0.27689796611E+02 -0.23248955356E+03  0.24531195953E+03  0.41800000000E+01 0.  1.
         -5    1    3    3    0  502  0.50003922629E+02  0.32847514139E+02 -0.26781220463E+03  0.27444526014E+03  0.41800000000E+01 0.  1.
        -11    1    1    2    0    0 -0.23992277987E+02  0.10455223300E+02 -0.89102071997E+02  0.92866142008E+02  0.00000000000E+00 0.  1.
         11    1    1    2    0    0  0.47079857850E+02 -0.70992534050E+02 -0.35293531338E+03  0.36306994965E+03  0.00000000000E+00 0. -1.
</event>
<event>
 7    1  0.2690635E-009  0.9235442E+02  0.7561462E-02  0.1297248E+00
         -2   -1    0    0    0  501 -0.00000000000E+00  0.00000000000E+00  0.81250182680E+02  0.81250182680E+02  0.00000000000E+00 0.  1.
          2   -1    0    0  501    0  0.00000000000E+00 -0.00000000000E+00 -0.14908297006E+03  0.14908297006E+03  0.00000000000E+00 0. -1.
         25    2    1    2    0    0 -0.54629650826E+01 -0.10564215780E+02 -0.46597053178E+02  0.13401537867E+03  0.12508952679E+03 0.  0.
          5    1    3    3  502    0  0.34445646101E+02  0.22000620248E+02 -0.66886288142E+02  0.78496992095E+02  0.41800000000E+01 0.  1.
         -5    1    3    3    0  502 -0.39908611184E+02 -0.32564836028E+02  0.20289234964E+02  0.55518386572E+02  0.41800000000E+01 0.  1.
        -11    1    1    2    0    0 -0.17414310832E+02 -0.36041158272E+02 -0.19113026112E+02  0.44356860558E+02  0.00000000000E+00 0.  1.
         11    1    1    2    0    0  0.22877275914E+02  0.46605374052E+02 -0.21227080903E+01  0.51960913516E+02  0.00000000000E+00 0. -1.
</event>
<event>
 7    1  0.2690635E-009  0.1411911E+03  0.7561462E-02  0.1211735E+00
         -3   -1    0    0    0  501 -0.00000000000E+00  0.00000000000E+00  0.78953573747E+03  0.78953573747E+03  0.00000000000E+00 0.  1.
          3   -1    0    0  501    0  0.00000000000E+00 -0.00000000000E+00 -0.68237650082E+02  0.68237650082E+02  0.00000000000E+00 0. -1.
         25    2    1    2    0    0 -0.87021486793E+01  0.10964465992E+02  0.67621236539E+03  0.68782714322E+03  0.12508824463E+03 0.  0.
          5    1    3    3  502    0 -0.58612557471E+02  0.33141047568E+02  0.45279600840E+03  0.45779412245E+03  0.41800000000E+01 0.  1.
         -5    1    3    3    0  502  0.49910408791E+02 -0.22176581576E+02  0.22341635699E+03  0.23003302078E+03  0.41800000000E+01 0.  1.
        -11    1    1    2    0    0  0.63053770826E+02 -0.59928575110E+02  0.64820091103E+01  0.87230892304E+02  0.00000000000E+00 0.  1.
         11    1    1    2    0    0 -0.54351622146E+02  0.48964109118E+02  0.38603712888E+02  0.82715352023E+02  0.00000000000E+00 0. -1.
</event>
<event>
 7    1  0.2690635E-009  0.1211933E+03  0.7561462E-02  0.1241141E+00
          1   -1    0    0  501    0  0.00000000000E+00  0.00000000000E+00  0.49659727276E+03  0.49659727276E+03  0.00000000000E+00 0. -1.
         -1   -1    0    0    0  501 -0.00000000000E+00 -0.00000000000E+00 -0.30009107203E+02  0.30009107203E+02  0.00000000000E+00 0.  1.
         25    2    1    2    0    0 -0.42101044505E+02  0.37040562360E+02  0.27729918729E+03  0.30933280038E+03  0.12508973145E+03 0.  0.
          5    1    3    3  502    0  0.31372609678E+02  0.51778643015E+02  0.14574878657E+03  0.15787795824E+03  0.41800000000E+01 0.  1.
         -5    1    3    3    0  502 -0.73473654183E+02 -0.14738080655E+02  0.13155040071E+03  0.15145484214E+03  0.41800000000E+01 0.  1.
        -11    1    1    2    0    0  0.45015169030E+01  0.29702668825E+02  0.51534646480E+02  0.59651755863E+02  0.00000000000E+00 0. -1.
         11    1    1    2    0    0  0.37599527602E+02 -0.66743231185E+02  0.13775433179E+03  0.15762182372E+03  0.00000000000E+00 0.  1.
</event>
<event>
 7    1  0.2690635E-009  0.1968656E+03  0.7561462E-02  0.1152411E+00
         -2   -1    0    0    0  501 -0.00000000000E+00  0.00000000000E+00  0.98200043560E+02  0.98200043560E+02  0.00000000000E+00 0.  1.
          2   -1    0    0  501    0  0.00000000000E+00 -0.00000000000E+00 -0.52029919068E+03  0.52029919068E+03  0.00000000000E+00 0. -1.
         25    2    1    2    0    0 -0.17470876243E+03 -0.77974978690E+02 -0.28778162178E+03  0.36751719407E+03  0.12508947650E+03 0.  0.
          5    1    3    3  502    0 -0.18869248645E+02  0.77899075176E+01  0.80178309485E+01  0.22326872075E+02  0.41800000000E+01 0.  1.
         -5    1    3    3    0  502 -0.15583951379E+03 -0.85764886208E+02 -0.29579945273E+03  0.34519032200E+03  0.41800000000E+01 0.  1.
        -11    1    1    2    0    0  0.62128529157E+02  0.85906456136E+01 -0.32529106383E+00  0.62720484226E+02  0.00000000000E+00 0.  1.
         11    1    1    2    0    0  0.11258023328E+03  0.69384333076E+02 -0.13399223428E+03  0.18826155595E+03  0.00000000000E+00 0. -1.
</event>
<event>
 7    1  0.2690635E-009  0.1296736E+03  0.7561462E-02  0.1227941E+00
         -2   -1    0    0    0  501 -0.00000000000E+00  0.00000000000E+00  0.82459229020E+03  0.82459229020E+03  0.00000000000E+00 0. -1.
          2   -1    0    0  501    0  0.00000000000E+00 -0.00000000000E+00 -0.24873659289E+02  0.24873659289E+02  0.00000000000E+00 0.  1.
         25    2    1    2    0    0  0.77850787897E+02  0.41798068306E+02  0.35714298137E+03  0.38859585096E+03  0.12509117696E+03 0.  0.
          5    1    3    3  502    0 -0.20087370273E+02  0.47549074036E+02  0.88104843127E+02  0.10219761577E+03  0.41800000000E+01 0. -1.
         -5    1    3    3    0  502  0.97938158170E+02 -0.57510057304E+01  0.26903813824E+03  0.28639823519E+03  0.41800000000E+01 0. -1.
        -11    1    1    2    0    0 -0.67592923957E+02 -0.13189273212E+01  0.37779735475E+03  0.38379862454E+03  0.00000000000E+00 0. -1.
         11    1    1    2    0    0 -0.10257863940E+02 -0.40479140985E+02  0.64778294790E+02  0.77071473993E+02  0.00000000000E+00 0.  1.
</event>
<event>
 7    1  0.2690635E-009  0.1149156E+03  0.7561462E-02  0.1251729E+00
          4   -1    0    0  501    0  0.00000000000E+00  0.00000000000E+00  0.86823215070E+02  0.86823215070E+02  0.00000000000E+00 0. -1.
         -4   -1    0    0    0  501 -0.00000000000E+00 -0.00000000000E+00 -0.16496468042E+03  0.16496468042E+03  0.00000000000E+00 0.  1.
         25    2    1    2    0    0 -0.42432229589E+02 -0.76783231224E+01 -0.73113996766E+02  0.15116829642E+03  0.12508695602E+03 0.  0.
          5    1    3    3  502    0 -0.77194656492E+02  0.26924384589E+02 -0.35557042474E+02  0.89250843951E+02  0.41800000000E+01 0.  1.
         -5    1    3    3    0  502  0.34762426904E+02 -0.34602707711E+02 -0.37556954291E+02  0.61917452474E+02  0.41800000000E+01 0.  1.
        -11    1    1    2    0    0  0.31970514956E+02 -0.39272456967E+02  0.67726077904E+01  0.51091172614E+02  0.00000000000E+00 0.  1.
         11    1    1    2    0    0  0.10461714632E+02  0.46950780089E+02 -0.11800076371E+02  0.49528426448E+02  0.00000000000E+00 0. -1.
</event>
<event>
 7    1  0.2690635E-009  0.1516810E+03  0.7561462E-02  0.1198422E+00
         -1   -1    0    0    0  501 -0.00000000000E+00  0.00000000000E+00  0.63399460915E+02  0.63399460915E+02  0.00000000000E+00 0.  1.
          1   -1    0    0  501    0  0.00000000000E+00 -0.00000000000E+00 -0.46456388442E+03  0.46456388442E+03  0.00000000000E+00 0. -1.
         25    2    1    2    0    0 -0.79118187458E+02 -0.92554195286E+02 -0.12910522672E+03  0.21711908443E+03  0.12508625266E+03 0.  0.
          5    1    3    3  502    0 -0.69778056196E+02 -0.11185802072E+03 -0.14030075057E+03  0.19256938214E+03  0.41800000000E+01 0. -1.
         -5    1    3    3    0  502 -0.93401312618E+01  0.19303825430E+02  0.11195523854E+02  0.24549702291E+02  0.41800000000E+01 0. -1.
        -11    1    1    2    0    0  0.88416269933E+02  0.41420588266E+02 -0.19190580834E+03  0.21531591022E+03  0.00000000000E+00 0.  1.
         11    1    1    2    0    0 -0.92980824752E+01  0.51133607021E+02 -0.80153388444E+02  0.95528350680E+02  0.00000000000E+00 0. -1.
</event>
<event>
 7    1  0.4308485E-009  0.1251362E+03  0.7561462E-02  0.1234857E+00
         -1   -1    0    0    0  501 -0.00000000000E+00  0.00000000000E+00  0.20052672612E+02  0.20052672612E+02  0.00000000000E+00 0.  1.
          1   -1    0    0  501    0  0.00000000000E+00 -0.00000000000E+00 -0.11124633465E+04  0.11124633465E+04  0.00000000000E+00 0. -1.
         25    2    1    2    0    0  0.86300651303E+02  0.43805973975E+02 -0.71439306097E+03  0.73169080778E+03  0.12508887587E+03 0.  0.
          5    1    3    3  502    0  0.11461219225E+03  0.23651742915E+02 -0.62120047645E+03  0.63214149041E+03  0.41800000000E+01 0.  1.
         -5    1    3    3    0  502 -0.28311540949E+02  0.20154231060E+02 -0.93192584516E+02  0.99549317373E+02  0.41800000000E+01 0.  1.
        -11    1    1    2    0    0 -0.12940195796E+02 -0.13771002077E+02 -0.50965127959E+01  0.19572010834E+02  0.00000000000E+00 0.  1.
         11    1    1    2    0    0 -0.73360455508E+02 -0.30034971899E+02 -0.37292110014E+03  0.38125320051E+03  0.00000000000E+00 0. -1.
</event>
<event>
 7    1  0.2690635E-009  0.1835573E+03  0.7561462E-02  0.1164404E+00
          1   -1    0    0  501    0  0.00000000000E+00  0.00000000000E+00  0.20736460841E+04  0.20736460841E+04  0.00000000000E+00 0. -1.
         -1   -1    0    0    0  501 -0.00000000000E+00 -0.00000000000E+00 -0.20411943065E+02  0.20411943065E+02  0.00000000000E+00 0.  1.
         25    2    1    2    0    0  0.46683804125E+02 -0.15774403113E+03  0.13829805240E+04  0.13983369815E+04  0.12509447344E+03 0.  0.
          5    1    3    3  502    0 -0.28823904687E+02 -0.55056050781E+02  0.22859611734E+03  0.23692961713E+03  0.41800000000E+01 0.  1.
         -5    1    3    3    0  502  0.75507708812E+02 -0.10268798034E+03  0.11543844066E+04  0.11614073644E+04  0.41800000000E+01 0.  1.
        -11    1    1    2    0    0 -0.56682341206E+02  0.75287966774E+02  0.46201720029E+03  0.47153054950E+03  0.00000000000E+00 0. -1.
         11    1    1    2    0    0  0.99985370811E+01  0.82456064352E+02  0.20823641681E+03  0.22419049618E+03  0.00000000000E+00 0.  1.
</event>
<event>
 7    1  0.2690635E-009  0.1792905E+03  0.7561462E-02  0.1168491E+00
          1   -1    0    0  501    0  0.00000000000E+00  0.00000000000E+00  0.33925472107E+03  0.33925472107E+03  0.00000000000E+00 0. -1.
         -1   -1    0    0    0  501 -0.00000000000E+00 -0.00000000000E+00 -0.12608455040E+03  0.12608455040E+03  0.00000000000E+00 0.  1.
         25    2    1    2    0    0 -0.50338813332E+02 -0.16719420043E+03  0.88414232473E+02  0.23227749792E+03  0.12509141758E+03 0.  0.
          5    1    3    3  502    0  0.49039436751E+01 -0.49516680871E+02 -0.28408456279E+02  0.57449657407E+02  0.41800000000E+01 0.  1.
         -5    1    3    3    0  502 -0.55242757007E+02 -0.11767751956E+03  0.11682268875E+03  0.17482784051E+03  0.41800000000E+01 0.  1.
        -11    1    1    2    0    0  0.52709564834E+02  0.11693726201E+03  0.12981485317E+03  0.18249525357E+03  0.00000000000E+00 0. -1.
         11    1    1    2    0    0 -0.23707515023E+01  0.50256938417E+02 -0.50589149772E+01  0.50566519976E+02  0.00000000000E+00 0.  1.
</event>
<event>
 7    1  0.2690635E-009  0.1322153E+03  0.7561462E-02  0.1224205E+00
          1   -1    0    0  501    0  0.00000000000E+00  0.00000000000E+00  0.33666084559E+03  0.33666084559E+03  0.00000000000E+00 0. -1.
         -1   -1    0    0    0  501 -0.00000000000E+00 -0.00000000000E+00 -0.88752117506E+02  0.88752117506E+02  0.00000000000E+00 0.  1.
         25    2    1    2    0    0  0.11811820801E+03  0.37317611170E+02  0.20082388842E+03  0.26705921413E+03  0.12508347021E+03 0.  0.
          5    1    3    3  502    0  0.52707176274E+02  0.39548521396E+01 -0.18194181880E+00  0.53020682654E+02  0.41800000000E+01 0. -1.
         -5    1    3    3    0  502  0.65411031732E+02  0.33362759030E+02  0.20100583024E+03  0.21403853147E+03  0.41800000000E+01 0. -1.
        -11    1    1    2    0    0 -0.87180447176E+02  0.27715213252E+01  0.60276047621E+02  0.10602506127E+03  0.00000000000E+00 0. -1.
         11    1    1    2    0    0 -0.30937760831E+02 -0.40089132495E+02 -0.13191207960E+02  0.52328687705E+02  0.00000000000E+00 0.  1.
</event>
<event>
 7    1  0.3045959E-009  0.1148997E+03  0.7561462E-02  0.1251756E+00
          1   -1    0    0  501    0  0.00000000000E+00  0.00000000000E+00  0.41727419867E+03  0.41727419867E+03  0.00000000000E+00 0. -1.
         -1   -1    0    0    0  501 -0.00000000000E+00 -0.00000000000E+00 -0.43953438101E+02  0.43953438101E+02  0.00000000000E+00 0.  1.
         25    2    1    2    0    0  0.79439495283E+02  0.50918235158E+01  0.18675904360E+03  0.23845918786E+03  0.12508910357E+03 0.  0.
          5    1    3    3  502    0 -0.33921143684E+02 -0.42542137429E+01  0.44293640224E+02  0.56108299633E+02  0.41800000000E+01 0.  1.
         -5    1    3    3    0  502  0.11336063897E+03  0.93460372587E+01  0.14246540337E+03  0.18235088823E+03  0.41800000000E+01 0.  1.
        -11    1    1    2    0    0 -0.51223443055E+02 -0.11730130499E+02  0.18652084411E+03  0.19378199701E+03  0.00000000000E+00 0. -1.
         11    1    1    2    0    0 -0.28216052229E+02  0.66383069834E+01  0.40872864742E-01  0.28986451897E+02  0.00000000000E+00 0.  1.
</event>
<event>
 7    1  0.2690635E-009  0.1240524E+03  0.7561462E-02  0.1236558E+00
         -1   -1    0    0    0  501 -0.00000000000E+00  0.00000000000E+00  0.66478045518E+02  0.66478045518E+02  0.00000000000E+00 0.  1.
          1   -1    0    0  501    0  0.00000000000E+00 -0.00000000000E+00 -0.33437510619E+03  0.33437510619E+03  0.00000000000E+00 0. -1.
         25    2    1    2    0    0 -0.64695050942E+02 -0.51194562902E+02 -0.65391247812E+02  0.16349153067E+03  0.12508849837E+03 0.  0.
          5    1    3    3  502    0 -0.69053433347E+00 -0.59866234555E+02 -0.77111670613E+02  0.97714507737E+02  0.41800000000E+01 0. -1.
         -5    1    3    3    0  502 -0.64004516609E+02  0.86716716525E+01  0.11720422801E+02  0.65777022935E+02  0.41800000000E+01 0. -1.
        -11    1    1    2    0    0 -0.22133799355E+02 -0.81828516156E+00 -0.44682995930E+02  0.49871282215E+02  0.00000000000E+00 0.  1.
         11    1    1    2    0    0  0.86828850297E+02  0.52012848064E+02 -0.15782281693E+03  0.18749033882E+03  0.00000000000E+00 0. -1.
</event>
<event>
 7    1  0.2690635E-009  0.1248439E+03  0.7561462E-02  0.1235314E+00
          1   -1    0    0  501    0  0.00000000000E+00  0.00000000000E+00  0.15749899654E+03  0.15749899654E+03  0.00000000000E+00 0. -1.
         -1   -1    0    0    0  501 -0.00000000000E+00 -0.00000000000E+00 -0.11510984078E+03  0.11510984078E+03  0.00000000000E+00 0.  1.
         25    2    1    2    0    0  0.79500879572E+02  0.10387804130E+02  0.38822607949E+02  0.15356943309E+03  0.12509228419E+03 0.  0.
          5    1    3    3  502    0 -0.23278441489E+02 -0.27780829576E+02 -0.19109464822E+01  0.36534701950E+02  0.41800000000E+01 0.  1.
         -5    1    3    3    0  502  0.10277932106E+03  0.38168633706E+02  0.40733554431E+02  0.11703473114E+03  0.41800000000E+01 0.  1.
        -11    1    1    2    0    0 -0.16321998077E+02 -0.32647370490E+02 -0.27008263243E+02  0.45405998552E+02  0.00000000000E+00 0.  1.
         11    1    1    2    0    0 -0.63178881495E+02  0.22259566360E+02  0.30574811050E+02  0.73633405681E+02  0.00000000000E+00 0. -1.
</event>
<event>
 7    1  0.2690635E-009  0.9760517E+02  0.7561462E-02  0.1285414E+00
         -2   -1    0    0    0  501 -0.00000000000E+00  0.00000000000E+00  0.11543389588E+03  0.11543389588E+03  0.00000000000E+00 0. -1.
          2   -1    0    0  501    0  0.00000000000E+00 -0.00000000000E+00 -0.14673166086E+03  0.14673166086E+03  0.00000000000E+00 0.  1.
         25    2    1    2    0    0  0.32761728737E+02 -0.62073709727E+02 -0.24126107065E+02  0.14545099562E+03  0.12508975488E+03 0.  0.
          5    1    3    3  502    0  0.59627102199E+01  0.15369502627E+02  0.38590736838E+02  0.42172181516E+02  0.41800000000E+01 0.  1.
         -5    1    3    3    0  502  0.26799018518E+02 -0.77443212354E+02 -0.62716843903E+02  0.10327881410E+03  0.41800000000E+01 0.  1.
        -11    1    1    2    0    0 -0.37440923101E+02  0.37409119777E+01  0.29361069446E+02  0.47727241111E+02  0.00000000000E+00 0. -1.
         11    1    1    2    0    0  0.46791943631E+01  0.58332797750E+02 -0.36532727361E+02  0.68987320006E+02  0.00000000000E+00 0.  1.
</event>
<event>
 7    1  0.2690635E-009  0.1174579E+03  0.7561462E-02  0.1247351E+00
         -4   -1    0    0    0  501 -0.00000000000E+00  0.00000000000E+00  0.18211088678E+03  0.18211088678E+03  0.00000000000E+00 0. -1.
          4   -1    0    0  501    0  0.00000000000E+00 -0.00000000000E+00 -0.11550720710E+03  0.11550720710E+03  0.00000000000E+00 0.  1.
         25    2    1    2    0    0 -0.94671425699E+02 -0.86049673822E+01  0.23913649387E+02  0.15892813177E+03  0.12509821795E+03 0.  0.
          5    1    3    3  502    0 -0.18586352960E+02  0.36309292299E+02  0.51910610445E+02  0.66151349952E+02  0.41800000000E+01 0. -1.
         -5    1    3    3    0  502 -0.76085072738E+02 -0.44914259681E+02 -0.27996961059E+02  0.92776781820E+02  0.41800000000E+01 0. -1.
        -11    1    1    2    0    0  0.74539012558E+02 -0.13292200272E+02  0.66357071067E+02  0.10067774263E+03  0.00000000000E+00 0. -1.
         11    1    1    2    0    0  0.20132413141E+02  0.21897167654E+02 -0.23667040778E+02  0.38012219474E+02  0.00000000000E+00 0.  1.
</event>
<event>
 7    1  0.2690635E-009  0.9839977E+02  0.7561462E-02  0.1283697E+00
          1   -1    0    0  501    0  0.00000000000E+00  0.00000000000E+00  0.99004965101E+02  0.99004965101E+02  0.00000000000E+00 0. -1.
         -1   -1    0    0    0  501 -0.00000000000E+00 -0.00000000000E+00 -0.39319858370E+03  0.39319858370E+03  0.00000000000E+00 0.  1.
         25    2    1    2    0    0 -0.12643771470E+02 -0.88567357197E+02 -0.32470067052E+03  0.35928417447E+03  0.12510216174E+03 0.  0.
          5    1    3    3  502    0 -0.21088061524E+02 -0.52909711308E+02 -0.34443285985E+02  0.66692999925E+02  0.41800000000E+01 0.  1.
         -5    1    3    3    0  502  0.84442900539E+01 -0.35657645889E+02 -0.29025738454E+03  0.29259117455E+03  0.41800000000E+01 0.  1.
        -11    1    1    2    0    0 -0.80834653501E+01  0.79954324503E+02  0.56755223419E+02  0.98382883695E+02  0.00000000000E+00 0. -1.
         11    1    1    2    0    0  0.20727236820E+02  0.86130326935E+01 -0.26248171500E+02  0.34536490636E+02  0.00000000000E+00 0.  1.
</event>
<event>
 7    1  0.2690635E-009  0.1109741E+03  0.7561462E-02  0.1258777E+00
          2   -1    0    0  501    0  0.00000000000E+00  0.00000000000E+00  0.31084055069E+03  0.31084055069E+03  0.00000000000E+00 0.  1.
         -2   -1    0    0    0  501 -0.00000000000E+00 -0.00000000000E+00 -0.45062206015E+02  0.45062206015E+02  0.00000000000E+00 0. -1.
         25    2    1    2    0    0  0.33598627681E+02  0.10014771117E+02  0.18937992149E+03  0.22965479540E+03  0.12508959574E+03 0.  0.
          5    1    3    3  502    0  0.61042302535E+02 -0.37096652291E+02  0.13352906023E+03  0.15149193587E+03  0.41800000000E+01 0.  1.
         -5    1    3    3    0  502 -0.27443674855E+02  0.47111423408E+02  0.55850861261E+02  0.78162859522E+02  0.41800000000E+01 0.  1.
        -11    1    1    2    0    0 -0.38205398068E+02  0.34189586229E+02  0.59888760504E+02  0.78836818066E+02  0.00000000000E+00 0.  1.
         11    1    1    2    0    0  0.46067703876E+01 -0.44204357346E+02  0.16509662686E+02  0.47411143245E+02  0.00000000000E+00 0. -1.
</event>
<event>
 7    1  0.2690635E-009  0.3278772E+03  0.7561462E-02  0.1072080E+00
          1   -1    0    0  501    0  0.00000000000E+00  0.00000000000E+00  0.55308758967E+03  0.55308758967E+03  0.00000000000E+00 0. -1.
         -1   -1    0    0    0  501 -0.00000000000E+00 -0.00000000000E+00 -0.20228678306E+03  0.20228678306E+03  0.00000000000E+00 0.  1.
         25    2    1    2    0    0 -0.40198576118E+02 -0.30721243373E+03  0.10695693567E+03  0.35083575103E+03  0.12510209094E+03 0.  0.
          5    1    3    3  502    0 -0.84284986172E+02 -0.22431882360E+03  0.68246942182E+02  0.24919472513E+03  0.41800000000E+01 0.  1.
         -5    1    3    3    0  502  0.44086410054E+02 -0.82893610127E+02  0.38709993484E+02  0.10164102590E+03  0.41800000000E+01 0.  1.
        -11    1    1    2    0    0  0.54133681673E+02  0.94263132333E+02  0.94880817154E+02  0.14428569947E+03  0.00000000000E+00 0.  1.
         11    1    1    2    0    0 -0.13935105555E+02  0.21294930139E+03  0.14896305379E+03  0.26025292222E+03  0.00000000000E+00 0. -1.
</event>
<event>
 7    1  0.2690635E-009  0.1024533E+03  0.7561462E-02  0.1275220E+00
          1   -1    0    0  501    0  0.00000000000E+00  0.00000000000E+00  0.27195288202E+03  0.27195288202E+03  0.00000000000E+00 0. -1.
         -1   -1    0    0    0  501 -0.00000000000E+00 -0.00000000000E+00 -0.72616520751E+02  0.72616520751E+02  0.00000000000E+00 0.  1.
         25    2    1    2    0    0  0.33847468549E+02 -0.17964342236E+02  0.20616418932E+03  0.24417083731E+03  0.12508939250E+03 0.  0.
          5    1    3    3  502    0 -0.20064946573E+02  0.28241989155E+02  0.11217597627E+02  0.36654043828E+02  0.41800000000E+01 0.  1.
         -5    1    3    3    0  502  0.53912415122E+02 -0.46206331391E+02  0.19494659169E+03  0.20751679348E+03  0.41800000000E+01 0.  1.
        -11    1    1    2    0    0 -0.52765502271E+02 -0.20031000917E+02 -0.11811716470E+02  0.57662430347E+02  0.00000000000E+00 0.  1.
         11    1    1    2    0    0  0.18918033721E+02  0.37995343153E+02  0.49838884277E+01  0.42736135121E+02  0.00000000000E+00 0. -1.
</event>
<event>
 7    1  0.2690635E-009  0.9307492E+02  0.7561462E-02  0.1295572E+00
         -1   -1    0    0    0  501 -0.00000000000E+00  0.00000000000E+00  0.21948743406E+03  0.21948743406E+03  0.00000000000E+00 0.  1.
          1   -1    0    0  501    0  0.00000000000E+00 -0.00000000000E+00 -0.82996126926E+02  0.82996126926E+02  0.00000000000E+00 0. -1.
         25    2    1    2    0    0  0.44951117355E+02 -0.64844149380E+02  0.92723475277E+02  0.17455818440E+03  0.12509016833E+03 0.  0.
          5    1    3    3  502    0  0.20804387461E+02 -0.14254563834E+02  0.11219376500E+03  0.11506923322E+03  0.41800000000E+01 0.  1.
         -5    1    3    3    0  502  0.24146729894E+02 -0.50589585546E+02 -0.19470289728E+02  0.59488951179E+02  0.41800000000E+01 0.  1.
        -11    1    1    2    0    0 -0.55563007041E+02  0.72460756638E+02  0.58338521669E+02  0.10835678158E+03  0.00000000000E+00 0.  1.
         11    1    1    2    0    0  0.10611889686E+02 -0.76166072582E+01 -0.14570689813E+02  0.19568595005E+02  0.00000000000E+00 0. -1.
</event>
<event>
 7    1  0.2690635E-009  0.1126168E+03  0.7561462E-02  0.1255799E+00
         -2   -1    0    0    0  501 -0.00000000000E+00  0.00000000000E+00  0.63450390437E+02  0.63450390437E+02  0.00000000000E+00 0.  1.
          2   -1    0    0  501    0  0.00000000000E+00 -0.00000000000E+00 -0.25949001062E+03  0.25949001062E+03  0.00000000000E+00 0. -1.
         25    2    1    2    0    0 -0.21046219716E+01  0.31732377590E+02 -0.18519331582E+03  0.22573272944E+03  0.12508927889E+03 0.  0.
          5    1    3    3  502    0  0.61283404605E+02  0.13481929667E+02 -0.94399425864E+02  0.11342901794E+03  0.41800000000E+01 0. -1.
         -5    1    3    3    0  502 -0.63388026577E+02  0.18250447923E+02 -0.90793889960E+02  0.11230371150E+03  0.41800000000E+01 0. -1.
        -11    1    1    2    0    0 -0.43975317244E+02 -0.21926953449E+02 -0.14023599831E+01  0.49158787900E+02  0.00000000000E+00 0.  1.
         11    1    1    2    0    0  0.46079939216E+02 -0.98054241408E+01 -0.94439443732E+01  0.48048883713E+02  0.00000000000E+00 0. -1.
</event>
<event>
 7    1  0.2690635E-009  0.1010233E+03  0.7561462E-02  0.1278159E+00
         -1   -1    0    0    0  501 -0.00000000000E+00  0.00000000000E+00  0.83090028988E+01  0.83090028988E+01  0.00000000000E+00 0.  1.
          1   -1    0    0  501    0  0.00000000000E+00 -0.00000000000E+00 -0.28290381278E+04  0.28290381278E+04  0.00000000000E+00 0. -1.
         25    2    1    2    0    0 -0.37270577110E+02  0.59676128781E+02 -0.22803640760E+04  0.22848759597E+04  0.12508995088E+03 0.  0.
          5    1    3    3  502    0 -0.45969671592E-01 -0.89126308104E+01 -0.16012041565E+04  0.16012344177E+04  0.41800000000E+01 0. -1.
         -5    1    3    3    0  502 -0.37224607438E+02  0.68588759591E+02 -0.67915991951E+03  0.68364154204E+03  0.41800000000E+01 0. -1.
        -11    1    1    2    0    0  0.37757314542E+02  0.14077391313E+02 -0.15799366780E+03  0.16305148516E+03  0.00000000000E+00 0. -1.
         11    1    1    2    0    0 -0.48673743239E+00 -0.73753520094E+02 -0.38237138112E+03  0.38941968587E+03  0.00000000000E+00 0.  1.
</event>
<event>
 7    1  0.2690635E-009  0.9728701E+02  0.7561462E-02  0.1286107E+00
          2   -1    0    0  501    0  0.00000000000E+00  0.00000000000E+00  0.15691851980E+04  0.15691851980E+04  0.00000000000E+00 0. -1.
         -2   -1    0    0    0  501 -0.00000000000E+00 -0.00000000000E+00 -0.10635830895E+02  0.10635830895E+02  0.00000000000E+00 0.  1.
         25    2    1    2    0    0 -0.46861440048E+02  0.17550902608E+02  0.12238461442E+04  0.12312396755E+04  0.12509086752E+03 0.  0.
          5    1    3    3  502    0 -0.33521399825E+02  0.50881601819E+02  0.27478238903E+03  0.28148793113E+03  0.41800000000E+01 0. -1.
         -5    1    3    3    0  502 -0.13340040223E+02 -0.33330699211E+02  0.94906375517E+03  0.94975174438E+03  0.41800000000E+01 0. -1.
        -11    1    1    2    0    0  0.70738247658E+02 -0.64713002253E+01  0.24078106354E+03  0.25104043095E+03  0.00000000000E+00 0. -1.
         11    1    1    2    0    0 -0.23876807610E+02 -0.11079602382E+02  0.93922159361E+02  0.97540922436E+02  0.00000000000E+00 0.  1.
</event>
<event>
 7    1  0.2690635E-009  0.9138728E+02  0.7561462E-02  0.1299527E+00
          1   -1    0    0  501    0  0.00000000000E+00  0.00000000000E+00  0.92487439917E+02  0.92487439917E+02  0.00000000000E+00 0. -1.
         -1   -1    0    0    0  501 -0.00000000000E+00 -0.00000000000E+00 -0.20992722851E+03  0.20992722851E+03  0.00000000000E+00 0.  1.
         25    2    1    2    0    0 -0.36194610965E+00  0.75799302071E+02 -0.16469521743E+02  0.14718887780E+03  0.12509058878E+03 0.  0.
          5    1    3    3  502    0  0.60322948749E+01  0.83697999155E+02  0.37574993499E+02  0.92038558118E+02  0.41800000000E+01 0.  1.
         -5    1    3    3    0  502 -0.63942409846E+01 -0.78986970846E+01 -0.54044515242E+02  0.55150319683E+02  0.41800000000E+01 0.  1.
        -11    1    1    2    0    0 -0.21866544941E+02 -0.41182647244E+02 -0.10400100935E+03  0.11397528753E+03  0.00000000000E+00 0.  1.
         11    1    1    2    0    0  0.22228491051E+02 -0.34616654827E+02  0.30307424974E+01  0.41250503099E+02  0.00000000000E+00 0. -1.
</event>
<event>
 7    1  0.2690635E-009  0.1952648E+03  0.7561462E-02  0.1153797E+00
          2   -1    0    0  501    0  0.00000000000E+00  0.00000000000E+00  0.20379050613E+03  0.20379050613E+03  0.00000000000E+00 0. -1.
         -2   -1    0    0    0  501 -0.00000000000E+00 -0.00000000000E+00 -0.21873144359E+03  0.21873144359E+03  0.00000000000E+00 0.  1.
         25    2    1    2    0    0  0.16387687172E+03  0.70407210333E+02 -0.35795516816E+02  0.22077524077E+03  0.12509030163E+03 0.  0.
          5    1    3    3  502    0  0.97143739683E+02 -0.14878460030E+00 -0.67685239246E+02  0.11847232718E+03  0.41800000000E+01 0. -1.
         -5    1    3    3    0  502  0.66733132037E+02  0.70555994934E+02  0.31889722429E+02  0.10230291359E+03  0.41800000000E+01 0. -1.
        -11    1    1    2    0    0 -0.49006282589E+02  0.16865618490E+02  0.24744535300E+02  0.57431322878E+02  0.00000000000E+00 0. -1.
         11    1    1    2    0    0 -0.11487058913E+03 -0.87272828823E+02 -0.38899559458E+01  0.14431538607E+03  0.00000000000E+00 0.  1.
</event>
<event>
 7    1  0.2690635E-009  0.6410363E+02  0.7561462E-02  0.1381375E+00
          2   -1    0    0  501    0  0.00000000000E+00  0.00000000000E+00  0.11784922623E+02  0.11784922623E+02  0.00000000000E+00 0. -1.
         -2   -1    0    0    0  501 -0.00000000000E+00 -0.00000000000E+00 -0.11265518859E+04  0.11265518859E+04  0.00000000000E+00 0.  1.
         25    2    1    2    0    0 -0.29508060404E+02 -0.90886993708E+01 -0.75970114779E+03  0.77054892210E+03  0.12508587977E+03 0.  0.
          5    1    3    3  502    0 -0.72680240677E+01  0.61642002811E+01 -0.48805910481E-01  0.10406551829E+02  0.41800000000E+01 0. -1.
         -5    1    3    3    0  502 -0.22240036337E+02 -0.15252899652E+02 -0.75965234188E+03  0.76014237027E+03  0.41800000000E+01 0. -1.
        -11    1    1    2    0    0  0.57951646559E+02  0.18035642617E+02 -0.28900832770E+03  0.29531253144E+03  0.00000000000E+00 0.  1.
         11    1    1    2    0    0 -0.28443586154E+02 -0.89469432463E+01 -0.66057487749E+02  0.72475354946E+02  0.00000000000E+00 0. -1.
</event>
<event>
 7    1  0.2690635E-009  0.1625902E+03  0.7561462E-02  0.1185803E+00
         -2   -1    0    0    0  501 -0.00000000000E+00  0.00000000000E+00  0.29711006841E+03  0.29711006841E+03  0.00000000000E+00 0. -1.
          2   -1    0    0  501    0  0.00000000000E+00 -0.00000000000E+00 -0.12101266109E+03  0.12101266109E+03  0.00000000000E+00 0.  1.
         25    2    1    2    0    0 -0.14565425288E+03  0.33530241938E+02  0.47049289359E+02  0.20050166442E+03  0.12509133982E+03 0.  0.
          5    1    3    3  502    0 -0.11754433440E+03  0.52736679588E+02  0.81001993310E+02  0.15223870482E+03  0.41800000000E+01 0. -1.
         -5    1    3    3    0  502 -0.28109918480E+02 -0.19206437650E+02 -0.33952703951E+02  0.48262959604E+02  0.41800000000E+01 0. -1.
        -11    1    1    2    0    0  0.81485844942E+02 -0.50165791389E+02  0.11545033160E+03  0.14995108742E+03  0.00000000000E+00 0. -1.
         11    1    1    2    0    0  0.64168407939E+02  0.16635549451E+02  0.13597786366E+02  0.67669977664E+02  0.00000000000E+00 0.  1.
</event>
<event>
 7    1  0.2690635E-009  0.1078361E+03  0.7561462E-02  0.1264630E+00
         -1   -1    0    0    0  501 -0.00000000000E+00  0.00000000000E+00  0.39967783488E+02  0.39967783488E+02  0.00000000000E+00 0.  1.
          1   -1    0    0  501    0  0.00000000000E+00 -0.00000000000E+00 -0.34050167291E+03  0.34050167291E+03  0.00000000000E+00 0. -1.
         25    2    1    2    0    0 -0.12414033577E+02  0.21599522751E+02 -0.23194522872E+03  0.26470088709E+03  0.12508925968E+03 0.  0.
          5    1    3    3  502    0  0.42549501229E+02  0.49674174630E+02 -0.11297972063E+03  0.13061345013E+03  0.41800000000E+01 0.  1.
         -5    1    3    3    0  502 -0.54963534806E+02 -0.28074651879E+02 -0.11896550809E+03  0.13408743696E+03  0.41800000000E+01 0.  1.
        -11    1    1    2    0    0 -0.29659035705E+02 -0.33309468258E+02 -0.53297321926E+02  0.69496644516E+02  0.00000000000E+00 0. -1.
         11    1    1    2    0    0  0.42073069282E+02  0.11709945507E+02 -0.15291338779E+02  0.46271924795E+02  0.00000000000E+00 0.  1.
</event>
<event>
 7    1  0.2690635E-009  0.1012598E+03  0.7561462E-02  0.1277669E+00
          1   -1    0    0  501    0  0.00000000000E+00  0.00000000000E+00  0.27106403590E+02  0.27106403590E+02  0.00000000000E+00 0. -1.
         -1   -1    0    0    0  501 -0.00000000000E+00 -0.00000000000E+00 -0.62768534056E+03  0.62768534056E+03  0.00000000000E+00 0.  1.
         25    2    1    2    0    0 -0.10168499288E+02  0.29246067765E+02 -0.49831311536E+03  0.51470626275E+03  0.12509134706E+03 0.  0.
          5    1    3    3  502    0 -0.67092724328E+02  0.22853307691E+02 -0.29621010629E+03  0.30460073342E+03  0.41800000000E+01 0.  1.
         -5    1    3    3    0  502  0.56924225040E+02  0.63927600738E+01 -0.20210300907E+03  0.21010552933E+03  0.41800000000E+01 0.  1.
        -11    1    1    2    0    0 -0.28539397290E+02 -0.67981640015E+01 -0.88551471359E+02  0.93284914704E+02  0.00000000000E+00 0.  1.
         11    1    1    2    0    0  0.38707896578E+02 -0.22447903764E+02 -0.13714350250E+02  0.46800566702E+02  0.00000000000E+00 0. -1.
</event>
<event>
 7    1  0.2690635E-009  0.1330182E+03  0.7561462E-02  0.1223045E+00
         -1   -1    0    0    0  501 -0.00000000000E+00  0.00000000000E+00  0.37238637524E+02  0.37238637524E+02  0.00000000000E+00 0.  1.
          1   -1    0    0  501    0  0.00000000000E+00 -0.00000000000E+00 -0.73338474493E+03  0.73338474493E+03  0.00000000000E+00 0. -1.
         25    2    1    2    0    0  0.11293991660E+03  0.43060035234E+02 -0.43783427844E+03  0.47112426217E+03  0.12509845577E+03 0.  0.
          5    1    3    3  502    0  0.18926270277E+02 -0.17506422852E+02 -0.85341409501E+01  0.27476945053E+02  0.41800000000E+01 0. -1.
         -5    1    3    3    0  502  0.94013646328E+02  0.60566458086E+02 -0.42930013749E+03  0.44364731712E+03  0.41800000000E+01 0. -1.
        -11    1    1    2    0    0 -0.72385895014E+02 -0.52755709348E+01 -0.61815439074E+02  0.95334662917E+02  0.00000000000E+00 0.  1.
         11    1    1    2    0    0 -0.40554021591E+02 -0.37784464299E+02 -0.19649638989E+03  0.20416445736E+03  0.00000000000E+00 0. -1.
</event>
<event>
 7    1  0.2690635E-009  0.1175936E+03  0.7561462E-02  0.1247120E+00
          2   -1    0    0  501    0  0.00000000000E+00  0.00000000000E+00  0.21978021965E+03  0.21978021965E+03  0.00000000000E+00 0. -1.
         -2   -1    0    0    0  501 -0.00000000000E+00 -0.00000000000E+00 -0.74037627481E+02  0.74037627481E+02  0.00000000000E+00 0.  1.
         25    2    1    2    0    0  0.65561886866E+02 -0.17619683928E+02  0.84597019807E+02  0.16556524599E+03  0.12508549336E+03 0.  0.
          5    1    3    3  502    0 -0.21488280107E+02  0.31896638405E+02  0.82261130549E+01  0.39551018438E+02  0.41800000000E+01 0.  1.
         -5    1    3    3    0  502  0.87050166973E+02 -0.49516322333E+02  0.76370906752E+02  0.12601422755E+03  0.41800000000E+01 0.  1.
        -11    1    1    2    0    0 -0.53806750630E+02 -0.19575886686E+02  0.67733151713E+02  0.88691383989E+02  0.00000000000E+00 0. -1.
         11    1    1    2    0    0 -0.11755136236E+02  0.37195570614E+02 -0.65875793464E+01  0.39561217156E+02  0.00000000000E+00 0.  1.
</event>
<event>
 7    1  0.2690635E-009  0.9333569E+02  0.7561462E-02  0.1294969E+00
         -1   -1    0    0    0  501 -0.00000000000E+00  0.00000000000E+00  0.21524599188E+03  0.21524599188E+03  0.00000000000E+00 0. -1.
          1   -1    0    0  501    0  0.00000000000E+00 -0.00000000000E+00 -0.57059440413E+02  0.57059440413E+02  0.00000000000E+00 0.  1.
         25    2    1    2    0    0  0.12205266254E+02 -0.18646277324E+02  0.99813069697E+02  0.16157958225E+03  0.12509460553E+03 0.  0.
          5    1    3    3  502    0  0.36703360284E+02  0.27498738442E+02  0.98971464859E+02  0.10916107607E+03  0.41800000000E+01 0.  1.
         -5    1    3    3    0  502 -0.24498094031E+02 -0.46145015766E+02  0.84160483842E+00  0.52418506178E+02  0.41800000000E+01 0.  1.
        -11    1    1    2    0    0  0.36816716028E+02  0.12079673662E+02  0.69299083734E+01  0.39362580263E+02  0.00000000000E+00 0.  1.
         11    1    1    2    0    0 -0.49021982282E+02  0.65666036625E+01  0.51443573392E+02  0.71363269781E+02  0.00000000000E+00 0. -1.
</event>
<event>
 7    1  0.2690635E-009  0.5696249E+02  0.7561462E-02  0.1411040E+00
         -2   -1    0    0    0  501 -0.00000000000E+00  0.00000000000E+00  0.15119435799E+03  0.15119435799E+03  0.00000000000E+00 0. -1.
          2   -1    0    0  501    0  0.00000000000E+00 -0.00000000000E+00 -0.77691140455E+02  0.77691140455E+02  0.00000000000E+00 0.  1.
         25    2    1    2    0    0 -0.42094633443E+01  0.12008472725E+01  0.38426052513E+02  0.13092893932E+03  0.12508662608E+03 0.  0.
          5    1    3    3  502    0 -0.31880796720E+02 -0.12593004879E+02  0.75171998692E+02  0.82724063964E+02  0.41800000000E+01 0. -1.
         -5    1    3    3    0  502  0.27671333376E+02  0.13793852151E+02 -0.36745946179E+02  0.48204875361E+02  0.41800000000E+01 0. -1.
        -11    1    1    2    0    0 -0.46464223329E+01  0.22456719924E+02  0.58916981374E+02  0.63222655784E+02  0.00000000000E+00 0. -1.
         11    1    1    2    0    0  0.88558856772E+01 -0.23657567196E+02 -0.23839816356E+02  0.34733903332E+02  0.00000000000E+00 0.  1.
</event>
<event>
 7    1  0.2690635E-009  0.9901614E+02  0.7561462E-02  0.1282379E+00
         -1   -1    0    0    0  501 -0.00000000000E+00  0.00000000000E+00  0.33511084486E+02  0.33511084486E+02  0.00000000000E+00 0.  1.
          1   -1    0    0  501    0  0.00000000000E+00 -0.00000000000E+00 -0.14499800334E+04  0.14499800334E+04  0.00000000000E+00 0. -1.
         25    2    1    2    0    0 -0.31391417255E+02  0.91395624907E+02 -0.12892986132E+04  0.12989520215E+04  0.12508740447E+03 0.  0.
          5    1    3    3  502    0 -0.24605996713E+02  0.78506854044E+02 -0.35124338813E+03  0.36077440501E+03  0.41800000000E+01 0. -1.
         -5    1    3    3    0  502 -0.67854205426E+01  0.12888770863E+02 -0.93805522512E+03  0.93817761651E+03  0.41800000000E+01 0. -1.
        -11    1    1    2    0    0  0.17269070817E+02 -0.15197288373E+02 -0.99698337228E+02  0.10231782262E+03  0.00000000000E+00 0. -1.
         11    1    1    2    0    0  0.14122346438E+02 -0.76198336534E+02 -0.27471998456E+02  0.82221273760E+02  0.00000000000E+00 0.  1.
</event>
<event>
 7    1  0.2690635E-009  0.1731869E+03  0.7561462E-02  0.1174565E+00
         -1   -1    0    0    0  501 -0.00000000000E+00  0.00000000000E+00  0.56146650076E+02  0.56146650076E+02  0.00000000000E+00 0.  1.
          1   -1    0    0  501    0  0.00000000000E+00 -0.00000000000E+00 -0.87471239042E+03  0.87471239042E+03  0.00000000000E+00 0. -1.
         25    2    1    2    0    0  0.94087120120E+02 -0.11012841822E+03 -0.69614400961E+03  0.72197264369E+03  0.12508941378E+03 0.  0.
          5    1    3    3  502    0  0.96741700368E+02 -0.33111331044E+02 -0.51506743143E+03  0.52513545695E+03  0.41800000000E+01 0.  1.
         -5    1    3    3    0  502 -0.26545802473E+01 -0.77017087177E+02 -0.18107657819E+03  0.19683718673E+03  0.41800000000E+01 0.  1.
        -11    1    1    2    0    0  0.75916483133E+01  0.46058417101E+02 -0.19244977260E+02  0.50491385995E+02  0.00000000000E+00 0.  1.
         11    1    1    2    0    0 -0.10167876843E+03  0.64070001120E+02 -0.10317675347E+03  0.15839501081E+03  0.00000000000E+00 0. -1.
</event>
<event>
 7    1  0.2690635E-009  0.1627837E+03  0.7561462E-02  0.1185589E+00
          2   -1    0    0  501    0  0.00000000000E+00  0.00000000000E+00  0.13034450971E+03  0.13034450971E+03  0.00000000000E+00 0. -1.
         -2   -1    0    0    0  501 -0.00000000000E+00 -0.00000000000E+00 -0.26274440515E+03  0.26274440515E+03  0.00000000000E+00 0.  1.
         25    2    1    2    0    0  0.63589313477E+02 -0.13481113675E+03 -0.71208204270E+02  0.20720968211E+03  0.12509036983E+03 0.  0.
          5    1    3    3  502    0  0.83341368874E+02 -0.74567001202E+02 -0.86989992227E+02  0.14174185191E+03  0.41800000000E+01 0. -1.
         -5    1    3    3    0  502 -0.19752055397E+02 -0.60244135549E+02  0.15781787958E+02  0.65467830203E+02  0.41800000000E+01 0. -1.
        -11    1    1    2    0    0 -0.60079205607E+02  0.11250991051E+03 -0.84839617123E+02  0.15318535029E+03  0.00000000000E+00 0.  1.
         11    1    1    2    0    0 -0.35101078708E+01  0.22301226241E+02  0.23647925952E+02  0.32693882469E+02  0.00000000000E+00 0. -1.
</event>
<event>
 7    1  0.2690635E-009  0.1758386E+03  0.7561462E-02  0.1171892E+00
         -2   -1    0    0    0  501 -0.00000000000E+00  0.00000000000E+00  0.50368901925E+03  0.50368901925E+03  0.00000000000E+00 0. -1.
          2   -1    0    0  501    0  0.00000000000E+00 -0.00000000000E+00 -0.69138296455E+02  0.69138296455E+02  0.00000000000E+00 0.  1.
         25    2    1    2    0    0  0.12279644379E+03  0.85275596021E+02  0.26961651856E+03  0.33270477584E+03  0.12509399228E+03 0.  0.
          5    1    3    3  502    0 -0.96555334901E+01  0.56542063958E+02  0.10211867106E+03  0.11720038269E+03  0.41800000000E+01 0. -1.
         -5    1    3    3    0  502  0.13245197728E+03  0.28733532063E+02  0.16749784750E+03  0.21550439315E+03  0.41800000000E+01 0. -1.
        -11    1    1    2    0    0 -0.21011523011E+02 -0.43947203566E+02  0.10317745744E+03  0.11409832832E+03  0.00000000000E+00 0. -1.
         11    1    1    2    0    0 -0.10178492078E+03 -0.41328392455E+02  0.61756746800E+02  0.12602421155E+03  0.00000000000E+00 0.  1.
</event>
<event>
 7    1  0.2690635E-009  0.3047375E+03  0.7561462E-02  0.1082896E+00
         -2   -1    0    0    0  501 -0.00000000000E+00  0.00000000000E+00  0.56592395899E+02  0.56592395899E+02  0.00000000000E+00 0.  1.
          2   -1    0    0  501    0  0.00000000000E+00 -0.00000000000E+00 -0.18301207143E+04  0.18301207143E+04  0.00000000000E+00 0. -1.
         25    2    1    2    0    0 -0.29318860562E+03  0.62446511321E+02 -0.79314668242E+03  0.85708095942E+03  0.12508791281E+03 0.  0.
          5    1    3    3  502    0 -0.23931034706E+03  0.58252382106E+02 -0.48253122046E+03  0.54177175392E+03  0.41800000000E+01 0.  1.
         -5    1    3    3    0  502 -0.53878258566E+02  0.41941292150E+01 -0.31061546196E+03  0.31530920550E+03  0.41800000000E+01 0.  1.
        -11    1    1    2    0    0  0.20947001013E+03 -0.78497577222E+02 -0.61443296611E+03  0.65388640039E+03  0.00000000000E+00 0.  1.
         11    1    1    2    0    0  0.83718595491E+02  0.16051065901E+02 -0.36594866984E+03  0.37574575035E+03  0.00000000000E+00 0. -1.
</event>
<event>
 7    1  0.2690635E-009  0.1266709E+03  0.7561462E-02  0.1232481E+00
          2   -1    0    0  501    0  0.00000000000E+00  0.00000000000E+00  0.30143582819E+03  0.30143582819E+03  0.00000000000E+00 0.  1.
         -2   -1    0    0    0  501 -0.00000000000E+00 -0.00000000000E+00 -0.78610931225E+02  0.78610931225E+02  0.00000000000E+00 0. -1.
         25    2    1    2    0    0  0.26806346950E+01 -0.10374237459E+03  0.14132442992E+03  0.21538416192E+03  0.12509227245E+03 0.  0.
          5    1    3    3  502    0 -0.44952439067E+02 -0.14511213366E+02  0.90352265411E+02  0.10204068481E+03  0.41800000000E+01 0. -1.
         -5    1    3    3    0  502  0.47633073762E+02 -0.89231161219E+02  0.50972164512E+02  0.11334347711E+03  0.41800000000E+01 0. -1.
        -11    1    1    2    0    0 -0.71929224391E+01  0.31878159368E+02 -0.21405635971E+02  0.39066052133E+02  0.00000000000E+00 0. -1.
         11    1    1    2    0    0  0.45122877441E+01  0.71864215217E+02  0.10290610301E+03  0.12559654536E+03  0.00000000000E+00 0.  1.
</event>
<event>
 7    1  0.2690635E-009  0.8164964E+02  0.7561462E-02  0.1324434E+00
         -1   -1    0    0    0  501 -0.00000000000E+00  0.00000000000E+00  0.70484345734E+02  0.70484345734E+02  0.00000000000E+00 0.  1.
          1   -1    0    0  501    0  0.00000000000E+00 -0.00000000000E+00 -0.18996107428E+03  0.18996107428E+03  0.00000000000E+00 0. -1.
         25    2    1    2    0    0  0.24485214234E+02 -0.13786422783E+02 -0.90540292192E+02  0.15695255281E+03  0.12508784175E+03 0.  0.
          5    1    3    3  502    0 -0.20090689664E+02 -0.33104854313E+02  0.14168864735E+02  0.41446306447E+02  0.41800000000E+01 0. -1.
         -5    1    3    3    0  502  0.44575903897E+02  0.19318431530E+02 -0.10470915693E+03  0.11550624637E+03  0.41800000000E+01 0. -1.
        -11    1    1    2    0    0 -0.41730665408E+02  0.30410071513E+02  0.14723726875E+02  0.53693659011E+02  0.00000000000E+00 0.  1.
         11    1    1    2    0    0  0.17245451175E+02 -0.16623648731E+02 -0.43660163226E+02  0.49799208189E+02  0.00000000000E+00 0. -1.
</event>
<event>
 7    1  0.2690635E-009  0.8322338E+02  0.7561462E-02  0.1320145E+00
          1   -1    0    0  501    0  0.00000000000E+00  0.00000000000E+00  0.63362426140E+03  0.63362426140E+03  0.00000000000E+00 0. -1.
         -1   -1    0    0    0  501 -0.00000000000E+00 -0.00000000000E+00 -0.36028454606E+02  0.36028454606E+02  0.00000000000E+00 0.  1.
         25    2    1    2    0    0  0.57211505606E+01 -0.25344531569E+02  0.97260500318E+02  0.16056649311E+03  0.12508763705E+03 0.  0.
          5    1    3    3  502    0 -0.29995835658E+02 -0.20431058826E+02 -0.17279708744E+02  0.40413352445E+02  0.41800000000E+01 0. -1.
         -5    1    3    3    0  502  0.35716986219E+02 -0.49134727434E+01  0.11454020906E+03  0.12015314066E+03  0.41800000000E+01 0. -1.
        -11    1    1    2    0    0  0.36719683024E+02  0.34295484929E+02  0.24597158318E+03  0.25105086166E+03  0.00000000000E+00 0.  1.
         11    1    1    2    0    0 -0.42440833585E+02 -0.89509533602E+01  0.25436372329E+03  0.25803536124E+03  0.00000000000E+00 0. -1.
</event>
<event>
 7    1  0.2690635E-009  0.1059304E+03  0.7561462E-02  0.1268297E+00
          2   -1    0    0  501    0  0.00000000000E+00  0.00000000000E+00  0.47169046880E+02  0.47169046880E+02  0.00000000000E+00 0. -1.
         -2   -1    0    0    0  501 -0.00000000000E+00 -0.00000000000E+00 -0.27418637413E+03  0.27418637413E+03  0.00000000000E+00 0.  1.
         25    2    1    2    0    0 -0.75007625475E+01 -0.14615903318E+02 -0.18342498765E+03  0.22262559241E+03  0.12509013644E+03 0.  0.
          5    1    3    3  502    0 -0.25545158762E+02 -0.65096121192E+02 -0.82171141019E+02  0.10797976175E+03  0.41800000000E+01 0.  1.
         -5    1    3    3    0  502  0.18044396215E+02  0.50480217875E+02 -0.10125384663E+03  0.11464583067E+03  0.41800000000E+01 0.  1.
        -11    1    1    2    0    0  0.17903133110E+02  0.48970803995E+02 -0.20374845522E+02  0.55980319301E+02  0.00000000000E+00 0. -1.
         11    1    1    2    0    0 -0.10402370562E+02 -0.34354900677E+02 -0.23217494082E+02  0.42749509299E+02  0.00000000000E+00 0.  1.
</event>
<event>
 7    1  0.2690635E-009  0.1868857E+03  0.7561462E-02  0.1161301E+00
         -1   -1    0    0    0  501 -0.00000000000E+00  0.00000000000E+00  0.41517658012E+03  0.41517658012E+03  0.00000000000E+00 0.  1.
          1   -1    0    0  501    0  0.00000000000E+00 -0.00000000000E+00 -0.14400164163E+03  0.14400164163E+03  0.00000000000E+00 0. -1.
         25    2    1    2    0    0  0.11968843037E+03 -0.12102229531E+03 -0.16691226600E+02  0.21188829399E+03  0.12508531392E+03 0.  0.
          5    1    3    3  502    0 -0.51106054754E+01 -0.20575352708E+02 -0.44283766262E+02  0.49274615998E+02  0.41800000000E+01 0. -1.
         -5    1    3    3    0  502  0.12479903584E+03 -0.10044694260E+03  0.27592539662E+02  0.16261367799E+03  0.41800000000E+01 0. -1.
        -11    1    1    2    0    0 -0.83443325126E+02  0.21759200301E+02  0.15660779330E+03  0.17877989883E+03  0.00000000000E+00 0.  1.
         11    1    1    2    0    0 -0.36245105243E+02  0.99263095008E+02  0.13125837178E+03  0.16851002892E+03  0.00000000000E+00 0. -1.
</event>
<event>
 7    1  0.2690635E-009  0.4058917E+02  0.7561462E-02  0.1503920E+00
          2   -1    0    0  501    0  0.00000000000E+00  0.00000000000E+00  0.18314098160E+03  0.18314098160E+03  0.00000000000E+00 0. -1.
         -2   -1    0    0    0  501 -0.00000000000E+00 -0.00000000000E+00 -0.68903863450E+02  0.68903863450E+02  0.00000000000E+00 0.  1.
         25    2    1    2    0    0 -0.10623809473E+02 -0.29242463591E+02  0.56534629951E+02  0.14075484270E+03  0.12509106425E+03 0.  0.
          5    1    3    3  502    0  0.23241013902E+01 -0.34481468106E+02 -0.34233074191E+02  0.48823650607E+02  0.41800000000E+01 0.  1.
         -5    1    3    3    0  502 -0.12947910863E+02  0.52390045150E+01  0.90767704143E+02  0.91931192091E+02  0.41800000000E+01 0.  1.
        -11    1    1    2    0    0  0.73056898965E+01  0.10738966505E+02 -0.24088211526E+02  0.27366776226E+02  0.00000000000E+00 0.  1.
         11    1    1    2    0    0  0.33181195761E+01  0.18503497086E+02  0.81790699725E+02  0.83923226126E+02  0.00000000000E+00 0. -1.
</event>
<event>
 7    1  0.2690635E-009  0.1632126E+03  0.7561462E-02  0.1185117E+00
          1   -1    0    0  501    0  0.00000000000E+00  0.00000000000E+00  0.44809346039E+02  0.44809346039E+02  0.00000000000E+00 0. -1.
         -1   -1    0    0    0  501 -0.00000000000E+00 -0.00000000000E+00 -0.68304116248E+03  0.68304116248E+03  0.00000000000E+00 0.  1.
         25    2    1    2    0    0  0.10988833728E+03  0.66263376964E+02 -0.43535239124E+03  0.47079179989E+03  0.12508769918E+03 0.  0.
          5    1    3    3  502    0 -0.89962791519E+01  0.56895207502E+02 -0.17768590197E+03  0.18683615773E+03  0.41800000000E+01 0. -1.
         -5    1    3    3    0  502  0.11888461643E+03  0.93681694627E+01 -0.25766648927E+03  0.28395564216E+03  0.41800000000E+01 0. -1.
        -11    1    1    2    0    0 -0.83676189380E+02 -0.83310171707E+02 -0.11943941311E+03  0.16795256111E+03  0.00000000000E+00 0.  1.
         11    1    1    2    0    0 -0.26212147897E+02  0.17046794743E+02 -0.83440012095E+02  0.89106147525E+02  0.00000000000E+00 0. -1.
</event>
<event>
 7    1  0.2690635E-009  0.1357420E+03  0.7561462E-02  0.1219176E+00
         -1   -1    0    0    0  501 -0.00000000000E+00  0.00000000000E+00  0.22327843172E+02  0.22327843172E+02  0.00000000000E+00 0.  1.
          1   -1    0    0  501    0  0.00000000000E+00 -0.00000000000E+00 -0.10637151205E+04  0.10637151205E+04  0.00000000000E+00 0. -1.
         25    2    1    2    0    0 -0.69487376012E+01 -0.10439990591E+03 -0.67053615959E+03  0.69008317419E+03  0.12509364761E+03 0.  0.
          5    1    3    3  502    0  0.18744281635E+02  0.10823529374E+02 -0.30798799188E+03  0.30877592592E+03  0.41800000000E+01 0.  1.
         -5    1    3    3    0  502 -0.25693019236E+02 -0.11522343529E+03 -0.36254816771E+03  0.38130724827E+03  0.41800000000E+01 0.  1.
        -11    1    1    2    0    0 -0.28475924578E+02  0.95047218955E+01 -0.15018944284E+03  0.15316033024E+03  0.00000000000E+00 0. -1.
         11    1    1    2    0    0  0.35424662179E+02  0.94895184018E+02 -0.22066167492E+03  0.24279945926E+03  0.00000000000E+00 0.  1.
</event>
<event>
 7    1  0.2690635E-009  0.1430932E+03  0.7561462E-02  0.1209226E+00
         -2   -1    0    0    0  501 -0.00000000000E+00  0.00000000000E+00  0.23716606868E+02  0.23716606868E+02  0.00000000000E+00 0.  1.
          2   -1    0    0  501    0  0.00000000000E+00 -0.00000000000E+00 -0.12110876626E+04  0.12110876626E+04  0.00000000000E+00 0. -1.
         25    2    1    2    0    0 -0.33444998920E+02  0.12375160571E+03 -0.71007439958E+03  0.73231514214E+03  0.12508711607E+03 0.  0.
          5    1    3    3  502    0  0.24261181823E+02  0.81847635185E+02 -0.20337907725E+03  0.22060861677E+03  0.41800000000E+01 0. -1.
         -5    1    3    3    0  502 -0.57706180743E+02  0.41903970523E+02 -0.50669532233E+03  0.51170652537E+03  0.41800000000E+01 0. -1.
        -11    1    1    2    0    0  0.12637842403E+02 -0.78002547874E+02 -0.41495424707E+03  0.42241110272E+03  0.00000000000E+00 0. -1.
         11    1    1    2    0    0  0.20807156517E+02 -0.45749057834E+02 -0.62342409077E+02  0.80078024605E+02  0.00000000000E+00 0.  1.
</event>
<event>
 7    1  0.2690635E-009  0.1038201E+03  0.7561462E-02  0.1272462E+00
          1   -1    0    0  501    0  0.00000000000E+00  0.00000000000E+00  0.32101178638E+03  0.32101178638E+03  0.00000000000E+00 0. -1.
         -1   -1    0    0    0  501 -0.00000000000E+00 -0.00000000000E+00 -0.66570872905E+02  0.66570872905E+02  0.00000000000E+00 0.  1.
         25    2    1    2    0    0 -0.34045306594E+02  0.48288992358E+02  0.24047697870E+03  0.27743190851E+03  0.12509347262E+03 0.  0.
          5    1    3    3  502    0  0.22390900522E+02  0.35307711360E+02  0.15023731486E+02  0.44622548285E+02  0.41800000000E+01 0. -1.
         -5    1    3    3    0  502 -0.56436207116E+02  0.12981280998E+02  0.22545324721E+03  0.23280936022E+03  0.41800000000E+01 0. -1.
        -11    1    1    2    0    0  0.61508844607E+02 -0.13037552397E+02  0.17668297888E+02  0.65310676674E+02  0.00000000000E+00 0. -1.
         11    1    1    2    0    0 -0.27463538013E+02 -0.35251439961E+02 -0.37043631095E+01  0.44840074103E+02  0.00000000000E+00 0.  1.
</event>
<event>
 7    1  0.2690635E-009  0.2234779E+03  0.7561462E-02  0.1131316E+00
         -1   -1    0    0    0  501 -0.00000000000E+00  0.00000000000E+00  0.91493698875E+02  0.91493698875E+02  0.00000000000E+00 0.  1.
          1   -1    0    0  501    0  0.00000000000E+00 -0.00000000000E+00 -0.65652876672E+03  0.65652876672E+03  0.00000000000E+00 0. -1.
         25    2    1    2    0    0  0.14768891014E+02  0.21504648388E+03 -0.22703102428E+03  0.33712586217E+03  0.12509056953E+03 0.  0.
          5    1    3    3  502    0  0.41530843537E+02  0.18984971404E+03 -0.13151012192E+03  0.23469151978E+03  0.41800000000E+01 0. -1.
         -5    1    3    3    0  502 -0.26761952523E+02  0.25196769838E+02 -0.95520902363E+02  0.10243434239E+03  0.41800000000E+01 0. -1.
        -11    1    1    2    0    0 -0.29375987528E+01 -0.64545881509E+02 -0.18497662983E+03  0.19593660681E+03  0.00000000000E+00 0. -1.
         11    1    1    2    0    0 -0.11831292261E+02 -0.15050060237E+03 -0.15302741373E+03  0.21495999661E+03  0.00000000000E+00 0.  1.
</event>
<event>
 7    1  0.2690635E-009  0.1424550E+03  0.7561462E-02  0.1210063E+00
          1   -1    0    0  501    0  0.00000000000E+00  0.00000000000E+00  0.23317304962E+03  0.23317304962E+03  0.00000000000E+00 0. -1.
         -1   -1    0    0    0  501 -0.00000000000E+00 -0.00000000000E+00 -0.12679179045E+03  0.12679179045E+03  0.00000000000E+00 0.  1.
         25    2    1    2    0    0 -0.26280278718E+02 -0.12177192101E+03  0.10921030506E+03  0.20758960867E+03  0.12508997202E+03 0.  0.
          5    1    3    3  502    0  0.37627627034E+02 -0.43599063512E+02  0.86515156046E+02  0.10401471666E+03  0.41800000000E+01 0.  1.
         -5    1    3    3    0  502 -0.63907905752E+02 -0.78172857499E+02  0.22695149017E+02  0.10357489202E+03  0.41800000000E+01 0.  1.
        -11    1    1    2    0    0 -0.15225040352E+01  0.34119979397E+02 -0.40520740917E+02  0.52994541767E+02  0.00000000000E+00 0.  1.
         11    1    1    2    0    0  0.27802782753E+02  0.87651941614E+02  0.37691695021E+02  0.99380689629E+02  0.00000000000E+00 0. -1.
</event>
<event>
 7    1  0.2690635E-009  0.1121777E+03  0.7561462E-02  0.1256589E+00
         -1   -1    0    0    0  501 -0.00000000000E+00  0.00000000000E+00  0.42615721479E+03  0.42615721479E+03  0.00000000000E+00 0.  1.
          1   -1    0    0  501    0  0.00000000000E+00 -0.00000000000E+00 -0.33994253674E+02  0.33994253674E+02  0.00000000000E+00 0. -1.
         25    2    1    2    0    0 -0.22390426538E+02  0.33048965018E+02  0.16354054514E+03  0.20973069050E+03  0.12509151587E+03 0.  0.
          5    1    3    3  502    0 -0.71256380770E+02  0.32472710711E+02  0.74986195686E+02  0.10850046398E+03  0.41800000000E+01 0. -1.
         -5    1    3    3    0  502  0.48865954233E+02  0.57625430672E+00  0.88554349454E+02  0.10123022651E+03  0.41800000000E+01 0. -1.
        -11    1    1    2    0    0  0.55371709458E+02 -0.90634604950E+01  0.16991330347E+03  0.17893770766E+03  0.00000000000E+00 0.  1.
         11    1    1    2    0    0 -0.32981282920E+02 -0.23985504523E+02  0.58709112505E+02  0.71483070313E+02  0.00000000000E+00 0. -1.
</event>
<event>
 7    1  0.2690635E-009  0.1525777E+03  0.7561462E-02  0.1197341E+00
          2   -1    0    0  501    0  0.00000000000E+00  0.00000000000E+00  0.14497066551E+04  0.14497066551E+04  0.00000000000E+00 0. -1.
         -2   -1    0    0    0  501 -0.00000000000E+00 -0.00000000000E+00 -0.17295461707E+02  0.17295461707E+02  0.00000000000E+00 0.  1.
         25    2    1    2    0    0 -0.99728952429E+02  0.76587471988E+02  0.78878365315E+03  0.80847888320E+03  0.12508776232E+03 0.  0.
          5    1    3    3  502    0 -0.48245871527E+02 -0.23094284469E+02  0.40728572695E+03  0.41080426710E+03  0.41800000000E+01 0. -1.
         -5    1    3    3    0  502 -0.51483080902E+02  0.99681756457E+02  0.38149792621E+03  0.39767461610E+03  0.41800000000E+01 0. -1.
        -11    1    1    2    0    0  0.84718358214E+02 -0.29332400908E+02  0.40714782363E+03  0.41690159540E+03  0.00000000000E+00 0.  1.
         11    1    1    2    0    0  0.15010594215E+02 -0.47255071080E+02  0.23647971662E+03  0.24162163822E+03  0.00000000000E+00 0. -1.
</event>
<event>
 7    1  0.2690635E-009  0.1806377E+03  0.7561462E-02  0.1167187E+00
         -2   -1    0    0    0  501 -0.00000000000E+00  0.00000000000E+00  0.39297472257E+02  0.39297472257E+02  0.00000000000E+00 0. -1.
          2   -1    0    0  501    0  0.00000000000E+00 -0.00000000000E+00 -0.10055684795E+04  0.10055684795E+04  0.00000000000E+00 0.  1.
         25    2    1    2    0    0 -0.36923141288E+02  0.14580643568E+03 -0.69265624123E+03  0.71975187497E+03  0.12508900016E+03 0.  0.
          5    1    3    3  502    0  0.46284794459E+02  0.55621585423E+02 -0.27879554458E+03  0.28806331082E+03  0.41800000000E+01 0.  1.
         -5    1    3    3    0  502 -0.83207935747E+02  0.90184850260E+02 -0.41386069665E+03  0.43168856415E+03  0.41800000000E+01 0.  1.
        -11    1    1    2    0    0 -0.19868561461E+02 -0.21070677306E+02 -0.15450201837E+02  0.32824410329E+02  0.00000000000E+00 0. -1.
         11    1    1    2    0    0  0.56791702749E+02 -0.12473575838E+03 -0.25816456415E+03  0.29228966643E+03  0.00000000000E+00 0.  1.
</event>
<event>
 7    1  0.2690635E-009  0.1197515E+03  0.7561462E-02  0.1243508E+00
          1   -1    0    0  501    0  0.00000000000E+00  0.00000000000E+00  0.15357611541E+03  0.15357611541E+03  0.00000000000E+00 0. -1.
         -1   -1    0    0    0  501 -0.00000000000E+00 -0.00000000000E+00 -0.12236941091E+03  0.12236941091E+03  0.00000000000E+00 0.  1.
         25    2    1    2    0    0 -0.39807231750E+02  0.66770734327E+02 -0.14640376366E+02  0.14800989808E+03  0.12509853176E+03 0.  0.
          5    1    3    3  502    0 -0.73411828004E+02  0.13643619120E+02  0.18191452719E+02  0.76966526397E+02  0.41800000000E+01 0.  1.
         -5    1    3    3    0  502  0.33604596254E+02  0.53127115207E+02 -0.32831829085E+02  0.71043371687E+02  0.41800000000E+01 0.  1.
        -11    1    1    2    0    0 -0.18203604876E+02 -0.21219224728E+02 -0.15529433283E+02  0.31981088578E+02  0.00000000000E+00 0.  1.
         11    1    1    2    0    0  0.58010836626E+02 -0.45551509599E+02  0.61376514149E+02  0.95954539662E+02  0.00000000000E+00 0. -1.
</event>
<event>
 7    1  0.2690635E-009  0.9904358E+02  0.7561462E-02  0.1282320E+00
          2   -1    0    0  501    0  0.00000000000E+00  0.00000000000E+00  0.20881954966E+03  0.20881954966E+03  0.00000000000E+00 0. -1.
         -2   -1    0    0    0  501 -0.00000000000E+00 -0.00000000000E+00 -0.13494836331E+03  0.13494836331E+03  0.00000000000E+00 0.  1.
         25    2    1    2    0    0  0.68307650058E+02 -0.50560270239E+02  0.13807497183E+03  0.20477385706E+03  0.12508140831E+03 0.  0.
          5    1    3    3  502    0 -0.47942586384E+01 -0.37981338874E+02  0.12310342248E+03  0.12898640256E+03  0.41800000000E+01 0. -1.
         -5    1    3    3    0  502  0.73101908696E+02 -0.12578931364E+02  0.14971549350E+02  0.75787454498E+02  0.41800000000E+01 0. -1.
        -11    1    1    2    0    0 -0.20056291423E+02  0.18997342850E+02 -0.75362756829E+02  0.80266424972E+02  0.00000000000E+00 0.  1.
         11    1    1    2    0    0 -0.48251358635E+02  0.31562927389E+02  0.11158971350E+02  0.58727630950E+02  0.00000000000E+00 0. -1.
</event>
<event>
 7    1  0.2690635E-009  0.8259675E+02  0.7561462E-02  0.1321840E+00
          2   -1    0    0  501    0  0.00000000000E+00  0.00000000000E+00  0.48641979028E+03  0.48641979028E+03  0.00000000000E+00 0. -1.
         -2   -1    0    0    0  501 -0.00000000000E+00 -0.00000000000E+00 -0.33413542467E+02  0.33413542467E+02  0.00000000000E+00 0.  1.
         25    2    1    2    0    0 -0.52344095276E+02 -0.13105622016E+02  0.32466474153E+03  0.35208845546E+03  0.12508966559E+03 0.  0.
          5    1    3    3  502    0 -0.19099895037E+02 -0.16149443410E+02 -0.32572618786E+00  0.25361171314E+02  0.41800000000E+01 0.  1.
         -5    1    3    3    0  502 -0.33244200239E+02  0.30438213940E+01  0.32499046771E+03  0.32672728414E+03  0.41800000000E+01 0.  1.
        -11    1    1    2    0    0 -0.22454289514E+02  0.21293565198E+02  0.52288597047E+02  0.60759430688E+02  0.00000000000E+00 0.  1.
         11    1    1    2    0    0  0.74798384789E+02 -0.81879431824E+01  0.76052909236E+02  0.10698544660E+03  0.00000000000E+00 0. -1.
</event>
<event>
 7    1  0.2690635E-009  0.1347729E+03  0.7561462E-02  0.1220541E+00
         -1   -1    0    0    0  501 -0.00000000000E+00  0.00000000000E+00  0.20673464075E+03  0.20673464075E+03  0.00000000000E+00 0.  1.
          1   -1    0    0  501    0  0.00000000000E+00 -0.00000000000E+00 -0.97829944963E+02  0.97829944963E+02  0.00000000000E+00 0. -1.
         25    2    1    2    0    0  0.79772814957E+02  0.43910391181E+02  0.76620648141E+02  0.17266179375E+03  0.12509814883E+03 0.  0.
          5    1    3    3  502    0 -0.27563687251E+02  0.15200187535E+02 -0.82220791497E+01  0.32800572274E+02  0.41800000000E+01 0. -1.
         -5    1    3    3    0  502  0.10733650221E+03  0.28710203646E+02  0.84842727291E+02  0.13986122148E+03  0.41800000000E+01 0. -1.
        -11    1    1    2    0    0  0.16450648610E+02  0.68415144061E+01  0.11334980989E+02  0.21116627408E+02  0.00000000000E+00 0.  1.
         11    1    1    2    0    0 -0.96223463567E+02 -0.50751905587E+02  0.20949066653E+02  0.11078616455E+03  0.00000000000E+00 0. -1.
</event>
<event>
 7    1  0.2690635E-009  0.1195457E+03  0.7561462E-02  0.1243848E+00
         -2   -1    0    0    0  501 -0.00000000000E+00  0.00000000000E+00  0.29679170451E+03  0.29679170451E+03  0.00000000000E+00 0.  1.
          2   -1    0    0  501    0  0.00000000000E+00 -0.00000000000E+00 -0.66368561611E+02  0.66368561611E+02  0.00000000000E+00 0. -1.
         25    2    1    2    0    0  0.82145294530E+01  0.59053334475E+02  0.20861136872E+03  0.25043232484E+03  0.12507146501E+03 0.  0.
          5    1    3    3  502    0 -0.33740232989E+02 -0.24669692671E+02  0.42874528602E+02  0.60022451312E+02  0.41800000000E+01 0. -1.
         -5    1    3    3    0  502  0.41954762442E+02  0.83723027145E+02  0.16573684011E+03  0.19040987353E+03  0.41800000000E+01 0. -1.
        -11    1    1    2    0    0 -0.36312594869E+02 -0.65156872121E+02  0.33398159677E+02  0.81727960947E+02  0.00000000000E+00 0.  1.
         11    1    1    2    0    0  0.28098065416E+02  0.61035376462E+01 -0.11586385495E+02  0.30999980335E+02  0.00000000000E+00 0. -1.
</event>
<event>
 7    1  0.2690635E-009  0.9607280E+02  0.7561462E-02  0.1288778E+00
          1   -1    0    0  501    0  0.00000000000E+00  0.00000000000E+00  0.37554574841E+03  0.37554574841E+03  0.00000000000E+00 0. -1.
         -1   -1    0    0    0  501 -0.00000000000E+00 -0.00000000000E+00 -0.43871414878E+02  0.43871414878E+02  0.00000000000E+00 0.  1.
         25    2    1    2    0    0 -0.26106962420E+02  0.33258134627E+02  0.27210248116E+03  0.30245008648E+03  0.12509443455E+03 0.  0.
          5    1    3    3  502    0  0.96689828383E+01 -0.26085247142E+02  0.78143605094E+01  0.29197020015E+02  0.41800000000E+01 0. -1.
         -5    1    3    3    0  502 -0.35775945259E+02  0.59343381769E+02  0.26428812065E+03  0.27325306647E+03  0.41800000000E+01 0. -1.
        -11    1    1    2    0    0  0.20608383257E+02  0.27066876199E+02  0.41688023595E+02  0.53807179436E+02  0.00000000000E+00 0.  1.
         11    1    1    2    0    0  0.54985791636E+01 -0.60325010827E+02  0.17883828784E+02  0.63159897372E+02  0.00000000000E+00 0. -1.
</event>
<event>
 7    1  0.2690635E-009  0.1589063E+03  0.7561462E-02  0.1189937E+00
          1   -1    0    0  501    0  0.00000000000E+00  0.00000000000E+00  0.17827530825E+03  0.17827530825E+03  0.00000000000E+00 0. -1.
         -1   -1    0    0    0  501 -0.00000000000E+00 -0.00000000000E+00 -0.18190576464E+03  0.18190576464E+03  0.00000000000E+00 0.  1.
         25    2    1    2    0    0 -0.12728794067E+03 -0.50979897001E+02  0.38932305490E+02  0.18964518752E+03  0.12509357697E+03 0.  0.
          5    1    3    3  502    0 -0.11882631216E+03 -0.83089944116E+02  0.51454154562E+02  0.15391112272E+03  0.41800000000E+01 0. -1.
         -5    1    3    3    0  502 -0.84616285105E+01  0.32110047115E+02 -0.12521849072E+02  0.35734064798E+02  0.41800000000E+01 0. -1.
        -11    1    1    2    0    0  0.48398610908E+02  0.32395368768E+02  0.26563671539E+02  0.64011827822E+02  0.00000000000E+00 0. -1.
         11    1    1    2    0    0  0.78889329763E+02  0.18584528233E+02 -0.69126433423E+02  0.10652405755E+03  0.00000000000E+00 0.  1.
</event>
<event>
 7    1  0.2690635E-009  0.1144294E+03  0.7561462E-02  0.1252580E+00
          2   -1    0    0  501    0  0.00000000000E+00  0.00000000000E+00  0.41984906713E+03  0.41984906713E+03  0.00000000000E+00 0. -1.
         -2   -1    0    0    0  501 -0.00000000000E+00 -0.00000000000E+00 -0.34763734236E+02  0.34763734236E+02  0.00000000000E+00 0.  1.
         25    2    1    2    0    0  0.52439161031E+02  0.10403558288E+02  0.19815495160E+03  0.24035656065E+03  0.12509113386E+03 0.  0.
          5    1    3    3  502    0  0.23158296641E+02  0.62336438608E+02  0.59343614029E+02  0.89225978323E+02  0.41800000000E+01 0. -1.
         -5    1    3    3    0  502  0.29280864390E+02 -0.51932880319E+02  0.13881133757E+03  0.15113058233E+03  0.41800000000E+01 0. -1.
        -11    1    1    2    0    0  0.19262171201E+02 -0.22639954644E+02  0.75985307291E+02  0.81592681717E+02  0.00000000000E+00 0.  1.
         11    1    1    2    0    0 -0.71701332232E+02  0.12236396356E+02  0.11094507401E+03  0.13266355900E+03  0.00000000000E+00 0. -1.
</event>
<event>
 7    1  0.2690635E-009  0.2947928E+03  0.7561462E-02  0.1087873E+00
         -2   -1    0    0    0  501 -0.00000000000E+00  0.00000000000E+00  0.36755016044E+03  0.36755016044E+03  0.00000000000E+00 0.  1.
          2   -1    0    0  501    0  0.00000000000E+00 -0.00000000000E+00 -0.24746493500E+03  0.24746493500E+03  0.00000000000E+00 0. -1.
         25    2    1    2    0    0 -0.24624708581E+02 -0.27732262681E+03  0.20529779319E+02  0.30591512312E+03  0.12509346545E+03 0.  0.
          5    1    3    3  502    0 -0.67996553328E+02 -0.17092027325E+03  0.42536879645E+02  0.18884948928E+03  0.41800000000E+01 0.  1.
         -5    1    3    3    0  502  0.43371844747E+02 -0.10640235356E+03 -0.22007100326E+02  0.11706563383E+03  0.41800000000E+01 0.  1.
        -11    1    1    2    0    0  0.40827907450E+02  0.59353835631E+02  0.40708582969E+02  0.82746507831E+02  0.00000000000E+00 0. -1.
         11    1    1    2    0    0 -0.16203198869E+02  0.21796879118E+03  0.58846863150E+02  0.22635346449E+03  0.00000000000E+00 0.  1.
</event>
<event>
 7    1  0.2690635E-009  0.3594794E+03  0.7561462E-02  0.1058790E+00
         -2   -1    0    0    0  501 -0.00000000000E+00  0.00000000000E+00  0.13257760780E+03  0.13257760780E+03  0.00000000000E+00 0.  1.
          2   -1    0    0  501    0  0.00000000000E+00 -0.00000000000E+00 -0.10323600156E+04  0.10323600156E+04  0.00000000000E+00 0. -1.
         25    2    1    2    0    0  0.26458928036E+03 -0.22995399267E+03 -0.52635065898E+03  0.64465688889E+03  0.12510460483E+03 0.  0.
          5    1    3    3  502    0 -0.25837484377E+00 -0.28199749523E+02 -0.99076168204E+01  0.30181549029E+02  0.41800000000E+01 0. -1.
         -5    1    3    3    0  502  0.26484765520E+03 -0.20175424315E+03 -0.51644304216E+03  0.61447533986E+03  0.41800000000E+01 0. -1.
        -11    1    1    2    0    0 -0.15282439295E+03  0.86417625659E+02 -0.22563421918E+03  0.28589176618E+03  0.00000000000E+00 0. -1.
         11    1    1    2    0    0 -0.11176488741E+03  0.14353636701E+03 -0.14779752964E+03  0.23438896834E+03  0.00000000000E+00 0.  1.
</event>
<event>
 7    1  0.2690635E-009  0.1055412E+03  0.7561462E-02  0.1269057E+00
          1   -1    0    0  501    0  0.00000000000E+00  0.00000000000E+00  0.27540253583E+03  0.27540253583E+03  0.00000000000E+00 0. -1.
         -1   -1    0    0    0  501 -0.00000000000E+00 -0.00000000000E+00 -0.60915774527E+02  0.60915774527E+02  0.00000000000E+00 0.  1.
         25    2    1    2    0    0 -0.54373702249E+02 -0.43498136175E+02  0.13023558858E+03  0.19354483107E+03  0.12509878399E+03 0.  0.
          5    1    3    3  502    0  0.16345174742E+02  0.13354668845E+02  0.92862109486E+02  0.95322377727E+02  0.41800000000E+01 0.  1.
         -5    1    3    3    0  502 -0.70718876992E+02 -0.56852805021E+02  0.37373479090E+02  0.98222453344E+02  0.41800000000E+01 0.  1.
        -11    1    1    2    0    0  0.62738436157E+02  0.91779084705E+01  0.86645518219E+02  0.10736755191E+03  0.00000000000E+00 0. -1.
         11    1    1    2    0    0 -0.83647339072E+01  0.34320227705E+02 -0.23943454930E+01  0.35405927377E+02  0.00000000000E+00 0.  1.
</event>
<event>
 7    1  0.2690635E-009  0.2005793E+03  0.7561462E-02  0.1149251E+00
          3   -1    0    0  501    0  0.00000000000E+00  0.00000000000E+00  0.18576003067E+02  0.18576003067E+02  0.00000000000E+00 0. -1.
         -3   -1    0    0    0  501 -0.00000000000E+00 -0.00000000000E+00 -0.24645910881E+04  0.24645910881E+04  0.00000000000E+00 0.  1.
         25    2    1    2    0    0 -0.33906158219E+02 -0.17189830445E+03 -0.15916526618E+04  0.16061455419E+04  0.12508657505E+03 0.  0.
          5    1    3    3  502    0  0.47210813594E+02 -0.76397839915E+02 -0.66004861917E+03  0.66614348525E+03  0.41800000000E+01 0.  1.
         -5    1    3    3    0  502 -0.81116971813E+02 -0.95500464539E+02 -0.93160404262E+03  0.94000205663E+03  0.41800000000E+01 0.  1.
        -11    1    1    2    0    0 -0.77256259238E+01  0.11562914384E+03 -0.66738764325E+03  0.67737437992E+03  0.00000000000E+00 0.  1.
         11    1    1    2    0    0  0.41631784142E+02  0.56269160611E+02 -0.18697477997E+03  0.19964716935E+03  0.00000000000E+00 0. -1.
</event>
<event>
 7    1  0.2690635E-009  0.2307007E+03  0.7561462E-02  0.1126148E+00
          1   -1    0    0  501    0  0.00000000000E+00  0.00000000000E+00  0.59265438009E+03  0.59265438009E+03  0.00000000000E+00 0. -1.
         -1   -1    0    0    0  501 -0.00000000000E+00 -0.00000000000E+00 -0.15665494510E+03  0.15665494510E+03  0.00000000000E+00 0.  1.
         25    2    1    2    0    0  0.71872741896E+02 -0.20629300831E+03  0.44596946980E+03  0.51211312469E+03  0.12509431716E+03 0.  0.
          5    1    3    3  502    0  0.56810093531E+02 -0.48273758978E+02  0.63597736101E+02  0.98081022477E+02  0.41800000000E+01 0.  1.
         -5    1    3    3    0  502  0.15062648364E+02 -0.15801924933E+03  0.38237173370E+03  0.41403210222E+03  0.41800000000E+01 0.  1.
        -11    1    1    2    0    0 -0.60992896050E+02  0.77172038414E+02  0.27813243110E+02  0.10222149174E+03  0.00000000000E+00 0. -1.
         11    1    1    2    0    0 -0.10879845845E+02  0.12912096989E+03 -0.37783277927E+02  0.13497470875E+03  0.00000000000E+00 0.  1.
</event>
<event>
 7    1  0.2690635E-009  0.1044909E+03  0.7561462E-02  0.1271126E+00
          3   -1    0    0  501    0  0.00000000000E+00  0.00000000000E+00  0.16108697144E+03  0.16108697144E+03  0.00000000000E+00 0. -1.
         -3   -1    0    0    0  501 -0.00000000000E+00 -0.00000000000E+00 -0.79698065300E+02  0.79698065300E+02  0.00000000000E+00 0.  1.
         25    2    1    2    0    0 -0.20839995654E+01  0.25864469655E+02  0.59279191619E+02  0.14083584376E+03  0.12508956185E+03 0.  0.
          5    1    3    3  502    0  0.50532388388E+02  0.42456972435E+02  0.53769447380E+02  0.85233459721E+02  0.41800000000E+01 0. -1.
         -5    1    3    3    0  502 -0.52616387953E+02 -0.16592502779E+02  0.55097442390E+01  0.55602384043E+02  0.41800000000E+01 0. -1.
        -11    1    1    2    0    0  0.39207446867E+02  0.46269303761E+01 -0.11731959804E+02  0.41185813763E+02  0.00000000000E+00 0.  1.
         11    1    1    2    0    0 -0.37123447301E+02 -0.30491400031E+02  0.33841674327E+02  0.58763379214E+02  0.00000000000E+00 0. -1.
</event>
<event>
 7    1  0.2690635E-009  0.8438588E+02  0.7561462E-02  0.1317046E+00
          1   -1    0    0  501    0  0.00000000000E+00  0.00000000000E+00  0.65157219139E+02  0.65157219139E+02  0.00000000000E+00 0. -1.
         -1   -1    0    0    0  501 -0.00000000000E+00 -0.00000000000E+00 -0.27944428174E+03  0.27944428174E+03  0.00000000000E+00 0.  1.
         25    2    1    2    0    0 -0.32163343046E+02 -0.64503599252E+02 -0.71900736743E+02  0.16128121714E+03  0.12508685025E+03 0.  0.
          5    1    3    3  502    0  0.46264913372E+00  0.11812829557E+02  0.28388881659E+02  0.31034786744E+02  0.41800000000E+01 0. -1.
         -5    1    3    3    0  502 -0.32625992180E+02 -0.76316428809E+02 -0.10028961840E+03  0.13024643040E+03  0.41800000000E+01 0. -1.
        -11    1    1    2    0    0  0.20498106029E+02  0.27292763140E+02 -0.14016434889E+03  0.14426056970E+03  0.00000000000E+00 0.  1.
         11    1    1    2    0    0  0.11665237017E+02  0.37210836112E+02 -0.22219769660E+01  0.39059714035E+02  0.00000000000E+00 0. -1.
</event>
<event>
 7    1  0.2690635E-009  0.1267807E+03  0.7561462E-02  0.1232312E+00
         -3   -1    0    0    0  501 -0.00000000000E+00  0.00000000000E+00  0.20691326847E+03  0.20691326847E+03  0.00000000000E+00 0.  1.
          3   -1    0    0  501    0  0.00000000000E+00 -0.00000000000E+00 -0.97510165861E+02  0.97510165861E+02  0.00000000000E+00 0. -1.
         25    2    1    2    0    0  0.65793618291E+02  0.25260394928E+02 -0.35903368454E+01  0.14362130648E+03  0.12508917378E+03 0.  0.
          5    1    3    3  502    0  0.10299346428E+03  0.17436757479E+02 -0.92963997181E+01  0.10495517921E+03  0.41800000000E+01 0. -1.
         -5    1    3    3    0  502 -0.37199845987E+02  0.78236374481E+01  0.57060628726E+01  0.38666127267E+02  0.41800000000E+01 0. -1.
        -11    1    1    2    0    0 -0.15461812599E+02  0.31392935770E+02  0.18211293632E+02  0.39449148037E+02  0.00000000000E+00 0. -1.
         11    1    1    2    0    0 -0.50331805693E+02 -0.56653330698E+02  0.94782145821E+02  0.12135297981E+03  0.00000000000E+00 0.  1.
</event>
<event>
 7    1  0.3139862E-009  0.6429600E+02  0.7561462E-02  0.1380639E+00
         -1   -1    0    0    0  501 -0.00000000000E+00  0.00000000000E+00  0.58824992054E+02  0.58824992054E+02  0.00000000000E+00 0.  1.
          1   -1    0    0  501    0  0.00000000000E+00 -0.00000000000E+00 -0.24558985854E+03  0.24558985854E+03  0.00000000000E+00 0. -1.
         25    2    1    2    0    0 -0.30368925976E+02  0.30790220238E+02 -0.67618254342E+02  0.14862600673E+03  0.12508857754E+03 0.  0.
          5    1    3    3  502    0 -0.43704161674E+02  0.23638685702E+02 -0.10049953133E+03  0.11218943536E+03  0.41800000000E+01 0.  1.
         -5    1    3    3    0  502  0.13335235697E+02  0.71515345363E+01  0.32881276985E+02  0.36436571374E+02  0.41800000000E+01 0.  1.
        -11    1    1    2    0    0  0.22927695499E+02 -0.43000672417E+02 -0.12934833517E+03  0.13822347434E+03  0.00000000000E+00 0. -1.
         11    1    1    2    0    0  0.74412304772E+01  0.12210452179E+02  0.10201723027E+02  0.17565369513E+02  0.00000000000E+00 0.  1.
</event>
<event>
 7    1  0.2690635E-009  0.8299305E+02  0.7561462E-02  0.1320766E+00
         -1   -1    0    0    0  501 -0.00000000000E+00  0.00000000000E+00  0.11091742995E+03  0.11091742995E+03  0.00000000000E+00 0.  1.
          1   -1    0    0  501    0  0.00000000000E+00 -0.00000000000E+00 -0.14104427270E+03  0.14104427270E+03  0.00000000000E+00 0. -1.
         25    2    1    2    0    0  0.22665341860E+02 -0.51648533276E+02 -0.47030302348E+02  0.14505609144E+03  0.12509249224E+03 0.  0.
          5    1    3    3  502    0  0.56662603462E+01 -0.99628966599E+00 -0.81191505849E+02  0.81502344270E+02  0.41800000000E+01 0.  1.
         -5    1    3    3    0  502  0.16999081514E+02 -0.50652243610E+02  0.34161203501E+02  0.63553747172E+02  0.41800000000E+01 0.  1.
        -11    1    1    2    0    0  0.34492311271E+02  0.17145632759E+02  0.24610883920E+01  0.38597269536E+02  0.00000000000E+00 0.  1.
         11    1    1    2    0    0 -0.57157653131E+02  0.34502900516E+02  0.14442371204E+02  0.68308341668E+02  0.00000000000E+00 0. -1.
</event>
<event>
 7    1  0.2690635E-009  0.2034199E+03  0.7561462E-02  0.1146885E+00
          2   -1    0    0  501    0  0.00000000000E+00  0.00000000000E+00  0.45807526294E+03  0.45807526294E+03  0.00000000000E+00 0. -1.
         -2   -1    0    0    0  501 -0.00000000000E+00 -0.00000000000E+00 -0.10870351886E+03  0.10870351886E+03  0.00000000000E+00 0.  1.
         25    2    1    2    0    0  0.15252880597E+03 -0.12083323297E+03  0.15676048363E+03  0.27944034628E+03  0.12508937230E+03 0.  0.
          5    1    3    3  502    0  0.68053180966E+02 -0.10252138997E+03  0.14791166943E+03  0.19245052661E+03  0.41800000000E+01 0. -1.
         -5    1    3    3    0  502  0.84475625002E+02 -0.18311843003E+02  0.88488142040E+01  0.86989819671E+02  0.41800000000E+01 0. -1.
        -11    1    1    2    0    0 -0.12885055435E+03  0.85474600891E+02  0.96597629195E+02  0.18231696224E+03  0.00000000000E+00 0.  1.
         11    1    1    2    0    0 -0.23678251622E+02  0.35358632079E+02  0.96013631263E+02  0.10502147328E+03  0.00000000000E+00 0. -1.
</event>
<event>
 7    1  0.2690635E-009  0.9184129E+02  0.7561462E-02  0.1298453E+00
          2   -1    0    0  501    0  0.00000000000E+00  0.00000000000E+00  0.31610351663E+02  0.31610351663E+02  0.00000000000E+00 0. -1.
         -2   -1    0    0    0  501 -0.00000000000E+00 -0.00000000000E+00 -0.51233431048E+03  0.51233431048E+03  0.00000000000E+00 0.  1.
         25    2    1    2    0    0  0.62709644126E+02 -0.12843405902E+02 -0.23786807493E+03  0.27627186397E+03  0.12508984454E+03 0.  0.
          5    1    3    3  502    0  0.18915764260E+02 -0.18812166248E+02  0.66058543330E+01  0.27799522441E+02  0.41800000000E+01 0. -1.
         -5    1    3    3    0  502  0.43793879866E+02  0.59687603460E+01 -0.24447392927E+03  0.24847234153E+03  0.41800000000E+01 0. -1.
        -11    1    1    2    0    0  0.22032274517E+02 -0.10469340089E+02 -0.45353979038E+02  0.51497685549E+02  0.00000000000E+00 0.  1.
         11    1    1    2    0    0 -0.84741918643E+02  0.23312745991E+02 -0.19750190485E+03  0.21617511263E+03  0.00000000000E+00 0. -1.
</event>
<event>
 7    1  0.2690635E-009  0.1333173E+03  0.7561462E-02  0.1222615E+00
         -4   -1    0    0    0  501 -0.00000000000E+00  0.00000000000E+00  0.14198851280E+02  0.14198851280E+02  0.00000000000E+00 0.  1.
          4   -1    0    0  501    0  0.00000000000E+00 -0.00000000000E+00 -0.13798789005E+04  0.13798789005E+04  0.00000000000E+00 0. -1.
         25    2    1    2    0    0  0.10093837934E+02  0.87123237304E+02 -0.83216961981E+03  0.84607714779E+03  0.12509164574E+03 0.  0.
          5    1    3    3  502    0  0.53841164391E+02 -0.13125248781E+01 -0.29174930446E+03  0.29670814407E+03  0.41800000000E+01 0. -1.
         -5    1    3    3    0  502 -0.43747326456E+02  0.88435762182E+02 -0.54042031535E+03  0.54936900372E+03  0.41800000000E+01 0. -1.
        -11    1    1    2    0    0 -0.26018961313E+02 -0.93240505536E+02 -0.50908882189E+03  0.51821058152E+03  0.00000000000E+00 0. -1.
         11    1    1    2    0    0  0.15925123378E+02  0.61172682314E+01 -0.24421607514E+02  0.29790022470E+02  0.00000000000E+00 0.  1.
</event>
<event>
 7    1  0.2690635E-009  0.8984006E+02  0.7561462E-02  0.1303239E+00
          1   -1    0    0  501    0  0.00000000000E+00  0.00000000000E+00  0.16952399211E+03  0.16952399211E+03  0.00000000000E+00 0. -1.
         -1   -1    0    0    0  501 -0.00000000000E+00 -0.00000000000E+00 -0.11989865221E+03  0.11989865221E+03  0.00000000000E+00 0.  1.
         25    2    1    2    0    0 -0.48252220614E+02 -0.27483835308E+02  0.98032737301E+02  0.16835012846E+03  0.12509080770E+03 0.  0.
          5    1    3    3  502    0 -0.42278335660E+02 -0.43116443639E+02 -0.78804914844E+01  0.61041460699E+02  0.41800000000E+01 0.  1.
         -5    1    3    3    0  502 -0.59738849547E+01  0.15632608331E+02  0.10591322879E+03  0.10730866776E+03  0.41800000000E+01 0.  1.
        -11    1    1    2    0    0 -0.24758160185E+02  0.10780724027E+02  0.70149803355E+01  0.27899828949E+02  0.00000000000E+00 0. -1.
         11    1    1    2    0    0  0.73010380800E+02  0.16703111281E+02 -0.55422377740E+02  0.93172686907E+02  0.00000000000E+00 0.  1.
</event>
<event>
 7    1  0.2690635E-009  0.1303285E+03  0.7561462E-02  0.1226969E+00
          2   -1    0    0  501    0  0.00000000000E+00  0.00000000000E+00  0.80528286520E+03  0.80528286520E+03  0.00000000000E+00 0. -1.
         -2   -1    0    0    0  501 -0.00000000000E+00 -0.00000000000E+00 -0.43357880248E+02  0.43357880248E+02  0.00000000000E+00 0.  1.
         25    2    1    2    0    0  0.94655085734E+02  0.17914391782E+02  0.66356376003E+03  0.68208839117E+03  0.12508876473E+03 0.  0.
          5    1    3    3  502    0  0.48496413877E+02 -0.36443540578E+02  0.49897107721E+03  0.50266255291E+03  0.41800000000E+01 0. -1.
         -5    1    3    3    0  502  0.46158671857E+02  0.54357932360E+02  0.16459268282E+03  0.17942583826E+03  0.41800000000E+01 0. -1.
        -11    1    1    2    0    0  0.15271779149E+02 -0.98934609785E+01 -0.90871009091E+00  0.18219043953E+02  0.00000000000E+00 0.  1.
         11    1    1    2    0    0 -0.10992686488E+03 -0.80209308040E+01  0.99269935022E+02  0.14833331033E+03  0.00000000000E+00 0. -1.
</event>
<event>
 7    1  0.2690635E-009  0.7793179E+02  0.7561462E-02  0.1335025E+00
          1   -1    0    0  501    0  0.00000000000E+00  0.00000000000E+00  0.27530042438E+03  0.27530042438E+03  0.00000000000E+00 0. -1.
         -1   -1    0    0    0  501 -0.00000000000E+00 -0.00000000000E+00 -0.57553254464E+02  0.57553254464E+02  0.00000000000E+00 0.  1.
         25    2    1    2    0    0 -0.59280861856E+01  0.43920341419E+01  0.20477019481E+03  0.24006945018E+03  0.12509227017E+03 0.  0.
          5    1    3    3  502    0  0.32972959350E+02  0.34221047323E+01  0.19085229456E+01  0.33467024202E+02  0.41800000000E+01 0.  1.
         -5    1    3    3    0  502 -0.38901045535E+02  0.96992940964E+00  0.20286167187E+03  0.20660242598E+03  0.41800000000E+01 0.  1.
        -11    1    1    2    0    0 -0.22104725654E+01  0.39051861809E+02  0.25685312004E+02  0.46793902941E+02  0.00000000000E+00 0. -1.
         11    1    1    2    0    0  0.81385587510E+01 -0.43443895950E+02 -0.12708336897E+02  0.45990325728E+02  0.00000000000E+00 0.  1.
</event>
<event>
 7    1  0.2690635E-009  0.1904838E+03  0.7561462E-02  0.1158026E+00
          1   -1    0    0  501    0  0.00000000000E+00  0.00000000000E+00  0.16188305165E+04  0.16188305165E+04  0.00000000000E+00 0. -1.
         -1   -1    0    0    0  501 -0.00000000000E+00 -0.00000000000E+00 -0.23576048007E+02  0.23576048007E+02  0.00000000000E+00 0.  1.
         25    2    1    2    0    0 -0.39891858919E+02  0.69605652997E+02  0.60842243183E+03  0.62630768986E+03  0.12508860653E+03 0.  0.
          5    1    3    3  502    0  0.70800861656E+01 -0.33019328312E+02  0.18371363223E+03  0.18683836525E+03  0.41800000000E+01 0.  1.
         -5    1    3    3    0  502 -0.46971945085E+02  0.10262498131E+03  0.42470879959E+03  0.43946932460E+03  0.41800000000E+01 0.  1.
        -11    1    1    2    0    0  0.12824899681E+03 -0.69015291500E+02  0.73297285379E+03  0.74730189351E+03  0.00000000000E+00 0.  1.
         11    1    1    2    0    0 -0.88357137889E+02 -0.59036149759E+00  0.25385918287E+03  0.26879698114E+03  0.00000000000E+00 0. -1.
</event>
<event>
 7    1  0.2690635E-009  0.1185830E+03  0.7561462E-02  0.1245453E+00
         -1   -1    0    0    0  501 -0.00000000000E+00  0.00000000000E+00  0.48478820615E+02  0.48478820615E+02  0.00000000000E+00 0.  1.
          1   -1    0    0  501    0  0.00000000000E+00 -0.00000000000E+00 -0.31099972860E+03  0.31099972860E+03  0.00000000000E+00 0. -1.
         25    2    1    2    0    0 -0.49879744287E+02  0.21863214039E+02 -0.17341431762E+03  0.22065003017E+03  0.12509165137E+03 0.  0.
          5    1    3    3  502    0  0.74898024837E+01 -0.45344074133E+02 -0.77260552484E+02  0.89993597385E+02  0.41800000000E+01 0.  1.
         -5    1    3    3    0  502 -0.57369546771E+02  0.67207288172E+02 -0.96153765131E+02  0.13065643279E+03  0.41800000000E+01 0.  1.
        -11    1    1    2    0    0 -0.26917341091E+01  0.29166429497E+02 -0.43784024687E+02  0.52677954212E+02  0.00000000000E+00 0. -1.
         11    1    1    2    0    0  0.52571478396E+02 -0.51029643537E+02 -0.45322565682E+02  0.86150564828E+02  0.00000000000E+00 0.  1.
</event>
<event>
 7    1  0.2690635E-009  0.6445375E+02  0.7561462E-02  0.1380038E+00
          1   -1    0    0  501    0  0.00000000000E+00  0.00000000000E+00  0.18754021613E+03  0.18754021613E+03  0.00000000000E+00 0. -1.
         -1   -1    0    0    0  501 -0.00000000000E+00 -0.00000000000E+00 -0.70301541908E+02  0.70301541908E+02  0.00000000000E+00 0.  1.
         25    2    1    2    0    0 -0.21398199427E+02 -0.18384459598E+02  0.34527092223E+02  0.13280453524E+03  0.12509617576E+03 0.  0.
          5    1    3    3  502    0 -0.23975687706E+02 -0.10452977305E+02 -0.45277848628E+02  0.52456213282E+02  0.41800000000E+01 0. -1.
         -5    1    3    3    0  502  0.25774882792E+01 -0.79314822930E+01  0.79804940851E+02  0.80348321957E+02  0.41800000000E+01 0. -1.
        -11    1    1    2    0    0  0.53256802442E+02 -0.51178313808E+01  0.40015444913E+02  0.66811039777E+02  0.00000000000E+00 0. -1.
         11    1    1    2    0    0 -0.31858603015E+02  0.23502290979E+02  0.42696137088E+02  0.58226183024E+02  0.00000000000E+00 0.  1.
</event>
<event>
 7    1  0.2690635E-009  0.1291062E+03  0.7561462E-02  0.1228788E+00
         -2   -1    0    0    0  501 -0.00000000000E+00  0.00000000000E+00  0.58746330219E+02  0.58746330219E+02  0.00000000000E+00 0.  1.
          2   -1    0    0  501    0  0.00000000000E+00 -0.00000000000E+00 -0.35454658402E+03  0.35454658402E+03  0.00000000000E+00 0. -1.
         25    2    1    2    0    0  0.40821483793E+02  0.81949743505E+02 -0.12395076351E+03  0.19847753109E+03  0.12508950624E+03 0.  0.
          5    1    3    3  502    0  0.61836949212E+02  0.20500095979E+02 -0.83431711580E+01  0.65811420954E+02  0.41800000000E+01 0.  1.
         -5    1    3    3    0  502 -0.21015465420E+02  0.61449647525E+02 -0.11560759236E+03  0.13266611013E+03  0.41800000000E+01 0.  1.
        -11    1    1    2    0    0 -0.47056085668E+02 -0.14142651443E+01 -0.50502646330E+02  0.69041962824E+02  0.00000000000E+00 0.  1.
         11    1    1    2    0    0  0.62346018752E+01 -0.80535478360E+02 -0.12134684396E+03  0.14577342033E+03  0.00000000000E+00 0. -1.
</event>
<event>
 7    1  0.2690635E-009  0.1829571E+03  0.7561462E-02  0.1164971E+00
         -2   -1    0    0    0  501 -0.00000000000E+00  0.00000000000E+00  0.22170641275E+03  0.22170641275E+03  0.00000000000E+00 0.  1.
          2   -1    0    0  501    0  0.00000000000E+00 -0.00000000000E+00 -0.23456927474E+03  0.23456927474E+03  0.00000000000E+00 0. -1.
         25    2    1    2    0    0 -0.17051499197E+03 -0.13099632736E+02 -0.11072099509E+03  0.23906797249E+03  0.12508954334E+03 0.  0.
          5    1    3    3  502    0 -0.87039395674E+02  0.24087206582E+02  0.61913785817E+01  0.90619288725E+02  0.41800000000E+01 0.  1.
         -5    1    3    3    0  502 -0.83475596295E+02 -0.37186839318E+02 -0.11691237367E+03  0.14844868377E+03  0.41800000000E+01 0.  1.
        -11    1    1    2    0    0  0.13471339215E+03  0.38527241676E+02  0.10169206150E+03  0.17312805015E+03  0.00000000000E+00 0.  1.
         11    1    1    2    0    0  0.35801599814E+02 -0.25427608940E+02 -0.38339284022E+01  0.44079664843E+02  0.00000000000E+00 0. -1.
</event>
<event>
 7    1  0.2690635E-009  0.9641117E+02  0.7561462E-02  0.1288029E+00
          1   -1    0    0  501    0  0.00000000000E+00  0.00000000000E+00  0.65121518279E+03  0.65121518279E+03  0.00000000000E+00 0. -1.
         -1   -1    0    0    0  501 -0.00000000000E+00 -0.00000000000E+00 -0.19430553560E+02  0.19430553560E+02  0.00000000000E+00 0.  1.
         25    2    1    2    0    0 -0.12379511014E+01 -0.10702755338E+02  0.40866345632E+03  0.42751584599E+03  0.12509155268E+03 0.  0.
          5    1    3    3  502    0  0.55943460184E+02 -0.86524841059E+01  0.29250935709E+03  0.29796599236E+03  0.41800000000E+01 0.  1.
         -5    1    3    3    0  502 -0.57181411286E+02 -0.20502712326E+01  0.11615409923E+03  0.12954985363E+03  0.41800000000E+01 0.  1.
        -11    1    1    2    0    0 -0.38252389028E+02  0.81861612658E+01  0.40641595348E+02  0.56409199384E+02  0.00000000000E+00 0.  1.
         11    1    1    2    0    0  0.39490340129E+02  0.25165940727E+01  0.18247957757E+03  0.18672069098E+03  0.00000000000E+00 0. -1.
</event>
<event>
 7    1  0.2690635E-009  0.1139140E+03  0.7561462E-02  0.1253489E+00
          1   -1    0    0  501    0  0.00000000000E+00  0.00000000000E+00  0.73695059726E+03  0.73695059726E+03  0.00000000000E+00 0. -1.
         -1   -1    0    0    0  501 -0.00000000000E+00 -0.00000000000E+00 -0.38183695123E+02  0.38183695123E+02  0.00000000000E+00 0.  1.
         25    2    1    2    0    0  0.57649770784E+02 -0.31079812531E+02  0.62008927302E+03  0.63596155254E+03  0.12508772512E+03 0.  0.
          5    1    3    3  502    0  0.31080784780E+02  0.33208313677E+02  0.86295227889E+02  0.97637830968E+02  0.41800000000E+01 0.  1.
         -5    1    3    3    0  502  0.26568986004E+02 -0.64288126207E+02  0.53379404513E+03  0.53832372157E+03  0.41800000000E+01 0.  1.
        -11    1    1    2    0    0 -0.26468398485E+02  0.62698961194E+02  0.33614845861E+02  0.75905821354E+02  0.00000000000E+00 0.  1.
         11    1    1    2    0    0 -0.31181372299E+02 -0.31619148663E+02  0.45062783264E+02  0.63266918497E+02  0.00000000000E+00 0. -1.
</event>
<event>
 7    1  0.2690635E-009  0.8655884E+02  0.7561462E-02  0.1311406E+00
          1   -1    0    0  501    0  0.00000000000E+00  0.00000000000E+00  0.10578901146E+03  0.10578901146E+03  0.00000000000E+00 0. -1.
         -1   -1    0    0    0  501 -0.00000000000E+00 -0.00000000000E+00 -0.12291787066E+03  0.12291787066E+03  0.00000000000E+00 0.  1.
         25    2    1    2    0    0  0.29167275763E+02 -0.11672565249E+02  0.77890780526E+01  0.12921103535E+03  0.12509133928E+03 0.  0.
          5    1    3    3  502    0 -0.23540701294E+02  0.29718539582E+01  0.52935164273E+02  0.58160128525E+02  0.41800000000E+01 0.  1.
         -5    1    3    3    0  502  0.52707977056E+02 -0.14644419207E+02 -0.45146086221E+02  0.71050906823E+02  0.41800000000E+01 0.  1.
        -11    1    1    2    0    0 -0.42082209478E+02  0.43067001450E+02 -0.25869126461E+02  0.65535415405E+02  0.00000000000E+00 0.  1.
         11    1    1    2    0    0  0.12914933715E+02 -0.31394436201E+02  0.95118920883E+00  0.33960431360E+02  0.00000000000E+00 0. -1.
</event>
<event>
 7    1  0.2690635E-009  0.1060024E+03  0.7561462E-02  0.1268157E+00
         -2   -1    0    0    0  501 -0.00000000000E+00  0.00000000000E+00  0.10452933028E+03  0.10452933028E+03  0.00000000000E+00 0.  1.
          2   -1    0    0  501    0  0.00000000000E+00 -0.00000000000E+00 -0.17110407675E+03  0.17110407675E+03  0.00000000000E+00 0. -1.
         25    2    1    2    0    0 -0.47621929820E+02 -0.58063814924E+02 -0.56451921330E+02  0.15643082476E+03  0.12507809044E+03 0.  0.
          5    1    3    3  502    0 -0.13753520498E+01  0.13225029331E+02  0.31265516765E+02  0.34231534185E+02  0.41800000000E+01 0.  1.
         -5    1    3    3    0  502 -0.46246577770E+02 -0.71288844255E+02 -0.87717438095E+02  0.12219929057E+03  0.41800000000E+01 0.  1.
        -11    1    1    2    0    0  0.63944456225E+02  0.13260947318E+02  0.12392754421E+02  0.66470493965E+02  0.00000000000E+00 0. -1.
         11    1    1    2    0    0 -0.16322526406E+02  0.44802867606E+02 -0.22515579559E+02  0.52732088303E+02  0.00000000000E+00 0.  1.
</event>
<event>
 7    1  0.2690635E-009  0.9936875E+02  0.7561462E-02  0.1281629E+00
         -2   -1    0    0    0  501 -0.00000000000E+00  0.00000000000E+00  0.22239810907E+03  0.22239810907E+03  0.00000000000E+00 0.  1.
          2   -1    0    0  501    0  0.00000000000E+00 -0.00000000000E+00 -0.92750554956E+02  0.92750554956E+02  0.00000000000E+00 0. -1.
         25    2    1    2    0    0 -0.13635849376E+02 -0.58974487709E+02 -0.66211321503E+01  0.13913984503E+03  0.12510847491E+03 0.  0.
          5    1    3    3  502    0 -0.47367132940E+02  0.17801871028E+02 -0.19112264607E+02  0.54252216116E+02  0.41800000000E+01 0.  1.
         -5    1    3    3    0  502  0.33731283564E+02 -0.76776358737E+02  0.12491132457E+02  0.84887628909E+02  0.41800000000E+01 0.  1.
        -11    1    1    2    0    0 -0.52614698646E+01  0.20073890754E+02 -0.10317981214E+02  0.23175523543E+02  0.00000000000E+00 0. -1.
         11    1    1    2    0    0  0.18897319241E+02  0.38900596955E+02  0.14658666748E+03  0.15283329546E+03  0.00000000000E+00 0.  1.
</event>
<event>
 7    1  0.2690635E-009  0.2269057E+03  0.7561462E-02  0.1128837E+00
          2   -1    0    0  501    0  0.00000000000E+00  0.00000000000E+00  0.13245776083E+04  0.13245776083E+04  0.00000000000E+00 0. -1.
         -2   -1    0    0    0  501 -0.00000000000E+00 -0.00000000000E+00 -0.61376701391E+02  0.61376701391E+02  0.00000000000E+00 0.  1.
         25    2    1    2    0    0  0.19936103905E+03 -0.83105726983E+02  0.27871449977E+03  0.37414165485E+03  0.12509524278E+03 0.  0.
          5    1    3    3  502    0  0.17292212156E+03 -0.54648133256E+02  0.13750117035E+03  0.22762364297E+03  0.41800000000E+01 0. -1.
         -5    1    3    3    0  502  0.26438917487E+02 -0.28457593728E+02  0.14121332943E+03  0.14651801188E+03  0.41800000000E+01 0. -1.
        -11    1    1    2    0    0 -0.12807615832E+02  0.39826591583E+02  0.16027656664E+03  0.16564652195E+03  0.00000000000E+00 0. -1.
         11    1    1    2    0    0 -0.18655342321E+03  0.43279135400E+02  0.82420984053E+03  0.84616613292E+03  0.00000000000E+00 0.  1.
</event>
<event>
 7    1  0.2690635E-009  0.1150514E+03  0.7561462E-02  0.1251491E+00
         -2   -1    0    0    0  501 -0.00000000000E+00  0.00000000000E+00  0.52733328383E+02  0.52733328383E+02  0.00000000000E+00 0.  1.
          2   -1    0    0  501    0  0.00000000000E+00 -0.00000000000E+00 -0.42643087333E+03  0.42643087333E+03  0.00000000000E+00 0. -1.
         25    2    1    2    0    0 -0.13068601784E+02 -0.85444402396E+02 -0.29435878028E+03  0.33130849802E+03  0.12508675022E+03 0.  0.
          5    1    3    3  502    0 -0.30502151729E+02 -0.17455668870E+02 -0.23956972119E+03  0.24216978619E+03  0.41800000000E+01 0.  1.
         -5    1    3    3    0  502  0.17433549945E+02 -0.67988733526E+02 -0.54789059097E+02  0.89138711831E+02  0.41800000000E+01 0.  1.
        -11    1    1    2    0    0 -0.38029943061E+02  0.46967601577E+02 -0.32880442104E+02  0.68799386917E+02  0.00000000000E+00 0. -1.
         11    1    1    2    0    0  0.51098544845E+02  0.38476800819E+02 -0.46458322560E+02  0.79056316772E+02  0.00000000000E+00 0.  1.
</event>
<event>
 7    1  0.2997349E-009  0.9226236E+02  0.7561462E-02  0.1297464E+00
         -4   -1    0    0    0  501 -0.00000000000E+00  0.00000000000E+00  0.14181661063E+03  0.14181661063E+03  0.00000000000E+00 0.  1.
          4   -1    0    0  501    0  0.00000000000E+00 -0.00000000000E+00 -0.10115950166E+03  0.10115950166E+03  0.00000000000E+00 0. -1.
         25    2    1    2    0    0  0.23024777461E+01 -0.13095812962E+02 -0.26419580874E+02  0.12853245995E+03  0.12508316148E+03 0.  0.
          5    1    3    3  502    0  0.41935927311E+02 -0.53619897830E+02 -0.21379095620E+02  0.71472047489E+02  0.41800000000E+01 0. -1.
         -5    1    3    3    0  502 -0.39633449564E+02  0.40524084868E+02 -0.50404852536E+01  0.57060412462E+02  0.41800000000E+01 0. -1.
        -11    1    1    2    0    0 -0.23482524182E+02  0.25722735916E+02  0.79527636164E+02  0.86820118629E+02  0.00000000000E+00 0.  1.
         11    1    1    2    0    0  0.21180046436E+02 -0.12626922954E+02 -0.12450946314E+02  0.27623533706E+02  0.00000000000E+00 0. -1.
</event>
<event>
 7    1  0.2690635E-009  0.8437605E+02  0.7561462E-02  0.1317072E+00
          1   -1    0    0  501    0  0.00000000000E+00  0.00000000000E+00  0.67250905533E+03  0.67250905533E+03  0.00000000000E+00 0. -1.
         -1   -1    0    0    0  501 -0.00000000000E+00 -0.00000000000E+00 -0.20396990958E+02  0.20396990958E+02  0.00000000000E+00 0.  1.
         25    2    1    2    0    0 -0.24840731989E+02 -0.34831891664E+02  0.41409690979E+03  0.43468837163E+03  0.12508959625E+03 0.  0.
          5    1    3    3  502    0  0.17795047389E+02 -0.19966099309E+02  0.37146132582E+03  0.37244636904E+03  0.41800000000E+01 0. -1.
         -5    1    3    3    0  502 -0.42635779378E+02 -0.14865792355E+02  0.42635583970E+02  0.62242002587E+02  0.41800000000E+01 0. -1.
        -11    1    1    2    0    0  0.49847411315E+02 -0.41530866583E+01  0.15840401100E+03  0.16611394657E+03  0.00000000000E+00 0. -1.
         11    1    1    2    0    0 -0.25006679327E+02  0.38984978322E+02  0.79611143585E+02  0.92103728093E+02  0.00000000000E+00 0.  1.
</event>
<event>
 7    1  0.2690635E-009  0.1214401E+03  0.7561462E-02  0.1240740E+00
         -1   -1    0    0    0  501 -0.00000000000E+00  0.00000000000E+00  0.21927951635E+02  0.21927951635E+02  0.00000000000E+00 0.  1.
          1   -1    0    0  501    0  0.00000000000E+00 -0.00000000000E+00 -0.82881420602E+03  0.82881420602E+03  0.00000000000E+00 0. -1.
         25    2    1    2    0    0 -0.20548731039E+02 -0.64448486687E+02 -0.38961418109E+03  0.41475609010E+03  0.12509015302E+03 0.  0.
          5    1    3    3  502    0  0.38974912706E+02 -0.71431208957E+02 -0.24359959871E+03  0.25686513645E+03  0.41800000000E+01 0.  1.
         -5    1    3    3    0  502 -0.59523643745E+02  0.69827222708E+01 -0.14601458238E+03  0.15789095365E+03  0.41800000000E+01 0.  1.
        -11    1    1    2    0    0  0.48744979697E+02  0.49239938978E+02 -0.38242375616E+03  0.38864968019E+03  0.00000000000E+00 0. -1.
         11    1    1    2    0    0 -0.28196248659E+02  0.15208547708E+02 -0.34848317127E+02  0.47336387361E+02  0.00000000000E+00 0.  1.
</event>
<event>
 7    1  0.2690635E-009  0.1048158E+03  0.7561462E-02  0.1270483E+00
         -2   -1    0    0    0  501 -0.00000000000E+00  0.00000000000E+00  0.47932157075E+02  0.47932157075E+02  0.00000000000E+00 0.  1.
          2   -1    0    0  501    0  0.00000000000E+00 -0.00000000000E+00 -0.28310449394E+03  0.28310449394E+03  0.00000000000E+00 0. -1.
         25    2    1    2    0    0 -0.29873517674E+02 -0.18529695983E+02 -0.16516729639E+03  0.21015140614E+03  0.12509037139E+03 0.  0.
          5    1    3    3  502    0  0.24396962419E+02 -0.56899215400E+02 -0.64960474208E+02  0.89833557749E+02  0.41800000000E+01 0.  1.
         -5    1    3    3    0  502 -0.54270480092E+02  0.38369519417E+02 -0.10020682218E+03  0.12031784839E+03  0.41800000000E+01 0.  1.
        -11    1    1    2    0    0  0.93628638935E+01  0.45865180466E+02 -0.72848859471E+02  0.86592345653E+02  0.00000000000E+00 0. -1.
         11    1    1    2    0    0  0.20510653780E+02 -0.27335484483E+02  0.28438189991E+01  0.34292899220E+02  0.00000000000E+00 0.  1.
</event>
<event>
 7    1  0.2690635E-009  0.1255501E+03  0.7561462E-02  0.1234212E+00
          2   -1    0    0  501    0  0.00000000000E+00  0.00000000000E+00  0.48083383984E+03  0.48083383984E+03  0.00000000000E+00 0. -1.
         -2   -1    0    0    0  501 -0.00000000000E+00 -0.00000000000E+00 -0.64542859472E+02  0.64542859472E+02  0.00000000000E+00 0.  1.
         25    2    1    2    0    0 -0.51865738542E+02 -0.88345691349E+02  0.36679782550E+03  0.40085251205E+03  0.12508827128E+03 0.  0.
          5    1    3    3  502    0  0.15816428216E+02 -0.75759536429E+02  0.27691968919E+03  0.28756156457E+03  0.41800000000E+01 0. -1.
         -5    1    3    3    0  502 -0.67682166758E+02 -0.12586154920E+02  0.89878136314E+02  0.11329094748E+03  0.41800000000E+01 0. -1.
        -11    1    1    2    0    0  0.48646213350E+02  0.65686138491E+02  0.74520788917E+02  0.11060954228E+03  0.00000000000E+00 0. -1.
         11    1    1    2    0    0  0.32195251921E+01  0.22659552858E+02 -0.25027634048E+02  0.33914644982E+02  0.00000000000E+00 0.  1.
</event>
<event>
 7    1  0.2690635E-009  0.1852158E+03  0.7561462E-02  0.1162849E+00
          2   -1    0    0  501    0  0.00000000000E+00  0.00000000000E+00  0.10410340461E+04  0.10410340461E+04  0.00000000000E+00 0. -1.
         -2   -1    0    0    0  501 -0.00000000000E+00 -0.00000000000E+00 -0.63858129698E+02  0.63858129698E+02  0.00000000000E+00 0.  1.
         25    2    1    2    0    0  0.12438364567E+03  0.10684370315E+03  0.85923379078E+03  0.88363886580E+03  0.12509224484E+03 0.  0.
          5    1    3    3  502    0  0.14275468900E+03  0.84050793573E+02  0.80487457441E+03  0.82175664893E+03  0.41800000000E+01 0.  1.
         -5    1    3    3    0  502 -0.18371043330E+02  0.22792909576E+02  0.54359216372E+02  0.61882216869E+02  0.41800000000E+01 0.  1.
        -11    1    1    2    0    0 -0.59678375644E+02 -0.90506072529E+02  0.10932436094E+03  0.15396322151E+03  0.00000000000E+00 0. -1.
         11    1    1    2    0    0 -0.64705270022E+02 -0.16337630620E+02  0.86177647046E+01  0.67290088508E+02  0.00000000000E+00 0.  1.
</event>
<event>
 7    1  0.2690635E-009  0.9619869E+02  0.7561462E-02  0.1288499E+00
          2   -1    0    0  501    0  0.00000000000E+00  0.00000000000E+00  0.48405502351E+03  0.48405502351E+03  0.00000000000E+00 0. -1.
         -2   -1    0    0    0  501 -0.00000000000E+00 -0.00000000000E+00 -0.29052768703E+02  0.29052768703E+02  0.00000000000E+00 0.  1.
         25    2    1    2    0    0 -0.11203079663E+02  0.19660071430E+02  0.33553783300E+03  0.35881108952E+03  0.12509089970E+03 0.  0.
          5    1    3    3  502    0  0.14545019431E+01  0.56901502837E+02  0.30080325189E+03  0.30616983089E+03  0.41800000000E+01 0. -1.
         -5    1    3    3    0  502 -0.12657581606E+02 -0.37241431407E+02  0.34734581114E+02  0.52641258634E+02  0.41800000000E+01 0. -1.
        -11    1    1    2    0    0  0.17612050918E+02  0.35822223509E+02  0.35301535774E+02  0.53288033015E+02  0.00000000000E+00 0.  1.
         11    1    1    2    0    0 -0.64089712545E+01 -0.55482294938E+02  0.84162886031E+02  0.10100866967E+03  0.00000000000E+00 0. -1.
</event>
<event>
 7    1  0.2690635E-009  0.1195153E+03  0.7561462E-02  0.1243899E+00
          2   -1    0    0  501    0  0.00000000000E+00  0.00000000000E+00  0.69644191818E+02  0.69644191818E+02  0.00000000000E+00 0.  1.
         -2   -1    0    0    0  501 -0.00000000000E+00 -0.00000000000E+00 -0.33024875310E+03  0.33024875310E+03  0.00000000000E+00 0. -1.
         25    2    1    2    0    0  0.14001744778E+02  0.88153321868E+02 -0.21542652278E+03  0.26461918445E+03  0.12509064334E+03 0.  0.
          5    1    3    3  502    0  0.28087030085E+02 -0.14843971743E+02 -0.11732555404E+03  0.12162229560E+03  0.41800000000E+01 0. -1.
         -5    1    3    3    0  502 -0.14085285307E+02  0.10299729361E+03 -0.98100968733E+02  0.14299688885E+03  0.41800000000E+01 0. -1.
        -11    1    1    2    0    0  0.19585834474E+02 -0.32504859737E+02 -0.57717803473E+02  0.69076158378E+02  0.00000000000E+00 0. -1.
         11    1    1    2    0    0 -0.33587579252E+02 -0.55648462131E+02  0.12539764964E+02  0.66197602093E+02  0.00000000000E+00 0.  1.
</event>
<event>
 7    1  0.2690635E-009  0.8787518E+02  0.7561462E-02  0.1308080E+00
         -2   -1    0    0    0  501 -0.00000000000E+00  0.00000000000E+00  0.56021488507E+02  0.56021488507E+02  0.00000000000E+00 0.  1.
          2   -1    0    0  501    0  0.00000000000E+00 -0.00000000000E+00 -0.24891494274E+03  0.24891494274E+03  0.00000000000E+00 0. -1.
         25    2    1    2    0    0 -0.11990990209E+02 -0.12352758396E+02 -0.53723624107E+02  0.13722446045E+03  0.12509176740E+03 0.  0.
          5    1    3    3  502    0  0.34855506720E+02  0.22314940211E+02 -0.65527204069E+02  0.77615396530E+02  0.41800000000E+01 0. -1.
         -5    1    3    3    0  502 -0.46846496930E+02 -0.34667698607E+02  0.11803579962E+02  0.59609063918E+02  0.41800000000E+01 0. -1.
        -11    1    1    2    0    0  0.17460485296E+02  0.42048238389E+02 -0.30196959134E+02  0.54633133164E+02  0.00000000000E+00 0.  1.
         11    1    1    2    0    0 -0.54694950864E+01 -0.29695479994E+02 -0.10897287099E+03  0.11307883763E+03  0.00000000000E+00 0. -1.
</event>
<event>
 7    1  0.2690635E-009  0.1133723E+03  0.7561462E-02  0.1254449E+00
          2   -1    0    0  501    0  0.00000000000E+00  0.00000000000E+00  0.45183235214E+02  0.45183235214E+02  0.00000000000E+00 0. -1.
         -2   -1    0    0    0  501 -0.00000000000E+00 -0.00000000000E+00 -0.34278807245E+03  0.34278807245E+03  0.00000000000E+00 0.  1.
         25    2    1    2    0    0 -0.58530074681E+01 -0.40045916126E+02 -0.95688112666E+02  0.16260867412E+03  0.12508969941E+03 0.  0.
          5    1    3    3  502    0  0.33570407151E+02  0.30701961412E+02 -0.56145864213E+02  0.72383790582E+02  0.41800000000E+01 0.  1.
         -5    1    3    3    0  502 -0.39423414619E+02 -0.70747877538E+02 -0.39542248453E+02  0.90224883536E+02  0.41800000000E+01 0.  1.
        -11    1    1    2    0    0  0.45251333256E+02  0.40251771395E+02 -0.11671599089E+03  0.13149338687E+03  0.00000000000E+00 0.  1.
         11    1    1    2    0    0 -0.39398325788E+02 -0.20585526845E+00 -0.85200733679E+02  0.93869246672E+02  0.00000000000E+00 0. -1.
</event>
<event>
 7    1  0.2690635E-009  0.7951483E+02  0.7561462E-02  0.1330434E+00
          2   -1    0    0  501    0  0.00000000000E+00  0.00000000000E+00  0.20456070021E+03  0.20456070021E+03  0.00000000000E+00 0.  1.
         -2   -1    0    0    0  501 -0.00000000000E+00 -0.00000000000E+00 -0.69117736577E+02  0.69117736577E+02  0.00000000000E+00 0. -1.
         25    2    1    2    0    0  0.18636519957E+02 -0.57022955593E+01  0.16561650643E+02  0.12767885186E+03  0.12509102642E+03 0.  0.
          5    1    3    3  502    0 -0.70708982248E+01  0.29774537456E+02 -0.43418755343E+02  0.53283969427E+02  0.41800000000E+01 0.  1.
         -5    1    3    3    0  502  0.25707418181E+02 -0.35476833015E+02  0.59980405985E+02  0.74394882435E+02  0.41800000000E+01 0.  1.
        -11    1    1    2    0    0 -0.33473037300E+02 -0.30326582688E+02  0.72557975844E+02  0.85468156071E+02  0.00000000000E+00 0.  1.
         11    1    1    2    0    0  0.14836517344E+02  0.36028878247E+02  0.46323337147E+02  0.60531428854E+02  0.00000000000E+00 0. -1.
</event>
<event>
 7    1  0.2690635E-009  0.1145217E+03  0.7561462E-02  0.1252418E+00
         -2   -1    0    0    0  501 -0.00000000000E+00  0.00000000000E+00  0.33654599231E+02  0.33654599231E+02  0.00000000000E+00 0.  1.
          2   -1    0    0  501    0  0.00000000000E+00 -0.00000000000E+00 -0.65630410680E+03  0.65630410680E+03  0.00000000000E+00 0. -1.
         25    2    1    2    0    0 -0.96390087015E+02  0.15045079094E+02 -0.26896866735E+03  0.31226434428E+03  0.12508986134E+03 0.  0.
          5    1    3    3  502    0 -0.54421959437E+02  0.18447280326E+02 -0.26335155791E+03  0.26958035402E+03  0.41800000000E+01 0.  1.
         -5    1    3    3    0  502 -0.41968127578E+02 -0.34022012315E+01 -0.56171094422E+01  0.42683990255E+02  0.41800000000E+01 0.  1.
        -11    1    1    2    0    0 -0.87908329589E+00 -0.30598002697E+02 -0.52021698029E+02  0.60359486598E+02  0.00000000000E+00 0.  1.
         11    1    1    2    0    0  0.97269170311E+02  0.15552923603E+02 -0.30165914219E+03  0.31733487516E+03  0.00000000000E+00 0. -1.
</event>
<event>
 7    1  0.2690635E-009  0.2158534E+03  0.7561462E-02  0.1137013E+00
          1   -1    0    0  501    0  0.00000000000E+00  0.00000000000E+00  0.22359627236E+04  0.22359627236E+04  0.00000000000E+00 0. -1.
         -1   -1    0    0    0  501 -0.00000000000E+00 -0.00000000000E+00 -0.24443341754E+02  0.24443341754E+02  0.00000000000E+00 0.  1.
         25    2    1    2    0    0 -0.20093201832E+03 -0.28673448912E+02  0.13263323116E+04  0.13475908528E+04  0.12509141842E+03 0.  0.
          5    1    3    3  502    0 -0.11987095170E+03 -0.59228361406E+02  0.53293342439E+03  0.54946569601E+03  0.41800000000E+01 0. -1.
         -5    1    3    3    0  502 -0.81061066618E+02  0.30554912495E+02  0.79339888721E+03  0.79812515674E+03  0.41800000000E+01 0. -1.
        -11    1    1    2    0    0  0.12445765275E+03 -0.11202570981E+02  0.37189548609E+03  0.39232825223E+03  0.00000000000E+00 0.  1.
         11    1    1    2    0    0  0.76474365568E+02  0.39876019893E+02  0.51329158419E+03  0.52048696041E+03  0.00000000000E+00 0. -1.
</event>
<event>
 7    1  0.2690635E-009  0.9886411E+02  0.7561462E-02  0.1282703E+00
          2   -1    0    0  501    0  0.00000000000E+00  0.00000000000E+00  0.10129685217E+03  0.10129685217E+03  0.00000000000E+00 0. -1.
         -2   -1    0    0    0  501 -0.00000000000E+00 -0.00000000000E+00 -0.12490543524E+03  0.12490543524E+03  0.00000000000E+00 0.  1.
         25    2    1    2    0    0  0.12008265489E+02 -0.26535285262E+02 -0.17469730780E+02  0.12962015944E+03  0.12509146428E+03 0.  0.
          5    1    3    3  502    0 -0.33373508893E+02  0.29750739949E+02  0.18730385187E+02  0.48653852392E+02  0.41800000000E+01 0.  1.
         -5    1    3    3    0  502  0.45381774382E+02 -0.56286025211E+02 -0.36200115967E+02  0.80966307043E+02  0.41800000000E+01 0.  1.
        -11    1    1    2    0    0  0.21207419282E+02  0.39429161366E+02 -0.29826450869E+02  0.53796194755E+02  0.00000000000E+00 0.  1.
         11    1    1    2    0    0 -0.33215684771E+02 -0.12893876104E+02  0.23687598578E+02  0.42785933228E+02  0.00000000000E+00 0. -1.
</event>
<event>
 7    1  0.2690635E-009  0.2131269E+03  0.7561462E-02  0.1139113E+00
         -1   -1    0    0    0  501 -0.00000000000E+00  0.00000000000E+00  0.52357269962E+03  0.52357269962E+03  0.00000000000E+00 0.  1.
          1   -1    0    0  501    0  0.00000000000E+00 -0.00000000000E+00 -0.94747551741E+02  0.94747551741E+02  0.00000000000E+00 0. -1.
         25    2    1    2    0    0  0.67373045048E+02  0.18200570575E+03  0.23454322347E+03  0.32912523347E+03  0.12509073310E+03 0.  0.
          5    1    3    3  502    0  0.83461616617E+02  0.10714609707E+03  0.20706410876E+03  0.24766740824E+03  0.41800000000E+01 0. -1.
         -5    1    3    3    0  502 -0.16088571569E+02  0.74859608677E+02  0.27479114707E+02  0.81457825232E+02  0.41800000000E+01 0. -1.
        -11    1    1    2    0    0 -0.33158685145E+02 -0.51512507460E+01  0.38216582197E+02  0.50858046951E+02  0.00000000000E+00 0. -1.
         11    1    1    2    0    0 -0.34214359902E+02 -0.17685445500E+03  0.15606534222E+03  0.23833697094E+03  0.00000000000E+00 0.  1.
</event>
<event>
 7    1  0.2690635E-009  0.1157234E+03  0.7561462E-02  0.1250324E+00
         -1   -1    0    0    0  501 -0.00000000000E+00  0.00000000000E+00  0.15651577180E+03  0.15651577180E+03  0.00000000000E+00 0.  1.
          1   -1    0    0  501    0  0.00000000000E+00 -0.00000000000E+00 -0.21239751089E+03  0.21239751089E+03  0.00000000000E+00 0. -1.
         25    2    1    2    0    0  0.64822061361E+02  0.83633986278E+02 -0.13149549253E+03  0.21008624594E+03  0.12509445581E+03 0.  0.
          5    1    3    3  502    0  0.75408882290E+02  0.80396184973E+02 -0.15116464068E+03  0.18713168379E+03  0.41800000000E+01 0. -1.
         -5    1    3    3    0  502 -0.10586820929E+02  0.32378013055E+01  0.19669148144E+02  0.22954562148E+02  0.41800000000E+01 0. -1.
        -11    1    1    2    0    0 -0.32933030645E+02 -0.21104089087E+02 -0.16974975942E+02  0.42639381936E+02  0.00000000000E+00 0. -1.
         11    1    1    2    0    0 -0.31889030716E+02 -0.62529897191E+02  0.92588729383E+02  0.11618765481E+03  0.00000000000E+00 0.  1.
</event>
<event>
 7    1  0.2690635E-009  0.1250806E+03  0.7561462E-02  0.1234943E+00
         -2   -1    0    0    0  501 -0.00000000000E+00  0.00000000000E+00  0.59778748745E+02  0.59778748745E+02  0.00000000000E+00 0.  1.
          2   -1    0    0  501    0  0.00000000000E+00 -0.00000000000E+00 -0.32595897594E+03  0.32595897594E+03  0.00000000000E+00 0. -1.
         25    2    1    2    0    0  0.93744953932E+02  0.15992652531E+01 -0.20472022987E+03  0.25758200477E+03  0.12508973828E+03 0.  0.
          5    1    3    3  502    0  0.70128989790E+02 -0.58569639728E+02 -0.12410578334E+03  0.15416937363E+03  0.41800000000E+01 0. -1.
         -5    1    3    3    0  502  0.23615964141E+02  0.60168904981E+02 -0.80614446535E+02  0.10341263114E+03  0.41800000000E+01 0. -1.
        -11    1    1    2    0    0 -0.24937172459E+02  0.20291950440E+01  0.11731725586E+02  0.27633559090E+02  0.00000000000E+00 0.  1.
         11    1    1    2    0    0 -0.68807781473E+02 -0.36284602971E+01 -0.73191722909E+02  0.10052216083E+03  0.00000000000E+00 0. -1.
</event>
<event>
 7    1  0.2690635E-009  0.8495973E+02  0.7561462E-02  0.1315538E+00
         -1   -1    0    0    0  501 -0.00000000000E+00  0.00000000000E+00  0.31866299548E+02  0.31866299548E+02  0.00000000000E+00 0.  1.
          1   -1    0    0  501    0  0.00000000000E+00 -0.00000000000E+00 -0.37244036541E+03  0.37244036541E+03  0.00000000000E+00 0. -1.
         25    2    1    2    0    0  0.32375076176E+01 -0.16695686790E+02 -0.20738983534E+03  0.24279121287E+03  0.12509117407E+03 0.  0.
          5    1    3    3  502    0  0.20443267415E+02 -0.57958794186E+02 -0.17987324266E+03  0.19012891634E+03  0.41800000000E+01 0.  1.
         -5    1    3    3    0  502 -0.17205759798E+02  0.41263107396E+02 -0.27516592684E+02  0.52662296524E+02  0.41800000000E+01 0.  1.
        -11    1    1    2    0    0 -0.32116610731E+02  0.63312220325E+01 -0.95044385256E+01  0.34086586936E+02  0.00000000000E+00 0.  1.
         11    1    1    2    0    0  0.28879103113E+02  0.10364464757E+02 -0.12367979200E+03  0.12742886516E+03  0.00000000000E+00 0. -1.
</event>
<event>
 7    1  0.2690635E-009  0.1488588E+03  0.7561462E-02  0.1201882E+00
         -2   -1    0    0    0  501 -0.00000000000E+00  0.00000000000E+00  0.59982530080E+02  0.59982530080E+02  0.00000000000E+00 0.  1.
          2   -1    0    0  501    0  0.00000000000E+00 -0.00000000000E+00 -0.46013071426E+03  0.46013071426E+03  0.00000000000E+00 0. -1.
         25    2    1    2    0    0 -0.86433576617E+02 -0.87292979516E+02 -0.32406993145E+03  0.36845673943E+03  0.12509284920E+03 0.  0.
          5    1    3    3  502    0 -0.56849027708E+02  0.16237641666E+02 -0.65518865779E+02  0.88349686650E+02  0.41800000000E+01 0. -1.
         -5    1    3    3    0  502 -0.29584548909E+02 -0.10353062118E+03 -0.25855106567E+03  0.28010705278E+03  0.41800000000E+01 0. -1.
        -11    1    1    2    0    0  0.60378166647E+02  0.29294659661E+02 -0.45682528088E+02  0.81182470182E+02  0.00000000000E+00 0. -1.
         11    1    1    2    0    0  0.26055409969E+02  0.57998319856E+02 -0.30395724644E+02  0.70474034732E+02  0.00000000000E+00 0.  1.
</event>
<event>
 7    1  0.2690635E-009  0.1606224E+03  0.7561462E-02  0.1187996E+00
         -2   -1    0    0    0  501 -0.00000000000E+00  0.00000000000E+00  0.86094823688E+02  0.86094823688E+02  0.00000000000E+00 0.  1.
          2   -1    0    0  501    0  0.00000000000E+00 -0.00000000000E+00 -0.45621760335E+03  0.45621760335E+03  0.00000000000E+00 0. -1.
         25    2    1    2    0    0  0.11990090968E+03 -0.10591846579E+03 -0.27020730471E+03  0.33801584567E+03  0.12509106631E+03 0.  0.
          5    1    3    3  502    0  0.46546653625E+02 -0.41317790225E+02 -0.14233802191E+02  0.63982999911E+02  0.41800000000E+01 0.  1.
         -5    1    3    3    0  502  0.73354256059E+02 -0.64600675567E+02 -0.25597350252E+03  0.27403284576E+03  0.41800000000E+01 0.  1.
        -11    1    1    2    0    0 -0.87395721024E+02  0.65800578243E+02 -0.10597290404E+03  0.15230884591E+03  0.00000000000E+00 0.  1.
         11    1    1    2    0    0 -0.32505188660E+02  0.40117887549E+02  0.60574290860E+01  0.51987735461E+02  0.00000000000E+00 0. -1.
</event>
<event>
 7    1  0.2690635E-009  0.8648094E+02  0.7561462E-02  0.1311605E+00
         -2   -1    0    0    0  501 -0.00000000000E+00  0.00000000000E+00  0.27636533885E+02  0.27636533885E+02  0.00000000000E+00 0.  1.
          2   -1    0    0  501    0  0.00000000000E+00 -0.00000000000E+00 -0.58764424166E+03  0.58764424166E+03  0.00000000000E+00 0. -1.
         25    2    1    2    0    0 -0.35720676229E+02 -0.42132795181E+02 -0.22715758831E+03  0.26514065057E+03  0.12509138865E+03 0.  0.
          5    1    3    3  502    0 -0.18505818211E+02  0.23827172666E+01 -0.21481653137E+03  0.21566584616E+03  0.41800000000E+01 0.  1.
         -5    1    3    3    0  502 -0.17214858018E+02 -0.44515512447E+02 -0.12341056944E+02  0.49474804411E+02  0.41800000000E+01 0.  1.
        -11    1    1    2    0    0  0.30270429854E+02  0.70668323242E+02 -0.27289725106E+03  0.28351934761E+03  0.00000000000E+00 0.  1.
         11    1    1    2    0    0  0.54502463750E+01 -0.28535528061E+02 -0.59952868403E+02  0.66620777367E+02  0.00000000000E+00 0. -1.
</event>
<event>
 7    1  0.2690635E-009  0.8921426E+02  0.7561462E-02  0.1304766E+00
         -1   -1    0    0    0  501 -0.00000000000E+00  0.00000000000E+00  0.32029145339E+03  0.32029145339E+03  0.00000000000E+00 0.  1.
          1   -1    0    0  501    0  0.00000000000E+00 -0.00000000000E+00 -0.47570200634E+02  0.47570200634E+02  0.00000000000E+00 0. -1.
         25    2    1    2    0    0 -0.44885023202E+01  0.45757157997E+02  0.20971643017E+03  0.24847974489E+03  0.12508932158E+03 0.  0.
          5    1    3    3  502    0 -0.62325561148E+02  0.35357016812E+02  0.90569456303E+02  0.11556337233E+03  0.41800000000E+01 0. -1.
         -5    1    3    3    0  502  0.57837058828E+02  0.10400141185E+02  0.11914697387E+03  0.13291637255E+03  0.41800000000E+01 0. -1.
        -11    1    1    2    0    0 -0.44936165225E+01 -0.18525061998E+02  0.82521931310E+02  0.84694980127E+02  0.00000000000E+00 0.  1.
         11    1    1    2    0    0  0.89821188427E+01 -0.27232095999E+02 -0.19517108724E+02  0.34686929013E+02  0.00000000000E+00 0. -1.
</event>
<event>
 7    1  0.2690635E-009  0.7796926E+02  0.7561462E-02  0.1334915E+00
         -1   -1    0    0    0  501 -0.00000000000E+00  0.00000000000E+00  0.93860736461E+02  0.93860736461E+02  0.00000000000E+00 0.  1.
          1   -1    0    0  501    0  0.00000000000E+00 -0.00000000000E+00 -0.15265863266E+03  0.15265863266E+03  0.00000000000E+00 0. -1.
         25    2    1    2    0    0 -0.11362450169E+02 -0.47123637985E+02 -0.14782931743E+02  0.13495425812E+03  0.12507747273E+03 0.  0.
          5    1    3    3  502    0  0.20898208500E+02 -0.52145635287E+02 -0.57851621976E+02  0.80747662277E+02  0.41800000000E+01 0. -1.
         -5    1    3    3    0  502 -0.32260658669E+02  0.50219973023E+01  0.43068690232E+02  0.54206595844E+02  0.41800000000E+01 0. -1.
        -11    1    1    2    0    0 -0.14554673773E+02  0.35340217271E+02  0.18804352215E+02  0.42595459238E+02  0.00000000000E+00 0.  1.
         11    1    1    2    0    0  0.25917123942E+02  0.11783420714E+02 -0.62819316674E+02  0.68969651765E+02  0.00000000000E+00 0. -1.
</event>
<event>
 7    1  0.2690635E-009  0.1034018E+03  0.7561462E-02  0.1273301E+00
         -4   -1    0    0    0  501 -0.00000000000E+00  0.00000000000E+00  0.64692703066E+02  0.64692703066E+02  0.00000000000E+00 0. -1.
          4   -1    0    0  501    0  0.00000000000E+00 -0.00000000000E+00 -0.21189919400E+03  0.21189919400E+03  0.00000000000E+00 0.  1.
         25    2    1    2    0    0 -0.36025045304E+02 -0.21147771956E+02 -0.90941365746E+02  0.16019593370E+03  0.12508946008E+03 0.  0.
          5    1    3    3  502    0  0.17207356973E+02 -0.43666655293E+02  0.57483934423E+01  0.47469846699E+02  0.41800000000E+01 0. -1.
         -5    1    3    3    0  502 -0.53232402277E+02  0.22518883336E+02 -0.96689759189E+02  0.11272608700E+03  0.41800000000E+01 0. -1.
        -11    1    1    2    0    0  0.66375819733E+02  0.31579569556E+01 -0.33614160704E+02  0.74469013269E+02  0.00000000000E+00 0. -1.
         11    1    1    2    0    0 -0.30350774429E+02  0.17989815001E+02 -0.22650964482E+02  0.41926950094E+02  0.00000000000E+00 0.  1.
</event>
<event>
 7    1  0.2690635E-009  0.1749624E+03  0.7561462E-02  0.1172769E+00
         -1   -1    0    0    0  501 -0.00000000000E+00  0.00000000000E+00  0.29945323066E+03  0.29945323066E+03  0.00000000000E+00 0.  1.
          1   -1    0    0  501    0  0.00000000000E+00 -0.00000000000E+00 -0.10476243295E+03  0.10476243295E+03  0.00000000000E+00 0. -1.
         25    2    1    2    0    0 -0.12598800374E+03  0.54320786390E+02  0.73359513711E+02  0.19963133018E+03  0.12508926740E+03 0.  0.
          5    1    3    3  502    0 -0.97208592272E+02 -0.25229539697E+02  0.32890595094E+02  0.10576059630E+03  0.41800000000E+01 0.  1.
         -5    1    3    3    0  502 -0.28779411463E+02  0.79550326087E+02  0.40468918617E+02  0.93870733878E+02  0.41800000000E+01 0.  1.
        -11    1    1    2    0    0  0.13895112292E+03 -0.38363124767E+02  0.10703714278E+03  0.17954412782E+03  0.00000000000E+00 0.  1.
         11    1    1    2    0    0 -0.12963119183E+02 -0.15957661623E+02  0.14294141223E+02  0.25040205605E+02  0.00000000000E+00 0. -1.
</event>
<event>
 7    1  0.2690635E-009  0.1383292E+03  0.7561462E-02  0.1215595E+00
          2   -1    0    0  501    0  0.00000000000E+00  0.00000000000E+00  0.90696919305E+02  0.90696919305E+02  0.00000000000E+00 0. -1.
         -2   -1    0    0    0  501 -0.00000000000E+00 -0.00000000000E+00 -0.23333579390E+03  0.23333579390E+03  0.00000000000E+00 0.  1.
         25    2    1    2    0    0 -0.38827525430E+02 -0.77319158658E+02 -0.31462289640E+02  0.15530798507E+03  0.12507943688E+03 0.  0.
          5    1    3    3  502    0 -0.81772478938E+02 -0.67347256366E+02 -0.32880829123E+02  0.11100005665E+03  0.41800000000E+01 0. -1.
         -5    1    3    3    0  502  0.42944953508E+02 -0.99719022916E+01  0.14185394831E+01  0.44307928425E+02  0.41800000000E+01 0. -1.
        -11    1    1    2    0    0  0.30781561060E+02  0.98764353002E+02 -0.96836866830E+02  0.14170137862E+03  0.00000000000E+00 0.  1.
         11    1    1    2    0    0  0.80459643701E+01 -0.21445194345E+02 -0.14339718128E+02  0.27023349517E+02  0.00000000000E+00 0. -1.
</event>
<event>
 7    1  0.2690635E-009  0.1361968E+03  0.7561462E-02  0.1218540E+00
         -2   -1    0    0    0  501 -0.00000000000E+00  0.00000000000E+00  0.16905343537E+03  0.16905343537E+03  0.00000000000E+00 0.  1.
          2   -1    0    0  501    0  0.00000000000E+00 -0.00000000000E+00 -0.14393388635E+03  0.14393388635E+03  0.00000000000E+00 0. -1.
         25    2    1    2    0    0  0.73107644833E+02 -0.53171210066E+02  0.80791689279E+02  0.17421004754E+03  0.12509971341E+03 0.  0.
          5    1    3    3  502    0 -0.35600033080E+02 -0.92407411364E+01  0.19883635029E+02  0.42018864740E+02  0.41800000000E+01 0.  1.
         -5    1    3    3    0  502  0.10870767791E+03 -0.43930468930E+02  0.60908054250E+02  0.13219118280E+03  0.41800000000E+01 0.  1.
        -11    1    1    2    0    0 -0.23358802046E+02  0.63134485095E+02 -0.56724098646E+02  0.88029655278E+02  0.00000000000E+00 0. -1.
         11    1    1    2    0    0 -0.49748842787E+02 -0.99632750288E+01  0.10519583890E+01  0.50747618904E+02  0.00000000000E+00 0.  1.
</event>
<event>
 7    1  0.2690635E-009  0.1111647E+03  0.7561462E-02  0.1258428E+00
          4   -1    0    0  501    0  0.00000000000E+00  0.00000000000E+00  0.60996587392E+02  0.60996587392E+02  0.00000000000E+00 0. -1.
         -4   -1    0    0    0  501 -0.00000000000E+00 -0.00000000000E+00 -0.22397312429E+03  0.22397312429E+03  0.00000000000E+00 0.  1.
         25    2    1    2    0    0  0.10066518278E+01  0.31754298263E+02 -0.12948304458E+03  0.18281940214E+03  0.12509087161E+03 0.  0.
          5    1    3    3  502    0  0.14990352098E+02 -0.46112464928E+02 -0.61493969820E+02  0.78422259608E+02  0.41800000000E+01 0.  1.
         -5    1    3    3    0  502 -0.13983700271E+02  0.77866763191E+02 -0.67989074757E+02  0.10439714253E+03  0.41800000000E+01 0.  1.
        -11    1    1    2    0    0  0.43638902713E+02 -0.99749867825E+01 -0.54190808958E+01  0.45091247810E+02  0.00000000000E+00 0.  1.
         11    1    1    2    0    0 -0.44645554541E+02 -0.21779311480E+02 -0.28074411427E+02  0.57059061732E+02  0.00000000000E+00 0. -1.
</event>
<event>
 7    1  0.2690635E-009  0.1758412E+03  0.7561462E-02  0.1171890E+00
         -2   -1    0    0    0  501 -0.00000000000E+00  0.00000000000E+00  0.23934478032E+02  0.23934478032E+02  0.00000000000E+00 0.  1.
          2   -1    0    0  501    0  0.00000000000E+00 -0.00000000000E+00 -0.25924166021E+04  0.25924166021E+04  0.00000000000E+00 0. -1.
         25    2    1    2    0    0 -0.60829617360E+02 -0.15776667543E+03 -0.21032707307E+04  0.21137610206E+04  0.12508924453E+03 0.  0.
          5    1    3    3  502    0  0.14445698512E+02 -0.26080152418E+02 -0.92560832930E+02  0.97333615716E+02  0.41800000000E+01 0. -1.
         -5    1    3    3    0  502 -0.75275315871E+02 -0.13168652302E+03 -0.20107098978E+04  0.20164274049E+04  0.41800000000E+01 0. -1.
        -11    1    1    2    0    0  0.25388248627E+02  0.87926671780E+02 -0.35987119276E+03  0.37132591905E+03  0.00000000000E+00 0. -1.
         11    1    1    2    0    0  0.35441368733E+02  0.69840003655E+02 -0.10534020059E+03  0.13126414052E+03  0.00000000000E+00 0.  1.
</event>
<event>
 7    1  0.2690635E-009  0.1664101E+03  0.7561462E-02  0.1181644E+00
          4   -1    0    0  501    0  0.00000000000E+00  0.00000000000E+00  0.23996514368E+03  0.23996514368E+03  0.00000000000E+00 0. -1.
         -4   -1    0    0    0  501 -0.00000000000E+00 -0.00000000000E+00 -0.14651519264E+03  0.14651519264E+03  0.00000000000E+00 0.  1.
         25    2    1    2    0    0  0.12600369314E+03 -0.84629625658E+02  0.65918735358E+02  0.20744120374E+03  0.12508984418E+03 0.  0.
          5    1    3    3  502    0  0.11997056802E+03 -0.65173159663E+02  0.98769003123E+02  0.16856235140E+03  0.41800000000E+01 0.  1.
         -5    1    3    3    0  502  0.60331251213E+01 -0.19456465995E+02 -0.32850267765E+02  0.38878852349E+02  0.41800000000E+01 0.  1.
        -11    1    1    2    0    0 -0.72925824081E+02  0.96584572481E+02  0.82069637316E+01  0.12130173005E+03  0.00000000000E+00 0. -1.
         11    1    1    2    0    0 -0.53077869056E+02 -0.11954946823E+02  0.19324251949E+02  0.57737402526E+02  0.00000000000E+00 0.  1.
</event>
<event>
 7    1  0.3262301E-009  0.1512682E+03  0.7561462E-02  0.1198923E+00
         -1   -1    0    0    0  501 -0.00000000000E+00  0.00000000000E+00  0.40507209124E+02  0.40507209124E+02  0.00000000000E+00 0.  1.
          1   -1    0    0  501    0  0.00000000000E+00 -0.00000000000E+00 -0.73293320981E+03  0.73293320981E+03  0.00000000000E+00 0. -1.
         25    2    1    2    0    0  0.47124213635E+02 -0.12459837393E+03 -0.39033600679E+03  0.43099328667E+03  0.12509024210E+03 0.  0.
          5    1    3    3  502    0 -0.24862528659E+02 -0.14105342935E+02 -0.13811466753E+02  0.32020853276E+02  0.41800000000E+01 0. -1.
         -5    1    3    3    0  502  0.71986742294E+02 -0.11049303099E+03 -0.37652454003E+03  0.39897243340E+03  0.41800000000E+01 0. -1.
        -11    1    1    2    0    0 -0.46984209851E+02  0.55961707302E+02 -0.23642145336E+03  0.24745571779E+03  0.00000000000E+00 0. -1.
         11    1    1    2    0    0 -0.14000378406E+00  0.68636666624E+02 -0.65668540545E+02  0.94991414473E+02  0.00000000000E+00 0.  1.
</event>
<event>
 7    1  0.2786093E-009  0.9026133E+02  0.7561462E-02  0.1302220E+00
          4   -1    0    0  501    0  0.00000000000E+00  0.00000000000E+00  0.20306846624E+03  0.20306846624E+03  0.00000000000E+00 0. -1.
         -4   -1    0    0    0  501 -0.00000000000E+00 -0.00000000000E+00 -0.78834446960E+02  0.78834446960E+02  0.00000000000E+00 0.  1.
         25    2    1    2    0    0  0.22886598333E+02 -0.58358867550E+02  0.50435913902E+02  0.14873068691E+03  0.12508989573E+03 0.  0.
          5    1    3    3  502    0  0.12500026870E+02 -0.10255914680E+01  0.81502211423E+02  0.82567459550E+02  0.41800000000E+01 0. -1.
         -5    1    3    3    0  502  0.10386571463E+02 -0.57333276082E+02 -0.31066297522E+02  0.66163227361E+02  0.41800000000E+01 0. -1.
        -11    1    1    2    0    0  0.32754909582E+02  0.36665143702E+02  0.21013077537E+02  0.53467432068E+02  0.00000000000E+00 0.  1.
         11    1    1    2    0    0 -0.55641507915E+02  0.21693723848E+02  0.52785027840E+02  0.79704794219E+02  0.00000000000E+00 0. -1.
</event>
<event>
 7    1  0.2690635E-009  0.9746272E+02  0.7561462E-02  0.1285724E+00
         -1   -1    0    0    0  501 -0.00000000000E+00  0.00000000000E+00  0.79048344382E+02  0.79048344382E+02  0.00000000000E+00 0.  1.
          1   -1    0    0  501    0  0.00000000000E+00 -0.00000000000E+00 -0.20770650392E+03  0.20770650392E+03  0.00000000000E+00 0. -1.
         25    2    1    2    0    0 -0.56092983808E+02  0.33679122819E+02 -0.95126130792E+02  0.17023120803E+03  0.12509587237E+03 0.  0.
          5    1    3    3  502    0  0.32628436237E+02  0.36768365215E+01  0.45300486628E+01  0.33408497706E+02  0.41800000000E+01 0.  1.
         -5    1    3    3    0  502 -0.88721420045E+02  0.30002286297E+02 -0.99656179455E+02  0.13682271033E+03  0.41800000000E+01 0.  1.
        -11    1    1    2    0    0  0.40065200169E+02 -0.33211646508E+02  0.23630710833E+02  0.57154564322E+02  0.00000000000E+00 0.  1.
         11    1    1    2    0    0  0.16027783639E+02 -0.46747631072E+00 -0.57162739575E+02  0.59369075942E+02  0.00000000000E+00 0. -1.
</event>
<event>
 7    1  0.2690635E-009  0.1193480E+03  0.7561462E-02  0.1244177E+00
          1   -1    0    0  501    0  0.00000000000E+00  0.00000000000E+00  0.44165066142E+03  0.44165066142E+03  0.00000000000E+00 0. -1.
         -1   -1    0    0    0  501 -0.00000000000E+00 -0.00000000000E+00 -0.40432804746E+02  0.40432804746E+02  0.00000000000E+00 0.  1.
         25    2    1    2    0    0  0.46777143760E+02 -0.62929118514E+02  0.23168231615E+03  0.27472238641E+03  0.12509004294E+03 0.  0.
          5    1    3    3  502    0 -0.19933891780E+02 -0.46949392583E+02  0.18423094348E+03  0.19120700417E+03  0.41800000000E+01 0.  1.
         -5    1    3    3    0  502  0.66711035539E+02 -0.15979725931E+02  0.47451372669E+02  0.83515382246E+02  0.41800000000E+01 0.  1.
        -11    1    1    2    0    0  0.40014889732E+01  0.67675409629E+02  0.10696092436E+03  0.12663574662E+03  0.00000000000E+00 0.  1.
         11    1    1    2    0    0 -0.50778632733E+02 -0.47462911149E+01  0.62574616159E+02  0.80725333131E+02  0.00000000000E+00 0. -1.
</event>
<event>
 7    1  0.2690635E-009  0.1123727E+03  0.7561462E-02  0.1256238E+00
         -1   -1    0    0    0  501 -0.00000000000E+00  0.00000000000E+00  0.53957593887E+03  0.53957593887E+03  0.00000000000E+00 0.  1.
          1   -1    0    0  501    0  0.00000000000E+00 -0.00000000000E+00 -0.24483564705E+02  0.24483564705E+02  0.00000000000E+00 0. -1.
         25    2    1    2    0    0  0.28530836054E+02  0.19819574868E+02  0.26343113052E+03  0.29368385483E+03  0.12508965548E+03 0.  0.
          5    1    3    3  502    0  0.46546192653E+02  0.64285135699E+02  0.13689831125E+03  0.15829638892E+03  0.41800000000E+01 0. -1.
         -5    1    3    3    0  502 -0.18015356600E+02 -0.44465560831E+02  0.12653281927E+03  0.13538746591E+03  0.41800000000E+01 0. -1.
        -11    1    1    2    0    0  0.18325359852E+02  0.25845047756E+02  0.59946038267E+02  0.67803486718E+02  0.00000000000E+00 0.  1.
         11    1    1    2    0    0 -0.46856195906E+02 -0.45664622624E+02  0.19171520538E+03  0.20257216203E+03  0.00000000000E+00 0. -1.
</event>
<event>
 7    1  0.2690635E-009  0.1209962E+03  0.7561462E-02  0.1241463E+00
         -2   -1    0    0    0  501 -0.00000000000E+00  0.00000000000E+00  0.21708944641E+02  0.21708944641E+02  0.00000000000E+00 0. -1.
          2   -1    0    0  501    0  0.00000000000E+00 -0.00000000000E+00 -0.85158088922E+03  0.85158088922E+03  0.00000000000E+00 0.  1.
         25    2    1    2    0    0  0.21896546884E+02  0.52964919928E+02 -0.64571229554E+03  0.66020946894E+03  0.12508969884E+03 0.  0.
          5    1    3    3  502    0  0.56371981516E+02  0.76803299406E+02 -0.43555286855E+03  0.44587029594E+03  0.41800000000E+01 0.  1.
         -5    1    3    3    0  502 -0.34475434632E+02 -0.23838379478E+02 -0.21015942699E+03  0.21433917300E+03  0.41800000000E+01 0.  1.
        -11    1    1    2    0    0  0.27347623756E+02  0.56779366274E+01 -0.72417332327E+02  0.77617018178E+02  0.00000000000E+00 0. -1.
         11    1    1    2    0    0 -0.49244170640E+02 -0.58642856555E+02 -0.11174231671E+03  0.13546334674E+03  0.00000000000E+00 0.  1.
</event>
<event>
 7    1  0.2690635E-009  0.1051384E+03  0.7561462E-02  0.1269847E+00
          2   -1    0    0  501    0  0.00000000000E+00  0.00000000000E+00  0.57935414503E+03  0.57935414503E+03  0.00000000000E+00 0. -1.
         -2   -1    0    0    0  501 -0.00000000000E+00 -0.00000000000E+00 -0.24259438765E+02  0.24259438765E+02  0.00000000000E+00 0.  1.
         25    2    1    2    0    0  0.53301152058E+01 -0.33376466905E+02  0.21231026278E+03  0.24873290340E+03  0.12510000351E+03 0.  0.
          5    1    3    3  502    0  0.62211787674E+02 -0.36876412030E+02  0.11791441369E+03  0.13838879162E+03  0.41800000000E+01 0.  1.
         -5    1    3    3    0  502 -0.56881672468E+02  0.34999451249E+01  0.94395849089E+02  0.11034411178E+03  0.41800000000E+01 0.  1.
        -11    1    1    2    0    0  0.18879358077E+02  0.48570966812E+02  0.29192647030E+03  0.29654111526E+03  0.00000000000E+00 0. -1.
         11    1    1    2    0    0 -0.24209473283E+02 -0.15194499907E+02  0.50857973187E+02  0.58339565141E+02  0.00000000000E+00 0.  1.
</event>
<event>
 7    1  0.2690635E-009  0.1195921E+03  0.7561462E-02  0.1243771E+00
          2   -1    0    0  501    0  0.00000000000E+00  0.00000000000E+00  0.40391228169E+03  0.40391228169E+03  0.00000000000E+00 0. -1.
         -2   -1    0    0    0  501 -0.00000000000E+00 -0.00000000000E+00 -0.44880423795E+02  0.44880423795E+02  0.00000000000E+00 0.  1.
         25    2    1    2    0    0  0.34746075738E+02 -0.47770734179E+02  0.12283402723E+03  0.18499561721E+03  0.12508336148E+03 0.  0.
          5    1    3    3  502    0 -0.26016769053E+02  0.23393724363E+02  0.68249925706E+01  0.35891385250E+02  0.41800000000E+01 0. -1.
         -5    1    3    3    0  502  0.60762844792E+02 -0.71164458542E+02  0.11600903466E+03  0.14910423196E+03  0.41800000000E+01 0. -1.
        -11    1    1    2    0    0  0.20405435310E+02  0.51102846664E+02  0.72440347021E+02  0.90969701571E+02  0.00000000000E+00 0.  1.
         11    1    1    2    0    0 -0.55151511048E+02 -0.33321124851E+01  0.16375748364E+03  0.17282738670E+03  0.00000000000E+00 0. -1.
</event>
<event>
 7    1  0.2724788E-009  0.1147870E+03  0.7561462E-02  0.1251953E+00
          2   -1    0    0  501    0  0.00000000000E+00  0.00000000000E+00  0.10280515799E+04  0.10280515799E+04  0.00000000000E+00 0. -1.
         -2   -1    0    0    0  501 -0.00000000000E+00 -0.00000000000E+00 -0.17138871752E+02  0.17138871752E+02  0.00000000000E+00 0.  1.
         25    2    1    2    0    0 -0.11992377059E+02 -0.75194030866E+02  0.52776429706E+03  0.54770457059E+03  0.12508870456E+03 0.  0.
          5    1    3    3  502    0 -0.32686338451E+02  0.30474118120E+00  0.37070764216E+03  0.37216947477E+03  0.41800000000E+01 0.  1.
         -5    1    3    3    0  502  0.20693961392E+02 -0.75498772047E+02  0.15705665489E+03  0.17553509582E+03  0.41800000000E+01 0.  1.
        -11    1    1    2    0    0  0.40861689270E+02  0.35884753259E+01  0.18622577588E+03  0.19068978579E+03  0.00000000000E+00 0.  1.
         11    1    1    2    0    0 -0.28869312211E+02  0.71605555540E+02  0.29692263525E+03  0.30679609531E+03  0.00000000000E+00 0. -1.
</event>
<event>
 7    1  0.2690635E-009  0.1359713E+03  0.7561462E-02  0.1218855E+00
          2   -1    0    0  501    0  0.00000000000E+00  0.00000000000E+00  0.21731777456E+03  0.21731777456E+03  0.00000000000E+00 0. -1.
         -2   -1    0    0    0  501 -0.00000000000E+00 -0.00000000000E+00 -0.95300154675E+02  0.95300154675E+02  0.00000000000E+00 0.  1.
         25    2    1    2    0    0  0.38430623737E+02 -0.77989920213E+02  0.27085329741E+02  0.15472656860E+03  0.12508938984E+03 0.  0.
          5    1    3    3  502    0  0.20123213504E+02 -0.10930365327E+03  0.35303137814E+01  0.11127518975E+03  0.41800000000E+01 0.  1.
         -5    1    3    3    0  502  0.18307410233E+02  0.31313733054E+02  0.23555015960E+02  0.43451378851E+02  0.41800000000E+01 0.  1.
        -11    1    1    2    0    0 -0.32918730805E+02  0.98038853286E+02  0.67610636251E+02  0.12355750777E+03  0.00000000000E+00 0.  1.
         11    1    1    2    0    0 -0.55118929317E+01 -0.20048933073E+02  0.27321653897E+02  0.34333852867E+02  0.00000000000E+00 0. -1.
</event>
<event>
 7    1  0.2690635E-009  0.9865496E+02  0.7561462E-02  0.1283150E+00
          2   -1    0    0  501    0  0.00000000000E+00  0.00000000000E+00  0.43251121665E+02  0.43251121665E+02  0.00000000000E+00 0. -1.
         -2   -1    0    0    0  501 -0.00000000000E+00 -0.00000000000E+00 -0.31748902324E+03  0.31748902324E+03  0.00000000000E+00 0.  1.
         25    2    1    2    0    0  0.12709249985E+02  0.36712680478E+02 -0.18633464420E+03  0.22776386757E+03  0.12508570580E+03 0.  0.
          5    1    3    3  502    0 -0.37624702950E+02 -0.19763053173E+02 -0.24899588010E+02  0.49433373603E+02  0.41800000000E+01 0.  1.
         -5    1    3    3    0  502  0.50333952934E+02  0.56475733651E+02 -0.16143505619E+03  0.17833049396E+03  0.41800000000E+01 0.  1.
        -11    1    1    2    0    0 -0.31295288419E+02 -0.47847517375E+02 -0.94394133716E+02  0.11035865383E+03  0.00000000000E+00 0.  1.
         11    1    1    2    0    0  0.18586038434E+02  0.11134836896E+02  0.64908763411E+01  0.22617623506E+02  0.00000000000E+00 0. -1.
</event>
<event>
 7    1  0.2690635E-009  0.1440528E+03  0.7561462E-02  0.1207977E+00
          2   -1    0    0  501    0  0.00000000000E+00  0.00000000000E+00  0.51845697281E+03  0.51845697281E+03  0.00000000000E+00 0. -1.
         -2   -1    0    0    0  501 -0.00000000000E+00 -0.00000000000E+00 -0.60884667209E+02  0.60884667209E+02  0.00000000000E+00 0.  1.
         25    2    1    2    0    0  0.31652872211E+02 -0.11665173844E+03  0.12487915531E+03  0.21412766698E+03  0.12508525866E+03 0.  0.
          5    1    3    3  502    0  0.73254972207E+02 -0.83199495537E+02  0.11480080104E+03  0.15964066941E+03  0.41800000000E+01 0. -1.
         -5    1    3    3    0  502 -0.41602099996E+02 -0.33452242903E+02  0.10078354274E+02  0.54486997570E+02  0.41800000000E+01 0. -1.
        -11    1    1    2    0    0 -0.33953413598E+02  0.80054190697E+02  0.11353639886E+03  0.14301056468E+03  0.00000000000E+00 0.  1.
         11    1    1    2    0    0  0.23005413876E+01  0.36597547743E+02  0.21915675143E+03  0.22220340836E+03  0.00000000000E+00 0. -1.
</event>
<event>
 7    1  0.2690635E-009  0.9498663E+02  0.7561462E-02  0.1291206E+00
          4   -1    0    0  501    0  0.00000000000E+00  0.00000000000E+00  0.38609743502E+03  0.38609743502E+03  0.00000000000E+00 0.  1.
         -4   -1    0    0    0  501 -0.00000000000E+00 -0.00000000000E+00 -0.41854100938E+02  0.41854100938E+02  0.00000000000E+00 0. -1.
         25    2    1    2    0    0 -0.22043892686E+02 -0.16585935994E+01  0.29757975097E+03  0.32355799726E+03  0.12508950901E+03 0.  0.
          5    1    3    3  502    0  0.42903200518E+02 -0.32799483893E+02  0.14479740115E+03  0.15459705863E+03  0.41800000000E+01 0. -1.
         -5    1    3    3    0  502 -0.64947093204E+02  0.31140890294E+02  0.15278234982E+03  0.16896093863E+03  0.41800000000E+01 0. -1.
        -11    1    1    2    0    0  0.42340921637E+02  0.63832550884E+01  0.64191635602E+02  0.77162592439E+02  0.00000000000E+00 0.  1.
         11    1    1    2    0    0 -0.20297028951E+02 -0.47246614890E+01 -0.17528052489E+02  0.27230946265E+02  0.00000000000E+00 0. -1.
</event>
<event>
 7    1  0.2690635E-009  0.1640985E+03  0.7561462E-02  0.1184146E+00
          2   -1    0    0  501    0  0.00000000000E+00  0.00000000000E+00  0.15600115539E+04  0.15600115539E+04  0.00000000000E+00 0. -1.
         -2   -1    0    0    0  501 -0.00000000000E+00 -0.00000000000E+00 -0.27101630507E+02  0.27101630507E+02  0.00000000000E+00 0.  1.
         25    2    1    2    0    0 -0.48576123935E+02  0.13522515422E+03  0.12132438828E+04  0.12281099810E+04  0.12509166268E+03 0.  0.
          5    1    3    3  502    0  0.34030287698E+02  0.72985662160E+02  0.69237683612E+03  0.69705675735E+03  0.41800000000E+01 0.  1.
         -5    1    3    3    0  502 -0.82606411632E+02  0.62239492059E+02  0.52086704669E+03  0.53105322365E+03  0.41800000000E+01 0.  1.
        -11    1    1    2    0    0  0.14400320092E+02 -0.54799664364E+02  0.50121642019E+02  0.75647547428E+02  0.00000000000E+00 0.  1.
         11    1    1    2    0    0  0.34175803843E+02 -0.80425489854E+02  0.26954439857E+03  0.28335565600E+03  0.00000000000E+00 0. -1.
</event>
<event>
 7    1  0.2690635E-009  0.1040418E+03  0.7561462E-02  0.1272019E+00
          4   -1    0    0  501    0  0.00000000000E+00  0.00000000000E+00  0.27315237760E+03  0.27315237760E+03  0.00000000000E+00 0.  1.
         -4   -1    0    0    0  501 -0.00000000000E+00 -0.00000000000E+00 -0.51501128893E+02  0.51501128893E+02  0.00000000000E+00 0. -1.
         25    2    1    2    0    0 -0.12332268324E+02 -0.43990999410E+02  0.96728512581E+02  0.16459709254E+03  0.12509398409E+03 0.  0.
          5    1    3    3  502    0  0.47042414109E+02 -0.12995338278E+02  0.82578066378E+02  0.96012900118E+02  0.41800000000E+01 0. -1.
         -5    1    3    3    0  502 -0.59374682433E+02 -0.30995661131E+02  0.14150446203E+02  0.68584192426E+02  0.41800000000E+01 0. -1.
        -11    1    1    2    0    0  0.23540526947E+02  0.64477225892E+02  0.60375197424E+02  0.91414624277E+02  0.00000000000E+00 0. -1.
         11    1    1    2    0    0 -0.11208258624E+02 -0.20486226483E+02  0.64547538701E+02  0.68641789671E+02  0.00000000000E+00 0.  1.
</event>
<event>
 7    1  0.2690635E-009  0.9332742E+02  0.7561462E-02  0.1294988E+00
          1   -1    0    0  501    0  0.00000000000E+00  0.00000000000E+00  0.33399817421E+03  0.33399817421E+03  0.00000000000E+00 0. -1.
         -1   -1    0    0    0  501 -0.00000000000E+00 -0.00000000000E+00 -0.66956770128E+02  0.66956770128E+02  0.00000000000E+00 0.  1.
         25    2    1    2    0    0 -0.37081125665E+02  0.84343383576E+02  0.20445365587E+03  0.25678280735E+03  0.12508915428E+03 0.  0.
          5    1    3    3  502    0 -0.10323930935E+02  0.42713721285E+02 -0.22474403456E+01  0.44199195967E+02  0.41800000000E+01 0. -1.
         -5    1    3    3    0  502 -0.26757194730E+02  0.41629662291E+02  0.20670109621E+03  0.21258361138E+03  0.41800000000E+01 0. -1.
        -11    1    1    2    0    0  0.34640083579E+02 -0.67897405481E+02  0.86344504255E+02  0.11517537270E+03  0.00000000000E+00 0. -1.
         11    1    1    2    0    0  0.24410420862E+01 -0.16445978096E+02 -0.23756756039E+02  0.28996764293E+02  0.00000000000E+00 0.  1.
</event>
<event>
 7    1  0.2690635E-009  0.2132626E+03  0.7561462E-02  0.1139008E+00
         -1   -1    0    0    0  501 -0.00000000000E+00  0.00000000000E+00  0.65078411684E+02  0.65078411684E+02  0.00000000000E+00 0.  1.
          1   -1    0    0  501    0  0.00000000000E+00 -0.00000000000E+00 -0.80819943387E+03  0.80819943387E+03  0.00000000000E+00 0. -1.
         25    2    1    2    0    0 -0.20022605588E+03 -0.10302624563E+02 -0.33944183866E+03  0.41360132978E+03  0.12509468668E+03 0.  0.
          5    1    3    3  502    0  0.35084562004E+01  0.52282223231E+01 -0.93609278771E+02  0.93913859710E+02  0.41800000000E+01 0.  1.
         -5    1    3    3    0  502 -0.20373451208E+03 -0.15530846886E+02 -0.24583255989E+03  0.31968747007E+03  0.41800000000E+01 0.  1.
        -11    1    1    2    0    0  0.15571718095E+03  0.40396170417E+02 -0.34154130450E+03  0.37753165921E+03  0.00000000000E+00 0.  1.
         11    1    1    2    0    0  0.44508874934E+02 -0.30093545854E+02 -0.62137879031E+02  0.82144856567E+02  0.00000000000E+00 0. -1.
</event>
<event>
 7    1  0.2690635E-009  0.2784194E+03  0.7561462E-02  0.1096555E+00
          2   -1    0    0  501    0  0.00000000000E+00  0.00000000000E+00  0.22052675503E+04  0.22052675503E+04  0.00000000000E+00 0.  1.
         -2   -1    0    0    0  501 -0.00000000000E+00 -0.00000000000E+00 -0.46993330440E+02  0.46993330440E+02  0.00000000000E+00 0. -1.
         25    2    1    2    0    0 -0.23963112626E+03  0.12183599762E+03  0.15893991430E+04  0.16168192128E+04  0.12509054289E+03 0.  0.
          5    1    3    3  502    0  0.60551782471E+01  0.21227625512E+02  0.51793689525E+02  0.56456496022E+02  0.41800000000E+01 0.  1.
         -5    1    3    3    0  502 -0.24568630451E+03  0.10060837211E+03  0.15376054535E+04  0.15603627168E+04  0.41800000000E+01 0.  1.
        -11    1    1    2    0    0  0.19181129934E+03 -0.99193626163E+02  0.35848115579E+03  0.41849694035E+03  0.00000000000E+00 0. -1.
         11    1    1    2    0    0  0.47819826921E+02 -0.22642371457E+02  0.21039392099E+03  0.21694472758E+03  0.00000000000E+00 0.  1.
</event>
<event>
 7    1  0.2690635E-009  0.2090465E+03  0.7561462E-02  0.1142323E+00
          1   -1    0    0  501    0  0.00000000000E+00  0.00000000000E+00  0.10813554808E+04  0.10813554808E+04  0.00000000000E+00 0. -1.
         -1   -1    0    0    0  501 -0.00000000000E+00 -0.00000000000E+00 -0.45471956463E+02  0.45471956463E+02  0.00000000000E+00 0.  1.
         25    2    1    2    0    0  0.19224748015E+01  0.18820082261E+03  0.64477417812E+03  0.68323035924E+03  0.12508691970E+03 0.  0.
          5    1    3    3  502    0 -0.16727580740E+02 -0.12983785807E+02  0.96843722941E+02  0.99219805101E+02  0.41800000000E+01 0.  1.
         -5    1    3    3    0  502  0.18650055542E+02  0.20118460841E+03  0.54793045517E+03  0.58401055414E+03  0.41800000000E+01 0.  1.
        -11    1    1    2    0    0 -0.25192462535E+02 -0.86789117666E+02  0.10169215169E+03  0.13604523082E+03  0.00000000000E+00 0.  1.
         11    1    1    2    0    0  0.23269987733E+02 -0.10141170494E+03  0.28941719453E+03  0.30755184721E+03  0.00000000000E+00 0. -1.
</event>
<event>
 7    1  0.2690635E-009  0.1119589E+03  0.7561462E-02  0.1256985E+00
          1   -1    0    0  501    0  0.00000000000E+00  0.00000000000E+00  0.29469386344E+02  0.29469386344E+02  0.00000000000E+00 0. -1.
         -1   -1    0    0    0  501 -0.00000000000E+00 -0.00000000000E+00 -0.59879413762E+03  0.59879413762E+03  0.00000000000E+00 0.  1.
         25    2    1    2    0    0  0.22787783490E+02  0.74274379145E+02 -0.28671696899E+03  0.32232105895E+03  0.12509307839E+03 0.  0.
          5    1    3    3  502    0  0.20257102269E+02  0.10867767912E+03 -0.23827944542E+03  0.26270849747E+03  0.41800000000E+01 0. -1.
         -5    1    3    3    0  502  0.25306812212E+01 -0.34403299977E+02 -0.48437523567E+02  0.59612561479E+02  0.41800000000E+01 0. -1.
        -11    1    1    2    0    0 -0.12867378329E+02 -0.58559172343E+02 -0.28095894309E+03  0.28728500447E+03  0.00000000000E+00 0.  1.
         11    1    1    2    0    0 -0.99204051608E+01 -0.15715206802E+02 -0.16488391988E+01  0.18657460548E+02  0.00000000000E+00 0. -1.
</event>
<event>
 7    1  0.3285465E-009  0.1274656E+03  0.7561462E-02  0.1231265E+00
          1   -1    0    0  501    0  0.00000000000E+00  0.00000000000E+00  0.22757878144E+03  0.22757878144E+03  0.00000000000E+00 0. -1.
         -1   -1    0    0    0  501 -0.00000000000E+00 -0.00000000000E+00 -0.97768966285E+02  0.97768966285E+02  0.00000000000E+00 0.  1.
         25    2    1    2    0    0  0.45071059598E+02 -0.83403524533E+02  0.11117643673E+03  0.19233819292E+03  0.12508489939E+03 0.  0.
          5    1    3    3  502    0  0.48149259875E+02  0.20788785762E+02  0.35892730877E+02  0.63688973691E+02  0.41800000000E+01 0.  1.
         -5    1    3    3    0  502 -0.30782002769E+01 -0.10419231030E+03  0.75283705851E+02  0.12864921923E+03  0.41800000000E+01 0.  1.
        -11    1    1    2    0    0 -0.44547876984E+02  0.60722460610E+02 -0.28641015879E+02  0.80573186340E+02  0.00000000000E+00 0.  1.
         11    1    1    2    0    0 -0.52318261347E+00  0.22681063923E+02  0.47274394306E+02  0.52436368464E+02  0.00000000000E+00 0. -1.
</event>
<event>
 7    1  0.2690635E-009  0.1138637E+03  0.7561462E-02  0.1253578E+00
         -1   -1    0    0    0  501 -0.00000000000E+00  0.00000000000E+00  0.71368402612E+02  0.71368402612E+02  0.00000000000E+00 0.  1.
          1   -1    0    0  501    0  0.00000000000E+00 -0.00000000000E+00 -0.19375169890E+03  0.19375169890E+03  0.00000000000E+00 0. -1.
         25    2    1    2    0    0 -0.16714221408E+02  0.34845650934E+02 -0.88729700223E+02  0.15815739701E+03  0.12508884019E+03 0.  0.
          5    1    3    3  502    0  0.53919490286E+02  0.20414486896E+02 -0.48731332047E+02  0.75606070067E+02  0.41800000000E+01 0.  1.
         -5    1    3    3    0  502 -0.70633711694E+02  0.14431164038E+02 -0.39998368176E+02  0.82551326942E+02  0.41800000000E+01 0.  1.
        -11    1    1    2    0    0 -0.37145170838E+02 -0.17988235882E+02 -0.28783099733E+02  0.50317066459E+02  0.00000000000E+00 0.  1.
         11    1    1    2    0    0  0.53859392246E+02 -0.16857415052E+02 -0.48704963355E+01  0.56645638049E+02  0.00000000000E+00 0. -1.
</event>
<event>
 7    1  0.2690635E-009  0.9610195E+02  0.7561462E-02  0.1288713E+00
         -2   -1    0    0    0  501 -0.00000000000E+00  0.00000000000E+00  0.18363342538E+03  0.18363342538E+03  0.00000000000E+00 0.  1.
          2   -1    0    0  501    0  0.00000000000E+00 -0.00000000000E+00 -0.79377382557E+02  0.79377382557E+02  0.00000000000E+00 0. -1.
         25    2    1    2    0    0 -0.33939213774E+02 -0.41522959713E+02  0.62055810287E+02  0.14958738703E+03  0.12509770723E+03 0.  0.
          5    1    3    3  502    0 -0.46562504106E+02  0.97065443340E+01  0.80452607518E+02  0.93554146075E+02  0.41800000000E+01 0.  1.
         -5    1    3    3    0  502  0.12623290331E+02 -0.51229504047E+02 -0.18396797231E+02  0.56033240956E+02  0.41800000000E+01 0.  1.
        -11    1    1    2    0    0  0.49256707105E+02  0.53026189115E+02  0.61939491306E+01  0.72638591209E+02  0.00000000000E+00 0. -1.
         11    1    1    2    0    0 -0.15317493331E+02 -0.11503229403E+02  0.36006283403E+02  0.40784829693E+02  0.00000000000E+00 0.  1.
</event>
<event>
 7    1  0.2690635E-009  0.1235153E+03  0.7561462E-02  0.1237408E+00
         -1   -1    0    0    0  501 -0.00000000000E+00  0.00000000000E+00  0.99333236262E+03  0.99333236262E+03  0.00000000000E+00 0.  1.
          1   -1    0    0  501    0  0.00000000000E+00 -0.00000000000E+00 -0.24632989391E+02  0.24632989391E+02  0.00000000000E+00 0. -1.
         25    2    1    2    0    0 -0.55921780605E+02 -0.73481097769E+02  0.84512776583E+03  0.85931067475E+03  0.12508868009E+03 0.  0.
          5    1    3    3  502    0 -0.94216994177E+02 -0.47660206986E+02  0.49711698973E+03  0.50822348549E+03  0.41800000000E+01 0. -1.
         -5    1    3    3    0  502  0.38295213572E+02 -0.25820890783E+02  0.34801077610E+03  0.35108718926E+03  0.41800000000E+01 0. -1.
        -11    1    1    2    0    0  0.88098874417E+01  0.28570950702E+02  0.63035666021E+02  0.69766815403E+02  0.00000000000E+00 0.  1.
         11    1    1    2    0    0  0.47111893163E+02  0.44910147067E+02  0.60535941374E+02  0.88887861855E+02  0.00000000000E+00 0. -1.
</event>
<event>
 7    1  0.2690635E-009  0.1969570E+03  0.7561462E-02  0.1152332E+00
          2   -1    0    0  501    0  0.00000000000E+00  0.00000000000E+00  0.29586999061E+03  0.29586999061E+03  0.00000000000E+00 0. -1.
         -2   -1    0    0    0  501 -0.00000000000E+00 -0.00000000000E+00 -0.13628930734E+03  0.13628930734E+03  0.00000000000E+00 0.  1.
         25    2    1    2    0    0 -0.12433415516E+03 -0.11272550740E+03  0.99225685400E+02  0.23164446941E+03  0.12508957353E+03 0.  0.
          5    1    3    3  502    0 -0.60905697942E+02  0.15022192275E+02  0.51230382909E+02  0.81099906508E+02  0.41800000000E+01 0.  1.
         -5    1    3    3    0  502 -0.63428457217E+02 -0.12774769968E+03  0.47995302492E+02  0.15054456290E+03  0.41800000000E+01 0.  1.
        -11    1    1    2    0    0  0.47842988335E+02  0.99941781127E+02  0.52360624258E+02  0.12255180994E+03  0.00000000000E+00 0. -1.
         11    1    1    2    0    0  0.76491166824E+02  0.12783726274E+02  0.79943736146E+01  0.77963018599E+02  0.00000000000E+00 0.  1.
</event>
<event>
 7    1  0.2690635E-009  0.8541334E+02  0.7561462E-02  0.1314355E+00
         -2   -1    0    0    0  501 -0.00000000000E+00  0.00000000000E+00  0.11638316948E+03  0.11638316948E+03  0.00000000000E+00 0.  1.
          2   -1    0    0  501    0  0.00000000000E+00 -0.00000000000E+00 -0.12294314693E+03  0.12294314693E+03  0.00000000000E+00 0. -1.
         25    2    1    2    0    0 -0.50101425870E+02 -0.18238393524E+01 -0.16464318050E+01  0.13477394178E+03  0.12509126821E+03 0.  0.
          5    1    3    3  502    0 -0.68792334128E+01  0.17420960016E+02  0.56513800237E+02  0.59683295129E+02  0.41800000000E+01 0.  1.
         -5    1    3    3    0  502 -0.43222192457E+02 -0.19244799368E+02 -0.58160232042E+02  0.75090646653E+02  0.41800000000E+01 0.  1.
        -11    1    1    2    0    0  0.46936233135E+02 -0.40319681933E+02 -0.67945889104E+01  0.62248318616E+02  0.00000000000E+00 0. -1.
         11    1    1    2    0    0  0.31651927349E+01  0.42143521286E+02  0.18810432731E+01  0.42304056014E+02  0.00000000000E+00 0.  1.
</event>
<event>
 7    1  0.2690635E-009  0.9822027E+02  0.7561462E-02  0.1284084E+00
         -1   -1    0    0    0  501 -0.00000000000E+00  0.00000000000E+00  0.11924484682E+03  0.11924484682E+03  0.00000000000E+00 0.  1.
          1   -1    0    0  501    0  0.00000000000E+00 -0.00000000000E+00 -0.11031584441E+03  0.11031584441E+03  0.00000000000E+00 0. -1.
         25    2    1    2    0    0 -0.30978921817E+02 -0.96083152847E+01  0.22585554559E+02  0.13117755453E+03  0.12508169418E+03 0.  0.
          5    1    3    3  502    0  0.30431186613E+02 -0.38300014625E+02 -0.17732407569E+02  0.52200181199E+02  0.41800000000E+01 0. -1.
         -5    1    3    3    0  502 -0.61410108430E+02  0.28691699340E+02  0.40317962128E+02  0.78977373333E+02  0.41800000000E+01 0. -1.
        -11    1    1    2    0    0 -0.12023218054E+02  0.29646632503E+02 -0.34070075376E+02  0.46735967170E+02  0.00000000000E+00 0. -1.
         11    1    1    2    0    0  0.43002139870E+02 -0.20038317218E+02  0.20413523224E+02  0.51647169533E+02  0.00000000000E+00 0.  1.
</event>
<event>
 7    1  0.2690635E-009  0.6629182E+02  0.7561462E-02  0.1373177E+00
         -2   -1    0    0    0  501 -0.00000000000E+00  0.00000000000E+00  0.53365022123E+02  0.53365022123E+02  0.00000000000E+00 0.  1.
          2   -1    0    0  501    0  0.00000000000E+00 -0.00000000000E+00 -0.34847901891E+03  0.34847901891E+03  0.00000000000E+00 0. -1.
         25    2    1    2    0    0 -0.14021416211E+02  0.31916830152E+02 -0.27848773920E+03  0.30727888962E+03  0.12509840512E+03 0.  0.
          5    1    3    3  502    0 -0.22534890294E+02  0.74764767763E+01 -0.27998415894E+03  0.28102014277E+03  0.41800000000E+01 0.  1.
         -5    1    3    3    0  502  0.85134740833E+01  0.24440353375E+02  0.14964197414E+01  0.26258746850E+02  0.41800000000E+01 0.  1.
        -11    1    1    2    0    0 -0.30862221018E+02 -0.11279635655E+02 -0.28791916879E+02  0.43688457792E+02  0.00000000000E+00 0. -1.
         11    1    1    2    0    0  0.44883637228E+02 -0.20637194497E+02  0.12165659293E+02  0.50876693619E+02  0.00000000000E+00 0.  1.
</event>
<event>
 7    1  0.2690635E-009  0.2104210E+03  0.7561462E-02  0.1141233E+00
          2   -1    0    0  501    0  0.00000000000E+00  0.00000000000E+00  0.39244852778E+03  0.39244852778E+03  0.00000000000E+00 0. -1.
         -2   -1    0    0    0  501 -0.00000000000E+00 -0.00000000000E+00 -0.19654472407E+03  0.19654472407E+03  0.00000000000E+00 0.  1.
         25    2    1    2    0    0  0.18565666923E+03  0.41272791841E+02  0.28085641016E+03  0.36152344633E+03  0.12508811672E+03 0.  0.
          5    1    3    3  502    0  0.19521543687E+03  0.57389513460E+02  0.27361099263E+03  0.34100303626E+03  0.41800000000E+01 0.  1.
         -5    1    3    3    0  502 -0.95587676392E+01 -0.16116721619E+02  0.72454175288E+01  0.20520410076E+02  0.41800000000E+01 0.  1.
        -11    1    1    2    0    0 -0.18031601179E+03 -0.50683199209E+02 -0.97286535466E+02  0.21106236229E+03  0.00000000000E+00 0.  1.
         11    1    1    2    0    0 -0.53406574337E+01  0.94104073677E+01  0.12333929016E+02  0.16407443239E+02  0.00000000000E+00 0. -1.
</event>
<event>
 7    1  0.2690635E-009  0.1875951E+03  0.7561462E-02  0.1160648E+00
         -2   -1    0    0    0  501 -0.00000000000E+00  0.00000000000E+00  0.44969417354E+02  0.44969417354E+02  0.00000000000E+00 0.  1.
          2   -1    0    0  501    0  0.00000000000E+00 -0.00000000000E+00 -0.14826848185E+04  0.14826848185E+04  0.00000000000E+00 0. -1.
         25    2    1    2    0    0 -0.15320977094E+03  0.86417817307E+02 -0.11943648324E+04  0.12137128554E+04  0.12510103718E+03 0.  0.
          5    1    3    3  502    0 -0.67283568367E+02  0.59901010021E+02 -0.93161086346E+03  0.93596553510E+03  0.41800000000E+01 0. -1.
         -5    1    3    3    0  502 -0.85926202574E+02  0.26516807285E+02 -0.26275396889E+03  0.27774732029E+03  0.41800000000E+01 0. -1.
        -11    1    1    2    0    0  0.44208573449E+02  0.14415164660E+02 -0.84826864029E+02  0.96735680075E+02  0.00000000000E+00 0.  1.
         11    1    1    2    0    0  0.10900119749E+03 -0.10083298197E+03 -0.15852370472E+03  0.21720570035E+03  0.00000000000E+00 0. -1.
</event>
<event>
 7    1  0.2690635E-009  0.1491328E+03  0.7561462E-02  0.1201543E+00
          2   -1    0    0  501    0  0.00000000000E+00  0.00000000000E+00  0.19647217211E+04  0.19647217211E+04  0.00000000000E+00 0. -1.
         -2   -1    0    0    0  501 -0.00000000000E+00 -0.00000000000E+00 -0.15133818090E+02  0.15133818090E+02  0.00000000000E+00 0.  1.
         25    2    1    2    0    0 -0.89253226591E+02 -0.91352015721E+02  0.12496055889E+04  0.12623285111E+04  0.12509121777E+03 0.  0.
          5    1    3    3  502    0 -0.90220381416E+02 -0.52241894009E+02  0.11572156625E+04  0.11619098479E+04  0.41800000000E+01 0. -1.
         -5    1    3    3    0  502  0.96715482559E+00 -0.39110121711E+02  0.92389926426E+02  0.10041866317E+03  0.41800000000E+01 0. -1.
        -11    1    1    2    0    0  0.57170632756E+02 -0.62188801691E+00  0.33110926308E+03  0.33600924406E+03  0.00000000000E+00 0. -1.
         11    1    1    2    0    0  0.32082593835E+02  0.91973903737E+02  0.36887305100E+03  0.38151778405E+03  0.00000000000E+00 0.  1.
</event>
<event>
 7    1  0.2690635E-009  0.1472555E+03  0.7561462E-02  0.1203887E+00
         -2   -1    0    0    0  501 -0.00000000000E+00  0.00000000000E+00  0.20169594666E+02  0.20169594666E+02  0.00000000000E+00 0.  1.
          2   -1    0    0  501    0  0.00000000000E+00 -0.00000000000E+00 -0.14379616682E+04  0.14379616682E+04  0.00000000000E+00 0. -1.
         25    2    1    2    0    0  0.40064082974E+02  0.12809016715E+03 -0.80149775610E+03  0.82222810372E+03  0.12509268499E+03 0.  0.
          5    1    3    3  502    0  0.29084860007E+02  0.14734667835E+01 -0.37217956724E+02  0.47442058226E+02  0.41800000000E+01 0. -1.
         -5    1    3    3    0  502  0.10979222966E+02  0.12661670037E+03 -0.76427979938E+03  0.77478604549E+03  0.41800000000E+01 0. -1.
        -11    1    1    2    0    0 -0.43771625881E+02 -0.94609409262E+02 -0.56500465332E+03  0.57454081998E+03  0.00000000000E+00 0. -1.
         11    1    1    2    0    0  0.37075429078E+01 -0.33480757888E+02 -0.51289664100E+02  0.61362339156E+02  0.00000000000E+00 0.  1.
</event>
<event>
 7    1  0.2690635E-009  0.2440570E+03  0.7561462E-02  0.1117119E+00
          2   -1    0    0  501    0  0.00000000000E+00  0.00000000000E+00  0.82227643784E+03  0.82227643784E+03  0.00000000000E+00 0. -1.
         -2   -1    0    0    0  501 -0.00000000000E+00 -0.00000000000E+00 -0.20845060719E+03  0.20845060719E+03  0.00000000000E+00 0.  1.
         25    2    1    2    0    0 -0.20576058844E+03 -0.10107754848E+03  0.71701681697E+03  0.76309549587E+03  0.12509008526E+03 0.  0.
          5    1    3    3  502    0 -0.52378333291E+02 -0.80843609176E+02  0.17969849403E+03  0.20393185160E+03  0.41800000000E+01 0. -1.
         -5    1    3    3    0  502 -0.15338225515E+03 -0.20233939306E+02  0.53731832295E+03  0.55916364427E+03  0.41800000000E+01 0. -1.
        -11    1    1    2    0    0  0.55882367657E+02  0.58979239778E+02 -0.71386435274E+00  0.81252072848E+02  0.00000000000E+00 0.  1.
         11    1    1    2    0    0  0.14987822078E+03  0.42098308704E+02 -0.10247712197E+03  0.18637947631E+03  0.00000000000E+00 0. -1.
</event>
<event>
 7    1  0.2690635E-009  0.7497795E+02  0.7561462E-02  0.1343939E+00
         -3   -1    0    0    0  501 -0.00000000000E+00  0.00000000000E+00  0.16442223295E+03  0.16442223295E+03  0.00000000000E+00 0.  1.
          3   -1    0    0  501    0  0.00000000000E+00 -0.00000000000E+00 -0.87273785111E+02  0.87273785111E+02  0.00000000000E+00 0. -1.
         25    2    1    2    0    0 -0.19451518362E+02  0.17282107245E+01  0.99126606165E+02  0.16079451211E+03  0.12508973897E+03 0.  0.
          5    1    3    3  502    0 -0.53933035038E+02  0.28685595121E+02  0.99494048188E+02  0.11682539818E+03  0.41800000000E+01 0.  1.
         -5    1    3    3    0  502  0.34481516676E+02 -0.26957384397E+02 -0.36744202274E+00  0.43969113926E+02  0.41800000000E+01 0.  1.
        -11    1    1    2    0    0  0.31788574493E+02 -0.45229076695E+01 -0.50418699840E+02  0.59774705818E+02  0.00000000000E+00 0.  1.
         11    1    1    2    0    0 -0.12337056131E+02  0.27946969450E+01  0.28440541508E+02  0.31126800129E+02  0.00000000000E+00 0. -1.
</event>
<event>
 7    1  0.2690635E-009  0.7544154E+02  0.7561462E-02  0.1342509E+00
          4   -1    0    0  501    0  0.00000000000E+00  0.00000000000E+00  0.19709033917E+03  0.19709033917E+03  0.00000000000E+00 0. -1.
         -4   -1    0    0    0  501 -0.00000000000E+00 -0.00000000000E+00 -0.95960588911E+02  0.95960588911E+02  0.00000000000E+00 0.  1.
         25    2    1    2    0    0 -0.71315211910E+01 -0.28707717051E+02 -0.31216164092E+02  0.13227656557E+03  0.12509056434E+03 0.  0.
          5    1    3    3  502    0  0.16353095505E+01 -0.42628820479E+02  0.40263485943E+02  0.58809108759E+02  0.41800000000E+01 0.  1.
         -5    1    3    3    0  502 -0.87668307415E+01  0.13921103429E+02 -0.71479650034E+02  0.73467456816E+02  0.41800000000E+01 0.  1.
        -11    1    1    2    0    0 -0.38698357024E+02  0.22586328739E+02  0.70972769895E+02  0.83933540071E+02  0.00000000000E+00 0.  1.
         11    1    1    2    0    0  0.45829878215E+02  0.61213883112E+01  0.61373144452E+02  0.76840822432E+02  0.00000000000E+00 0. -1.
</event>
<event>
 7    1  0.2690635E-009  0.1016377E+03  0.7561462E-02  0.1276889E+00
         -1   -1    0    0    0  501 -0.00000000000E+00  0.00000000000E+00  0.13670082728E+03  0.13670082728E+03  0.00000000000E+00 0.  1.
          1   -1    0    0  501    0  0.00000000000E+00 -0.00000000000E+00 -0.12277482948E+03  0.12277482948E+03  0.00000000000E+00 0. -1.
         25    2    1    2    0    0  0.42308947776E+02  0.92587636209E+00  0.63539299737E+02  0.14654395877E+03  0.12508790882E+03 0.  0.
          5    1    3    3  502    0  0.79276377811E+02 -0.11426445534E+02  0.70434948471E+02  0.10674203531E+03  0.41800000000E+01 0.  1.
         -5    1    3    3    0  502 -0.36967430035E+02  0.12352321896E+02 -0.68956487341E+01  0.39801923460E+02  0.41800000000E+01 0.  1.
        -11    1    1    2    0    0  0.90622772136E+01  0.24810210637E+02  0.11713330303E+02  0.28894178080E+02  0.00000000000E+00 0.  1.
         11    1    1    2    0    0 -0.51371224990E+02 -0.25736086999E+02 -0.61326632243E+02  0.84037519914E+02  0.00000000000E+00 0. -1.
</event>
<event>
 7    1  0.2690635E-009  0.1299881E+03  0.7561462E-02  0.1227473E+00
          2   -1    0    0  501    0  0.00000000000E+00  0.00000000000E+00  0.34564067566E+03  0.34564067566E+03  0.00000000000E+00 0. -1.
         -2   -1    0    0    0  501 -0.00000000000E+00 -0.00000000000E+00 -0.68589898360E+02  0.68589898360E+02  0.00000000000E+00 0.  1.
         25    2    1    2    0    0 -0.78983839180E+02  0.63910643712E+02  0.20221071324E+03  0.25857257718E+03  0.12509031893E+03 0.  0.
          5    1    3    3  502    0  0.20984414397E+02  0.30404331980E+02  0.11755383468E+03  0.12329292558E+03  0.41800000000E+01 0.  1.
         -5    1    3    3    0  502 -0.99968253576E+02  0.33506311732E+02  0.84656878562E+02  0.13527965160E+03  0.41800000000E+01 0.  1.
        -11    1    1    2    0    0 -0.85563214088E+01 -0.14288804966E+02 -0.13745590641E+02  0.21594486460E+02  0.00000000000E+00 0.  1.
         11    1    1    2    0    0  0.87540160588E+02 -0.49621838746E+02  0.88585654699E+02  0.13406351038E+03  0.00000000000E+00 0. -1.
</event>
<event>
 7    1  0.2690635E-009  0.1422347E+03  0.7561462E-02  0.1210353E+00
         -2   -1    0    0    0  501 -0.00000000000E+00  0.00000000000E+00  0.82916190878E+02  0.82916190878E+02  0.00000000000E+00 0.  1.
          2   -1    0    0  501    0  0.00000000000E+00 -0.00000000000E+00 -0.25731216431E+03  0.25731216431E+03  0.00000000000E+00 0. -1.
         25    2    1    2    0    0  0.96802911450E+02  0.44772395102E+01 -0.81480394820E+02  0.17798154473E+03  0.12509007229E+03 0.  0.
          5    1    3    3  502    0  0.10023156056E+03 -0.41279936051E+02 -0.38899629726E+02  0.11524344860E+03  0.41800000000E+01 0. -1.
         -5    1    3    3    0  502 -0.34286491068E+01  0.45757175561E+02 -0.42580765094E+02  0.62738096130E+02  0.41800000000E+01 0. -1.
        -11    1    1    2    0    0 -0.27912407738E+01 -0.31870782023E+02 -0.39069236933E+02  0.50496960763E+02  0.00000000000E+00 0. -1.
         11    1    1    2    0    0 -0.94011670676E+02  0.27393542512E+02 -0.53846341677E+02  0.11174984969E+03  0.00000000000E+00 0.  1.
</event>
<event>
 7    1  0.2690635E-009  0.1157713E+03  0.7561462E-02  0.1250241E+00
         -1   -1    0    0    0  501 -0.00000000000E+00  0.00000000000E+00  0.50734234919E+03  0.50734234919E+03  0.00000000000E+00 0.  1.
          1   -1    0    0  501    0  0.00000000000E+00 -0.00000000000E+00 -0.29993815465E+02  0.29993815465E+02  0.00000000000E+00 0. -1.
         25    2    1    2    0    0 -0.10943013338E+02 -0.55136277784E+02  0.25779956558E+03  0.29200733075E+03  0.12509159256E+03 0.  0.
          5    1    3    3  502    0 -0.92096780395E+01 -0.88236552841E+02  0.11473271914E+03  0.14509161474E+03  0.41800000000E+01 0.  1.
         -5    1    3    3    0  502 -0.17333352981E+01  0.33100275057E+02  0.14306684644E+03  0.14691571601E+03  0.41800000000E+01 0.  1.
        -11    1    1    2    0    0  0.45882031322E+02  0.22529153977E+01  0.85894399577E+02  0.97406798042E+02  0.00000000000E+00 0.  1.
         11    1    1    2    0    0 -0.34939017984E+02  0.52883362386E+02  0.13365456857E+03  0.14792203587E+03  0.00000000000E+00 0. -1.
</event>
<event>
 7    1  0.2690635E-009  0.1214422E+03  0.7561462E-02  0.1240737E+00
          2   -1    0    0  501    0  0.00000000000E+00  0.00000000000E+00  0.52464827315E+03  0.52464827315E+03  0.00000000000E+00 0. -1.
         -2   -1    0    0    0  501 -0.00000000000E+00 -0.00000000000E+00 -0.36480035926E+02  0.36480035926E+02  0.00000000000E+00 0.  1.
         25    2    1    2    0    0  0.69038454638E+01 -0.77755851165E+02  0.19589906059E+03  0.24519025530E+03  0.12509270114E+03 0.  0.
          5    1    3    3  502    0 -0.25063022130E+02  0.23025599789E+02  0.86228828162E+02  0.92796640726E+02  0.41800000000E+01 0. -1.
         -5    1    3    3    0  502  0.31966867594E+02 -0.10078145095E+03  0.10967023243E+03  0.15239361457E+03  0.41800000000E+01 0. -1.
        -11    1    1    2    0    0  0.25883912463E+02  0.60336900389E+02  0.25505811893E+03  0.26337266848E+03  0.00000000000E+00 0. -1.
         11    1    1    2    0    0 -0.32787757927E+02  0.17418950776E+02  0.37211057706E+02  0.52565385299E+02  0.00000000000E+00 0.  1.
</event>
<event>
 7    1  0.2690635E-009  0.1098428E+03  0.7561462E-02  0.1260861E+00
         -1   -1    0    0    0  501 -0.00000000000E+00  0.00000000000E+00  0.92382885812E+02  0.92382885812E+02  0.00000000000E+00 0.  1.
          1   -1    0    0  501    0  0.00000000000E+00 -0.00000000000E+00 -0.29597455362E+03  0.29597455362E+03  0.00000000000E+00 0. -1.
         25    2    1    2    0    0 -0.26077946335E+02 -0.26559182046E+02 -0.24775228655E+03  0.28002510317E+03  0.12508962178E+03 0.  0.
          5    1    3    3  502    0 -0.52501652017E+02 -0.64638030415E+02 -0.17149296149E+03  0.19068772032E+03  0.41800000000E+01 0. -1.
         -5    1    3    3    0  502  0.26423705682E+02  0.38078848368E+02 -0.76259325060E+02  0.89337382845E+02  0.41800000000E+01 0. -1.
        -11    1    1    2    0    0  0.14705845697E+02 -0.29290327018E+02  0.39236843816E+02  0.51124505544E+02  0.00000000000E+00 0.  1.
         11    1    1    2    0    0  0.11372100637E+02  0.55849509065E+02  0.49237749313E+01  0.57207830716E+02  0.00000000000E+00 0. -1.
</event>
<event>
 7    1  0.2690635E-009  0.1261140E+03  0.7561462E-02  0.1233338E+00
          1   -1    0    0  501    0  0.00000000000E+00  0.00000000000E+00  0.17428592963E+02  0.17428592963E+02  0.00000000000E+00 0. -1.
         -1   -1    0    0    0  501 -0.00000000000E+00 -0.00000000000E+00 -0.10469097693E+04  0.10469097693E+04  0.00000000000E+00 0.  1.
         25    2    1    2    0    0  0.73489424186E+02 -0.19703773250E+02 -0.66807040668E+03  0.68392562536E+03  0.12508900271E+03 0.  0.
          5    1    3    3  502    0  0.97453047596E+02 -0.44518930966E+02 -0.56698408615E+03  0.57703332491E+03  0.41800000000E+01 0.  1.
         -5    1    3    3    0  502 -0.23963623410E+02  0.24815157716E+02 -0.10108632053E+03  0.10689230046E+03  0.41800000000E+01 0.  1.
        -11    1    1    2    0    0 -0.38171074891E+02 -0.30510193662E+02 -0.23316287223E+03  0.23822852025E+03  0.00000000000E+00 0.  1.
         11    1    1    2    0    0 -0.35318349295E+02  0.50213966912E+02 -0.12824789745E+03  0.14218421667E+03  0.00000000000E+00 0. -1.
</event>
<event>
 7    1  0.2690635E-009  0.7770023E+02  0.7561462E-02  0.1335707E+00
          1   -1    0    0  501    0  0.00000000000E+00  0.00000000000E+00  0.15231921043E+03  0.15231921043E+03  0.00000000000E+00 0. -1.
         -1   -1    0    0    0  501 -0.00000000000E+00 -0.00000000000E+00 -0.80448475851E+02  0.80448475851E+02  0.00000000000E+00 0.  1.
         25    2    1    2    0    0  0.15627015971E+02  0.12118310377E+02  0.43242653490E+02  0.13382373619E+03  0.12509119958E+03 0.  0.
          5    1    3    3  502    0 -0.12299885007E+02 -0.22322860987E+02 -0.35176338691E+02  0.43639941539E+02  0.41800000000E+01 0.  1.
         -5    1    3    3    0  502  0.27926900978E+02  0.34441171364E+02  0.78418992181E+02  0.90183794652E+02  0.41800000000E+01 0.  1.
        -11    1    1    2    0    0 -0.32454568987E+02 -0.40585743596E+02 -0.44680855502E+01  0.52158081060E+02  0.00000000000E+00 0.  1.
         11    1    1    2    0    0  0.16827553016E+02  0.28467433219E+02  0.33096166635E+02  0.46785869026E+02  0.00000000000E+00 0. -1.
</event>
<event>
 7    1  0.2690635E-009  0.1044413E+03  0.7561462E-02  0.1271224E+00
          2   -1    0    0  501    0  0.00000000000E+00  0.00000000000E+00  0.66304854803E+02  0.66304854803E+02  0.00000000000E+00 0. -1.
         -2   -1    0    0    0  501 -0.00000000000E+00 -0.00000000000E+00 -0.22413047838E+03  0.22413047838E+03  0.00000000000E+00 0.  1.
         25    2    1    2    0    0  0.41322576508E+02  0.21388110318E+01 -0.42941103740E+02  0.13857829535E+03  0.12509146937E+03 0.  0.
          5    1    3    3  502    0  0.84503625425E+02 -0.97283591448E+01 -0.38243036486E+02  0.93356873991E+02  0.41800000000E+01 0.  1.
         -5    1    3    3    0  502 -0.43181048917E+02  0.11867170177E+02 -0.46980672540E+01  0.45221421356E+02  0.41800000000E+01 0.  1.
        -11    1    1    2    0    0 -0.56055724447E+02 -0.16226438488E+02 -0.11760894923E+03  0.13129130393E+03  0.00000000000E+00 0.  1.
         11    1    1    2    0    0  0.14733147939E+02  0.14087627457E+02  0.27244293910E+01  0.20565733905E+02  0.00000000000E+00 0. -1.
</event>
<event>
 7    1  0.2690635E-009  0.1132462E+03  0.7561462E-02  0.1254674E+00
         -1   -1    0    0    0  501 -0.00000000000E+00  0.00000000000E+00  0.19926488877E+03  0.19926488877E+03  0.00000000000E+00 0.  1.
          1   -1    0    0  501    0  0.00000000000E+00 -0.00000000000E+00 -0.66874036735E+02  0.66874036735E+02  0.00000000000E+00 0. -1.
         25    2    1    2    0    0  0.85869608809E+01  0.32155594428E+02  0.70362962664E+02  0.14732658971E+03  0.12508580803E+03 0.  0.
          5    1    3    3  502    0 -0.45281247854E+02 -0.20366962339E+02  0.10097598230E+02  0.50839339611E+02  0.41800000000E+01 0.  1.
         -5    1    3    3    0  502  0.53868208735E+02  0.52522556767E+02  0.60265364434E+02  0.96487250101E+02  0.41800000000E+01 0.  1.
        -11    1    1    2    0    0 -0.49192780190E+02 -0.35359180131E+02  0.35889043521E+02  0.70414662445E+02  0.00000000000E+00 0.  1.
         11    1    1    2    0    0  0.40605819309E+02  0.32035857029E+01  0.26138845848E+02  0.48397673347E+02  0.00000000000E+00 0. -1.
</event>
<event>
 7    1  0.2690635E-009  0.1920510E+03  0.7561462E-02  0.1156624E+00
          1   -1    0    0  501    0  0.00000000000E+00  0.00000000000E+00  0.95864289066E+02  0.95864289066E+02  0.00000000000E+00 0. -1.
         -1   -1    0    0    0  501 -0.00000000000E+00 -0.00000000000E+00 -0.49187810268E+03  0.49187810268E+03  0.00000000000E+00 0.  1.
         25    2    1    2    0    0 -0.13226132836E+03  0.11704839713E+03 -0.29202819583E+03  0.36348503135E+03  0.12509002601E+03 0.  0.
          5    1    3    3  502    0  0.14198771140E+02 -0.56827718812E+01 -0.64069309891E+02  0.66001877761E+02  0.41800000000E+01 0.  1.
         -5    1    3    3    0  502 -0.14646009950E+03  0.12273116902E+03 -0.22795888594E+03  0.29748315359E+03  0.41800000000E+01 0.  1.
        -11    1    1    2    0    0  0.64645490641E+02 -0.66081671523E+02 -0.10458199779E+03  0.13958230917E+03  0.00000000000E+00 0.  1.
         11    1    1    2    0    0  0.67615837721E+02 -0.50966725612E+02  0.59638000562E+00  0.84675051221E+02  0.00000000000E+00 0. -1.
</event>
<event>
 7    1  0.2690635E-009  0.1951204E+03  0.7561462E-02  0.1153922E+00
         -1   -1    0    0    0  501 -0.00000000000E+00  0.00000000000E+00  0.31927720286E+03  0.31927720286E+03  0.00000000000E+00 0.  1.
          1   -1    0    0  501    0  0.00000000000E+00 -0.00000000000E+00 -0.11950606173E+03  0.11950606173E+03  0.00000000000E+00 0. -1.
         25    2    1    2    0    0 -0.76163370722E+02  0.14363334162E+03  0.10909811839E+03  0.23232797920E+03  0.12506995890E+03 0.  0.
          5    1    3    3  502    0 -0.11240452385E+01 -0.22354539170E+02  0.14874868324E+02  0.27197849305E+02  0.41800000000E+01 0.  1.
         -5    1    3    3    0  502 -0.75039325483E+02  0.16598788079E+03  0.94223250063E+02  0.20513012990E+03  0.41800000000E+01 0.  1.
        -11    1    1    2    0    0 -0.11895624202E+02 -0.68441822935E+02  0.38857803470E+02  0.79597222893E+02  0.00000000000E+00 0. -1.
         11    1    1    2    0    0  0.88058994924E+02 -0.75191518689E+02  0.51815219279E+02  0.12685806249E+03  0.00000000000E+00 0.  1.
</event>
<event>
 7    1  0.2690635E-009  0.1621526E+03  0.7561462E-02  0.1186288E+00
          3   -1    0    0  501    0  0.00000000000E+00  0.00000000000E+00  0.18642896357E+03  0.18642896357E+03  0.00000000000E+00 0. -1.
         -3   -1    0    0    0  501 -0.00000000000E+00 -0.00000000000E+00 -0.18685407494E+03  0.18685407494E+03  0.00000000000E+00 0.  1.
         25    2    1    2    0    0 -0.13173453025E+03  0.48060737759E+02 -0.58940111894E+02  0.19693961194E+03  0.12508977970E+03 0.  0.
          5    1    3    3  502    0 -0.11112840891E+02  0.61375244346E+02 -0.39553535462E+02  0.73975471737E+02  0.41800000000E+01 0.  1.
         -5    1    3    3    0  502 -0.12062168936E+03 -0.13314506587E+02 -0.19386576432E+02  0.12296414020E+03  0.41800000000E+01 0.  1.
        -11    1    1    2    0    0  0.69423401101E+02 -0.28632408078E+02 -0.16521335215E+02  0.76891988725E+02  0.00000000000E+00 0.  1.
         11    1    1    2    0    0  0.62311129147E+02 -0.19428329681E+02  0.75036335738E+02  0.99451437852E+02  0.00000000000E+00 0. -1.
</event>
<event>
 7    1  0.2690635E-009  0.1031294E+03  0.7561462E-02  0.1273850E+00
         -1   -1    0    0    0  501 -0.00000000000E+00  0.00000000000E+00  0.11951436735E+03  0.11951436735E+03  0.00000000000E+00 0.  1.
          1   -1    0    0  501    0  0.00000000000E+00 -0.00000000000E+00 -0.14115972685E+03  0.14115972685E+03  0.00000000000E+00 0. -1.
         25    2    1    2    0    0  0.31255900573E+02 -0.14614307451E+02 -0.75677496953E+02  0.15021558025E+03  0.12508847949E+03 0.  0.
          5    1    3    3  502    0 -0.34199557026E+02  0.33772789693E+02 -0.28947654891E+02  0.56264110658E+02  0.41800000000E+01 0.  1.
         -5    1    3    3    0  502  0.65455457599E+02 -0.48387097144E+02 -0.46729842062E+02  0.93951469592E+02  0.41800000000E+01 0.  1.
        -11    1    1    2    0    0  0.19539605872E+02  0.16648786798E+02 -0.10988561900E+02  0.27923588454E+02  0.00000000000E+00 0. -1.
         11    1    1    2    0    0 -0.50795506445E+02 -0.20344793468E+01  0.65020699354E+02  0.82534925491E+02  0.00000000000E+00 0.  1.
</event>
<event>
 7    1  0.2690635E-009  0.9729129E+02  0.7561462E-02  0.1286097E+00
         -2   -1    0    0    0  501 -0.00000000000E+00  0.00000000000E+00  0.11961884156E+03  0.11961884156E+03  0.00000000000E+00 0.  1.
          2   -1    0    0  501    0  0.00000000000E+00 -0.00000000000E+00 -0.10708091543E+03  0.10708091543E+03  0.00000000000E+00 0. -1.
         25    2    1    2    0    0 -0.98132074811E+01  0.28145421661E+02 -0.22109612276E+01  0.12861185216E+03  0.12509059263E+03 0.  0.
          5    1    3    3  502    0  0.62594355601E+01  0.64675913965E+02  0.34967687680E+02  0.73907820713E+02  0.41800000000E+01 0.  1.
         -5    1    3    3    0  502 -0.16072643041E+02 -0.36530492305E+02 -0.37178648908E+02  0.54704031451E+02  0.41800000000E+01 0.  1.
        -11    1    1    2    0    0 -0.33714958507E+02 -0.30891374691E+02 -0.11542792484E+02  0.47161547004E+02  0.00000000000E+00 0. -1.
         11    1    1    2    0    0  0.43528165988E+02  0.27459530305E+01  0.26291679838E+02  0.50926357822E+02  0.00000000000E+00 0.  1.
</event>
<event>
 7    1  0.2690635E-009  0.1917582E+03  0.7561462E-02  0.1156885E+00
          2   -1    0    0  501    0  0.00000000000E+00  0.00000000000E+00  0.20147115247E+03  0.20147115247E+03  0.00000000000E+00 0. -1.
         -2   -1    0    0    0  501 -0.00000000000E+00 -0.00000000000E+00 -0.24119800988E+03  0.24119800988E+03  0.00000000000E+00 0.  1.
         25    2    1    2    0    0  0.72859654885E+01 -0.19059413817E+03 -0.26540707747E+02  0.22963194252E+03  0.12508880470E+03 0.  0.
          5    1    3    3  502    0  0.23845370327E+01 -0.30509085431E+02  0.44667117837E+02  0.54305746717E+02  0.41800000000E+01 0.  1.
         -5    1    3    3    0  502  0.49014284559E+01 -0.16008505274E+03 -0.71207825584E+02  0.17532619580E+03  0.41800000000E+01 0.  1.
        -11    1    1    2    0    0 -0.16672786959E+02  0.13629487721E+03  0.32904096385E+02  0.14119828235E+03  0.00000000000E+00 0. -1.
         11    1    1    2    0    0  0.93868214704E+01  0.54299260955E+02 -0.46090246042E+02  0.71838937477E+02  0.00000000000E+00 0.  1.
</event>
<event>
 7    1  0.2690635E-009  0.1185696E+03  0.7561462E-02  0.1245476E+00
         -1   -1    0    0    0  501 -0.00000000000E+00  0.00000000000E+00  0.46975212751E+02  0.46975212751E+02  0.00000000000E+00 0. -1.
          1   -1    0    0  501    0  0.00000000000E+00 -0.00000000000E+00 -0.32461977158E+03  0.32461977158E+03  0.00000000000E+00 0.  1.
         25    2    1    2    0    0 -0.10168669162E+02  0.57593902588E+02 -0.16532089170E+03  0.21540450641E+03  0.12509054600E+03 0.  0.
          5    1    3    3  502    0 -0.23407479250E+02 -0.34228450696E+02 -0.75322714200E+02  0.86084148345E+02  0.41800000000E+01 0. -1.
         -5    1    3    3    0  502  0.13238810088E+02  0.91822353283E+02 -0.89998177505E+02  0.12932035806E+03  0.41800000000E+01 0. -1.
        -11    1    1    2    0    0  0.17759835455E+02  0.18779068985E+02 -0.53756031131E+02  0.59647096076E+02  0.00000000000E+00 0.  1.
         11    1    1    2    0    0 -0.75911662934E+01 -0.76372971573E+02 -0.58567635991E+02  0.96543381845E+02  0.00000000000E+00 0. -1.
</event>
<event>
 7    1  0.2690635E-009  0.1188781E+03  0.7561462E-02  0.1244959E+00
          2   -1    0    0  501    0  0.00000000000E+00  0.00000000000E+00  0.22632400066E+02  0.22632400066E+02  0.00000000000E+00 0. -1.
         -2   -1    0    0    0  501 -0.00000000000E+00 -0.00000000000E+00 -0.72374301375E+03  0.72374301375E+03  0.00000000000E+00 0.  1.
         25    2    1    2    0    0  0.31971091224E+02 -0.57438320000E+02 -0.33717566419E+03  0.36559603911E+03  0.12510685037E+03 0.  0.
          5    1    3    3  502    0  0.51043320569E+02  0.13901722120E+02 -0.22541330639E+03  0.23157571019E+03  0.41800000000E+01 0. -1.
         -5    1    3    3    0  502 -0.19072229345E+02 -0.71340042120E+02 -0.11176235780E+03  0.13402032892E+03  0.41800000000E+01 0. -1.
        -11    1    1    2    0    0  0.20312921903E+02 -0.12161224725E+02 -0.10380498494E+03  0.10647058317E+03  0.00000000000E+00 0. -1.
         11    1    1    2    0    0 -0.52284013127E+02  0.69599544725E+02 -0.26012996456E+03  0.27430879154E+03  0.00000000000E+00 0.  1.
</event>
<event>
 7    1  0.2690635E-009  0.1233909E+03  0.7561462E-02  0.1237606E+00
         -2   -1    0    0    0  501 -0.00000000000E+00  0.00000000000E+00  0.18213589067E+02  0.18213589067E+02  0.00000000000E+00 0.  1.
          2   -1    0    0  501    0  0.00000000000E+00 -0.00000000000E+00 -0.11097270069E+04  0.11097270069E+04  0.00000000000E+00 0. -1.
         25    2    1    2    0    0  0.29350948286E+02 -0.70930561619E+02 -0.79197274756E+03  0.80545707437E+03  0.12509053934E+03 0.  0.
          5    1    3    3  502    0  0.76521476900E+02 -0.61825046380E+02 -0.54382582026E+03  0.55266795453E+03  0.41800000000E+01 0.  1.
         -5    1    3    3    0  502 -0.47170528613E+02 -0.91055152388E+01 -0.24814692731E+03  0.25278911984E+03  0.41800000000E+01 0.  1.
        -11    1    1    2    0    0  0.10087517104E+02  0.57580227976E+02 -0.80301145184E+02  0.99325296743E+02  0.00000000000E+00 0.  1.
         11    1    1    2    0    0 -0.39438465390E+02  0.13350333643E+02 -0.21923952508E+03  0.22315822485E+03  0.00000000000E+00 0. -1.
</event>
<event>
 7    1  0.2690635E-009  0.1006214E+03  0.7561462E-02  0.1278995E+00
         -4   -1    0    0    0  501 -0.00000000000E+00  0.00000000000E+00  0.18821761689E+03  0.18821761689E+03  0.00000000000E+00 0.  1.
          4   -1    0    0  501    0  0.00000000000E+00 -0.00000000000E+00 -0.10892392178E+03  0.10892392178E+03  0.00000000000E+00 0. -1.
         25    2    1    2    0    0 -0.18727424604E+02  0.34834383066E+02  0.13147720185E+03  0.18573532795E+03  0.12508879553E+03 0.  0.
          5    1    3    3  502    0 -0.61390154668E+02 -0.16625323633E+02  0.56203959496E+02  0.84979467750E+02  0.41800000000E+01 0.  1.
         -5    1    3    3    0  502  0.42662730063E+02  0.51459706699E+02  0.75273242350E+02  0.10075586020E+03  0.41800000000E+01 0.  1.
        -11    1    1    2    0    0 -0.74286607532E+01 -0.42601214565E+02 -0.67464003723E+02  0.80133889717E+02  0.00000000000E+00 0. -1.
         11    1    1    2    0    0  0.26156085358E+02  0.77668314983E+01  0.15280496994E+02  0.31272321007E+02  0.00000000000E+00 0.  1.
</event>
<event>
 7    1  0.2690635E-009  0.1318233E+03  0.7561462E-02  0.1224775E+00
          2   -1    0    0  501    0  0.00000000000E+00  0.00000000000E+00  0.91377962720E+03  0.91377962720E+03  0.00000000000E+00 0.  1.
         -2   -1    0    0    0  501 -0.00000000000E+00 -0.00000000000E+00 -0.19544801959E+02  0.19544801959E+02  0.00000000000E+00 0. -1.
         25    2    1    2    0    0  0.66116063877E+02 -0.32758103720E+02  0.42390172396E+03  0.44808985469E+03  0.12508964401E+03 0.  0.
          5    1    3    3  502    0  0.75129364462E+02 -0.71836924070E+02  0.32646399039E+03  0.34263854786E+03  0.41800000000E+01 0. -1.
         -5    1    3    3    0  502 -0.90133005853E+01  0.39078820350E+02  0.97437733577E+02  0.10545130683E+03  0.41800000000E+01 0. -1.
        -11    1    1    2    0    0 -0.40395259334E+02  0.65928304693E+02  0.31042837891E+03  0.31991263928E+03  0.00000000000E+00 0.  1.
         11    1    1    2    0    0 -0.25720804543E+02 -0.33170200973E+02  0.15990472237E+03  0.16532193519E+03  0.00000000000E+00 0. -1.
</event>
<event>
 7    1  0.2690635E-009  0.1486583E+03  0.7561462E-02  0.1202131E+00
          1   -1    0    0  501    0  0.00000000000E+00  0.00000000000E+00  0.23416024749E+03  0.23416024749E+03  0.00000000000E+00 0. -1.
         -1   -1    0    0    0  501 -0.00000000000E+00 -0.00000000000E+00 -0.11810734781E+03  0.11810734781E+03  0.00000000000E+00 0.  1.
         25    2    1    2    0    0 -0.19489295497E+02 -0.12128397828E+03  0.92995696865E+02  0.19844776343E+03  0.12507469427E+03 0.  0.
          5    1    3    3  502    0 -0.33541897245E+02 -0.14370852943E+03  0.85608504154E+02  0.17065605376E+03  0.41800000000E+01 0. -1.
         -5    1    3    3    0  502  0.14052601748E+02  0.22424551147E+02  0.73871927114E+01  0.27791709667E+02  0.41800000000E+01 0. -1.
        -11    1    1    2    0    0  0.13906246679E+02  0.95957952793E+02 -0.24181604964E+02  0.99930287799E+02  0.00000000000E+00 0.  1.
         11    1    1    2    0    0  0.55830488177E+01  0.25326025489E+02  0.47238807780E+02  0.53889544084E+02  0.00000000000E+00 0. -1.
</event>
<event>
 7    1  0.2690635E-009  0.1097415E+03  0.7561462E-02  0.1261049E+00
          1   -1    0    0  501    0  0.00000000000E+00  0.00000000000E+00  0.55259995955E+02  0.55259995955E+02  0.00000000000E+00 0. -1.
         -1   -1    0    0    0  501 -0.00000000000E+00 -0.00000000000E+00 -0.27209116211E+03  0.27209116211E+03  0.00000000000E+00 0.  1.
         25    2    1    2    0    0 -0.35763510562E+02 -0.41077502548E+02 -0.12114532118E+03  0.18246636022E+03  0.12510553091E+03 0.  0.
          5    1    3    3  502    0 -0.78257609097E+02 -0.28844792245E+02 -0.46437756563E+02  0.95552148358E+02  0.41800000000E+01 0.  1.
         -5    1    3    3    0  502  0.42494098535E+02 -0.12232710303E+02 -0.74707564621E+02  0.86914211860E+02  0.41800000000E+01 0.  1.
        -11    1    1    2    0    0  0.57017000023E+02  0.41129842662E+02 -0.10092238212E+03  0.12299564814E+03  0.00000000000E+00 0.  1.
         11    1    1    2    0    0 -0.21253489461E+02 -0.52340113972E-01  0.52365371438E+01  0.21889149710E+02  0.00000000000E+00 0. -1.
</event>
<event>
 7    1  0.2690635E-009  0.1774828E+03  0.7561462E-02  0.1170262E+00
          1   -1    0    0  501    0  0.00000000000E+00  0.00000000000E+00  0.11980059038E+03  0.11980059038E+03  0.00000000000E+00 0. -1.
         -1   -1    0    0    0  501 -0.00000000000E+00 -0.00000000000E+00 -0.26825630639E+03  0.26825630639E+03  0.00000000000E+00 0.  1.
         25    2    1    2    0    0  0.36388653327E+02  0.13682749703E+03 -0.96798889859E+02  0.21228221295E+03  0.12509122600E+03 0.  0.
          5    1    3    3  502    0  0.26071275931E+02  0.16037214639E+03 -0.78815840004E+02  0.18063318023E+03  0.41800000000E+01 0. -1.
         -5    1    3    3    0  502  0.10317377396E+02 -0.23544649359E+02 -0.17983049855E+02  0.31649032716E+02  0.41800000000E+01 0. -1.
        -11    1    1    2    0    0 -0.62568334403E+02 -0.11981740263E+03 -0.51225451597E+02  0.14455121354E+03  0.00000000000E+00 0.  1.
         11    1    1    2    0    0  0.26179681076E+02 -0.17010094393E+02 -0.43137456109E+00  0.31223470283E+02  0.00000000000E+00 0. -1.
</event>
<event>
 7    1  0.2690635E-009  0.1743363E+03  0.7561462E-02  0.1173400E+00
          2   -1    0    0  501    0  0.00000000000E+00  0.00000000000E+00  0.44877212914E+03  0.44877212914E+03  0.00000000000E+00 0. -1.
         -2   -1    0    0    0  501 -0.00000000000E+00 -0.00000000000E+00 -0.12223958377E+03  0.12223958377E+03  0.00000000000E+00 0.  1.
         25    2    1    2    0    0  0.91924250144E+02 -0.11733876123E+03  0.34410482086E+03  0.39531489031E+03  0.12508909668E+03 0.  0.
          5    1    3    3  502    0  0.95368689692E+02 -0.47468397416E+02  0.12004551511E+03  0.16055165469E+03  0.41800000000E+01 0. -1.
         -5    1    3    3    0  502 -0.34444395481E+01 -0.69870363814E+02  0.22405930575E+03  0.23476323562E+03  0.41800000000E+01 0. -1.
        -11    1    1    2    0    0 -0.28065745643E+02 -0.97828685708E+01  0.88344007273E+01  0.31007051330E+02  0.00000000000E+00 0. -1.
         11    1    1    2    0    0 -0.63858504501E+02  0.12712162980E+03 -0.26406676228E+02  0.14468977127E+03  0.00000000000E+00 0.  1.
</event>
<event>
 7    1  0.2690635E-009  0.1036543E+03  0.7561462E-02  0.1272794E+00
          2   -1    0    0  501    0  0.00000000000E+00  0.00000000000E+00  0.66134753742E+03  0.66134753742E+03  0.00000000000E+00 0. -1.
         -2   -1    0    0    0  501 -0.00000000000E+00 -0.00000000000E+00 -0.28992017040E+02  0.28992017040E+02  0.00000000000E+00 0.  1.
         25    2    1    2    0    0  0.11299896592E+02 -0.84708653054E+02  0.33494050318E+03  0.36760731377E+03  0.12508698133E+03 0.  0.
          5    1    3    3  502    0 -0.27501825064E+02 -0.58237813865E+02  0.58290243275E+02  0.86966764955E+02  0.41800000000E+01 0.  1.
         -5    1    3    3    0  502  0.38801721656E+02 -0.26470839188E+02  0.27665025991E+03  0.28064054881E+03  0.41800000000E+01 0.  1.
        -11    1    1    2    0    0 -0.18203571158E+02  0.10364446734E+02  0.58355348117E+01  0.21745004611E+02  0.00000000000E+00 0.  1.
         11    1    1    2    0    0  0.69036745659E+01  0.74344206320E+02  0.29157948239E+03  0.30098723608E+03  0.00000000000E+00 0. -1.
</event>
<event>
 7    1  0.2690635E-009  0.1229842E+03  0.7561462E-02  0.1238254E+00
          2   -1    0    0  501    0  0.00000000000E+00  0.00000000000E+00  0.59418503646E+03  0.59418503646E+03  0.00000000000E+00 0.  1.
         -2   -1    0    0    0  501 -0.00000000000E+00 -0.00000000000E+00 -0.41363144119E+02  0.41363144119E+02  0.00000000000E+00 0. -1.
         25    2    1    2    0    0 -0.98956244105E+01  0.58574737496E+02  0.49109800773E+03  0.51024927704E+03  0.12509255879E+03 0.  0.
          5    1    3    3  502    0 -0.43538026259E+01  0.97790650286E+02  0.32525289816E+03  0.33968939789E+03  0.41800000000E+01 0. -1.
         -5    1    3    3    0  502 -0.55418217846E+01 -0.39215912790E+02  0.16584510957E+03  0.17055987914E+03  0.41800000000E+01 0. -1.
        -11    1    1    2    0    0  0.12412372149E+02 -0.82842993056E+02  0.54174438558E+02  0.99759201450E+02  0.00000000000E+00 0. -1.
         11    1    1    2    0    0 -0.25167477390E+01  0.24268255560E+02  0.75494460491E+01  0.25539702088E+02  0.00000000000E+00 0.  1.
</event>
<event>
 7    1  0.2690635E-009  0.8322168E+02  0.7561462E-02  0.1320150E+00
          2   -1    0    0  501    0  0.00000000000E+00  0.00000000000E+00  0.27909467602E+03  0.27909467602E+03  0.00000000000E+00 0. -1.
         -2   -1    0    0    0  501 -0.00000000000E+00 -0.00000000000E+00 -0.54287221665E+02  0.54287221665E+02  0.00000000000E+00 0.  1.
         25    2    1    2    0    0  0.62582006053E+02  0.18351295424E+02  0.87280276416E+02  0.16588850127E+03  0.12509144925E+03 0.  0.
          5    1    3    3  502    0  0.41991670441E+02  0.29304695080E+02  0.11705682228E+03  0.12783519696E+03  0.41800000000E+01 0.  1.
         -5    1    3    3    0  502  0.20590335612E+02 -0.10953399656E+02 -0.29776545866E+02  0.38053304303E+02  0.41800000000E+01 0.  1.
        -11    1    1    2    0    0 -0.71157677877E+02 -0.45316791856E-01  0.12463372280E+03  0.14351648697E+03  0.00000000000E+00 0. -1.
         11    1    1    2    0    0  0.85756718239E+01 -0.18305978632E+02  0.12893455134E+02  0.23976909438E+02  0.00000000000E+00 0.  1.
</event>
<event>
 7    1  0.2690635E-009  0.1108508E+03  0.7561462E-02  0.1259002E+00
          1   -1    0    0  501    0  0.00000000000E+00  0.00000000000E+00  0.90568210722E+03  0.90568210722E+03  0.00000000000E+00 0. -1.
         -1   -1    0    0    0  501 -0.00000000000E+00 -0.00000000000E+00 -0.13844774618E+02  0.13844774618E+02  0.00000000000E+00 0.  1.
         25    2    1    2    0    0  0.23338619143E+02  0.10573857665E+02  0.50656922105E+03  0.52241205430E+03  0.12508189779E+03 0.  0.
          5    1    3    3  502    0 -0.48865804444E+02  0.21156427190E+02  0.24946945033E+03  0.25512338251E+03  0.41800000000E+01 0.  1.
         -5    1    3    3    0  502  0.72204423588E+02 -0.10582569525E+02  0.25709977073E+03  0.26728867180E+03  0.41800000000E+01 0.  1.
        -11    1    1    2    0    0 -0.57427781158E+02 -0.18236023105E+02  0.27133838610E+03  0.27794787706E+03  0.00000000000E+00 0. -1.
         11    1    1    2    0    0  0.34089162015E+02  0.76621654399E+01  0.11392972545E+03  0.11916695048E+03  0.00000000000E+00 0.  1.
</event>
<event>
 7    1  0.2690635E-009  0.1032370E+03  0.7561462E-02  0.1273632E+00
          2   -1    0    0  501    0  0.00000000000E+00  0.00000000000E+00  0.35903938724E+02  0.35903938724E+02  0.00000000000E+00 0. -1.
         -2   -1    0    0    0  501 -0.00000000000E+00 -0.00000000000E+00 -0.43157579909E+03  0.43157579909E+03  0.00000000000E+00 0.  1.
         25    2    1    2    0    0  0.21377954474E+02  0.22009557197E+02 -0.26368218118E+03  0.29345862392E+03  0.12509290041E+03 0.  0.
          5    1    3    3  502    0  0.61859349358E+02  0.34370113421E+02 -0.22522519028E+03  0.23611806906E+03  0.41800000000E+01 0. -1.
         -5    1    3    3    0  502 -0.40481394885E+02 -0.12360556225E+02 -0.38456990896E+02  0.57340554852E+02  0.41800000000E+01 0. -1.
        -11    1    1    2    0    0  0.34225639778E+02 -0.13542196913E+02 -0.10571986571E+03  0.11194407318E+03  0.00000000000E+00 0.  1.
         11    1    1    2    0    0 -0.55603594251E+02 -0.84673602839E+01 -0.26269813478E+02  0.62077040716E+02  0.00000000000E+00 0. -1.
</event>
<event>
 7    1  0.2690635E-009  0.2024027E+03  0.7561462E-02  0.1147728E+00
         -2   -1    0    0    0  501 -0.00000000000E+00  0.00000000000E+00  0.19594076718E+02  0.19594076718E+02  0.00000000000E+00 0.  1.
          2   -1    0    0  501    0  0.00000000000E+00 -0.00000000000E+00 -0.21333097858E+04  0.21333097858E+04  0.00000000000E+00 0. -1.
         25    2    1    2    0    0 -0.85071740226E+02  0.15197006617E+03 -0.10749393202E+04  0.10961175913E+04  0.12508848819E+03 0.  0.
          5    1    3    3  502    0 -0.10161155990E+03  0.61837923166E+02 -0.50451781220E+03  0.51836717978E+03  0.41800000000E+01 0.  1.
         -5    1    3    3    0  502  0.16539819674E+02  0.90132143006E+02 -0.57042150801E+03  0.57775041154E+03  0.41800000000E+01 0.  1.
        -11    1    1    2    0    0 -0.17405800406E+02 -0.30596878504E+02 -0.16981906966E+03  0.17342908430E+03  0.00000000000E+00 0.  1.
         11    1    1    2    0    0  0.10247754063E+03 -0.12137318767E+03 -0.86895731922E+03  0.88335718690E+03  0.00000000000E+00 0. -1.
</event>
<event>
 7    1  0.2690635E-009  0.9840240E+02  0.7561462E-02  0.1283692E+00
          1   -1    0    0  501    0  0.00000000000E+00  0.00000000000E+00  0.15409886959E+03  0.15409886959E+03  0.00000000000E+00 0. -1.
         -1   -1    0    0    0  501 -0.00000000000E+00 -0.00000000000E+00 -0.12365345521E+03  0.12365345521E+03  0.00000000000E+00 0.  1.
         25    2    1    2    0    0  0.30815432606E+02  0.91383855729E+01 -0.61415186560E+02  0.14301339178E+03  0.12509158289E+03 0.  0.
          5    1    3    3  502    0  0.54953072016E+02  0.45298272618E+02 -0.68340777099E+02  0.98791233623E+02  0.41800000000E+01 0.  1.
         -5    1    3    3    0  502 -0.24137639410E+02 -0.36159887046E+02  0.69255905390E+01  0.44222158154E+02  0.41800000000E+01 0.  1.
        -11    1    1    2    0    0  0.18150684181E+02  0.18203864290E+02 -0.15852624819E+01  0.25755408528E+02  0.00000000000E+00 0.  1.
         11    1    1    2    0    0 -0.48966116787E+02 -0.27342249863E+02  0.93445863420E+02  0.10898352449E+03  0.00000000000E+00 0. -1.
</event>
<event>
 7    1  0.2690635E-009  0.1087625E+03  0.7561462E-02  0.1262879E+00
          4   -1    0    0  501    0  0.00000000000E+00  0.00000000000E+00  0.11332455253E+03  0.11332455253E+03  0.00000000000E+00 0. -1.
         -4   -1    0    0    0  501 -0.00000000000E+00 -0.00000000000E+00 -0.18553456018E+03  0.18553456018E+03  0.00000000000E+00 0.  1.
         25    2    1    2    0    0 -0.80916219016E+02  0.37228554866E+02 -0.11230536320E+02  0.15397403949E+03  0.12509388511E+03 0.  0.
          5    1    3    3  502    0 -0.63956857557E+02  0.14569751590E+02 -0.65394630593E+02  0.92718322895E+02  0.41800000000E+01 0. -1.
         -5    1    3    3    0  502 -0.16959361459E+02  0.22658803277E+02  0.54164094273E+02  0.61255716594E+02  0.41800000000E+01 0. -1.
        -11    1    1    2    0    0 -0.15344342664E+02  0.74566519466E+01 -0.29689161904E+02  0.34241741261E+02  0.00000000000E+00 0.  1.
         11    1    1    2    0    0  0.96260561680E+02 -0.44685206813E+02 -0.31290309421E+02  0.11064333196E+03  0.00000000000E+00 0. -1.
</event>
<event>
 7    1  0.2690635E-009  0.1197467E+03  0.7561462E-02  0.1243516E+00
         -2   -1    0    0    0  501 -0.00000000000E+00  0.00000000000E+00  0.32910711662E+02  0.32910711662E+02  0.00000000000E+00 0.  1.
          2   -1    0    0  501    0  0.00000000000E+00 -0.00000000000E+00 -0.60542979087E+03  0.60542979087E+03  0.00000000000E+00 0. -1.
         25    2    1    2    0    0  0.60705867284E+02  0.38308577032E+02 -0.18658151188E+03  0.23582449427E+03  0.12509109530E+03 0.  0.
          5    1    3    3  502    0  0.82257917835E+02  0.67114648065E+02 -0.12198191219E+03  0.16176464488E+03  0.41800000000E+01 0.  1.
         -5    1    3    3    0  502 -0.21552050550E+02 -0.28806071033E+02 -0.64599599690E+02  0.74059849389E+02  0.41800000000E+01 0.  1.
        -11    1    1    2    0    0 -0.57082623432E+02  0.14547428092E+01 -0.32280772393E+03  0.32781910988E+03  0.00000000000E+00 0. -1.
         11    1    1    2    0    0 -0.36232438521E+01 -0.39763319841E+02 -0.63129843404E+02  0.74696898390E+02  0.00000000000E+00 0.  1.
</event>
<event>
 7    1  0.2690635E-009  0.1108286E+03  0.7561462E-02  0.1259043E+00
         -1   -1    0    0    0  501 -0.00000000000E+00  0.00000000000E+00  0.29661193922E+03  0.29661193922E+03  0.00000000000E+00 0.  1.
          1   -1    0    0  501    0  0.00000000000E+00 -0.00000000000E+00 -0.59389622776E+02  0.59389622776E+02  0.00000000000E+00 0. -1.
         25    2    1    2    0    0  0.28131769365E+02 -0.65803515815E+02  0.16673163504E+03  0.22038425932E+03  0.12509310329E+03 0.  0.
          5    1    3    3  502    0 -0.88298261012E+01  0.15339626919E+02  0.11659526318E+03  0.11800507523E+03  0.41800000000E+01 0. -1.
         -5    1    3    3    0  502  0.36961595467E+02 -0.81143142734E+02  0.50136371859E+02  0.10237918409E+03  0.41800000000E+01 0. -1.
        -11    1    1    2    0    0  0.24309343634E+02  0.55739822115E+02  0.48848011750E+02  0.78000001342E+02  0.00000000000E+00 0.  1.
         11    1    1    2    0    0 -0.52441112999E+02  0.10063693700E+02  0.21642669655E+02  0.57617301336E+02  0.00000000000E+00 0. -1.
</event>
<event>
 7    1  0.2690635E-009  0.1096755E+03  0.7561462E-02  0.1261172E+00
         -2   -1    0    0    0  501 -0.00000000000E+00  0.00000000000E+00  0.53540118150E+03  0.53540118150E+03  0.00000000000E+00 0.  1.
          2   -1    0    0  501    0  0.00000000000E+00 -0.00000000000E+00 -0.35715901286E+02  0.35715901286E+02  0.00000000000E+00 0. -1.
         25    2    1    2    0    0 -0.90554080937E+01  0.52724659226E+02  0.41796327287E+03  0.43954630583E+03  0.12508304198E+03 0.  0.
          5    1    3    3  502    0 -0.52909883765E+02  0.69774007444E+02  0.24346359958E+03  0.25876604228E+03  0.41800000000E+01 0.  1.
         -5    1    3    3    0  502  0.43854475672E+02 -0.17049348218E+02  0.17449967329E+03  0.18078026355E+03  0.41800000000E+01 0.  1.
        -11    1    1    2    0    0 -0.48994331004E+01 -0.65407259256E+02  0.89677508419E+02  0.11110431821E+03  0.00000000000E+00 0.  1.
         11    1    1    2    0    0  0.13954841194E+02  0.12682600030E+02 -0.79555010794E+01  0.20466458748E+02  0.00000000000E+00 0. -1.
</event>
<event>
 7    1  0.2690635E-009  0.1448720E+03  0.7561462E-02  0.1206920E+00
         -2   -1    0    0    0  501 -0.00000000000E+00  0.00000000000E+00  0.10638675477E+03  0.10638675477E+03  0.00000000000E+00 0.  1.
          2   -1    0    0  501    0  0.00000000000E+00 -0.00000000000E+00 -0.31465383133E+03  0.31465383133E+03  0.00000000000E+00 0. -1.
         25    2    1    2    0    0  0.99125060282E+02 -0.82734055230E+02 -0.14786486699E+03  0.23276900883E+03  0.12508673435E+03 0.  0.
          5    1    3    3  502    0  0.99893451448E+02 -0.25600797936E+02 -0.40102458943E+02  0.11072390036E+03  0.41800000000E+01 0. -1.
         -5    1    3    3    0  502 -0.76839116517E+00 -0.57133257294E+02 -0.10776240805E+03  0.12204510848E+03  0.41800000000E+01 0. -1.
        -11    1    1    2    0    0 -0.14876681223E+02  0.15229342833E+02  0.37117971591E+02  0.42790096311E+02  0.00000000000E+00 0.  1.
         11    1    1    2    0    0 -0.84248379060E+02  0.67504712397E+02 -0.97520181154E+02  0.14548148096E+03  0.00000000000E+00 0. -1.
</event>
<event>
 7    1  0.2690635E-009  0.1150651E+03  0.7561462E-02  0.1251467E+00
          2   -1    0    0  501    0  0.00000000000E+00  0.00000000000E+00  0.37147112896E+03  0.37147112896E+03  0.00000000000E+00 0. -1.
         -2   -1    0    0    0  501 -0.00000000000E+00 -0.00000000000E+00 -0.46915214478E+02  0.46915214478E+02  0.00000000000E+00 0.  1.
         25    2    1    2    0    0  0.33158136042E+02 -0.56225719955E+02  0.11662268015E+03  0.18305295604E+03  0.12508693625E+03 0.  0.
          5    1    3    3  502    0 -0.22758935941E+02 -0.77675757155E+02  0.68024760966E+02  0.10581272570E+03  0.41800000000E+01 0.  1.
         -5    1    3    3    0  502  0.55917071984E+02  0.21450037200E+02  0.48597919186E+02  0.77240230348E+02  0.41800000000E+01 0.  1.
        -11    1    1    2    0    0  0.63649651262E+01  0.48322414936E+02  0.41268922818E+02  0.63864642462E+02  0.00000000000E+00 0.  1.
         11    1    1    2    0    0 -0.39523101168E+02  0.79033050189E+01  0.16666431151E+03  0.17146874493E+03  0.00000000000E+00 0. -1.
</event>
<event>
 7    1  0.2690635E-009  0.1395266E+03  0.7561462E-02  0.1213967E+00
         -2   -1    0    0    0  501 -0.00000000000E+00  0.00000000000E+00  0.39083360861E+02  0.39083360861E+02  0.00000000000E+00 0.  1.
          2   -1    0    0  501    0  0.00000000000E+00 -0.00000000000E+00 -0.68668322922E+03  0.68668322922E+03  0.00000000000E+00 0. -1.
         25    2    1    2    0    0 -0.97590794459E+02 -0.16011512269E+02 -0.47234258502E+03  0.49853305918E+03  0.12508941513E+03 0.  0.
          5    1    3    3  502    0 -0.10549298971E+03  0.27282157521E+02 -0.26552602192E+03  0.28704464411E+03  0.41800000000E+01 0. -1.
         -5    1    3    3    0  502  0.79021952484E+01 -0.43293669790E+02 -0.20681656310E+03  0.21148841506E+03  0.41800000000E+01 0. -1.
        -11    1    1    2    0    0  0.20409587404E+02 -0.29747557294E+02 -0.11142118557E+03  0.11711596397E+03  0.00000000000E+00 0. -1.
         11    1    1    2    0    0  0.77181207055E+02  0.45759069563E+02 -0.63836097771E+02  0.11011756694E+03  0.00000000000E+00 0.  1.
</event>
<event>
 7    1  0.2690635E-009  0.1438447E+03  0.7561462E-02  0.1208247E+00
          2   -1    0    0  501    0  0.00000000000E+00  0.00000000000E+00  0.15724533585E+03  0.15724533585E+03  0.00000000000E+00 0. -1.
         -2   -1    0    0    0  501 -0.00000000000E+00 -0.00000000000E+00 -0.16476047151E+03  0.16476047151E+03  0.00000000000E+00 0.  1.
         25    2    1    2    0    0  0.96746788048E+02  0.41422387585E+02 -0.58794103989E+02  0.17372167259E+03  0.12508684053E+03 0.  0.
          5    1    3    3  502    0  0.59707600864E+02 -0.41237549903E+02 -0.29335532804E+02  0.78380986265E+02  0.41800000000E+01 0.  1.
         -5    1    3    3    0  502  0.37039187183E+02  0.82659937488E+02 -0.29458571185E+02  0.95340686325E+02  0.41800000000E+01 0.  1.
        -11    1    1    2    0    0  0.19816542570E+01 -0.23992834243E+02 -0.14754550145E+02  0.28236143480E+02  0.00000000000E+00 0.  1.
         11    1    1    2    0    0 -0.98728442304E+02 -0.17429553341E+02  0.66033518477E+02  0.12004799129E+03  0.00000000000E+00 0. -1.
</event>
<event>
 7    1  0.2690635E-009  0.3178507E+03  0.7561462E-02  0.1076643E+00
          1   -1    0    0  501    0  0.00000000000E+00  0.00000000000E+00  0.16049040969E+03  0.16049040969E+03  0.00000000000E+00 0. -1.
         -1   -1    0    0    0  501 -0.00000000000E+00 -0.00000000000E+00 -0.77734116443E+03  0.77734116443E+03  0.00000000000E+00 0.  1.
         25    2    1    2    0    0 -0.19007562764E+03  0.23837613176E+03 -0.12595443853E+03  0.35279508646E+03  0.12509167848E+03 0.  0.
          5    1    3    3  502    0 -0.18679514341E+03  0.17484995093E+03 -0.13345963744E+03  0.28860678815E+03  0.41800000000E+01 0.  1.
         -5    1    3    3    0  502 -0.32804842285E+01  0.63526180839E+02  0.75051989119E+01  0.64188298306E+02  0.41800000000E+01 0.  1.
        -11    1    1    2    0    0 -0.65024601274E+00 -0.43063051687E+02 -0.45609727887E+02  0.62730347667E+02  0.00000000000E+00 0. -1.
         11    1    1    2    0    0  0.19072587365E+03 -0.19531308008E+03 -0.44528658833E+03  0.52230613999E+03  0.00000000000E+00 0.  1.
</event>
<event>
 7    1  0.2690635E-009  0.9079371E+02  0.7561462E-02  0.1300941E+00
          1   -1    0    0  501    0  0.00000000000E+00  0.00000000000E+00  0.78472905759E+02  0.78472905759E+02  0.00000000000E+00 0. -1.
         -1   -1    0    0    0  501 -0.00000000000E+00 -0.00000000000E+00 -0.17309470560E+03  0.17309470560E+03  0.00000000000E+00 0.  1.
         25    2    1    2    0    0 -0.13407743515E+02 -0.12554272413E+02 -0.13363472286E+02  0.12713607421E+03  0.12509045380E+03 0.  0.
          5    1    3    3  502    0  0.31871574085E+02 -0.24913929851E+02  0.39240015901E+02  0.56513293862E+02  0.41800000000E+01 0. -1.
         -5    1    3    3    0  502 -0.45279317600E+02  0.12359657438E+02 -0.52603488187E+02  0.70622780346E+02  0.41800000000E+01 0. -1.
        -11    1    1    2    0    0 -0.30979664854E+02 -0.21619926771E+02 -0.26918855121E+02  0.46387343414E+02  0.00000000000E+00 0.  1.
         11    1    1    2    0    0  0.44387408369E+02  0.34174199183E+02 -0.54339472437E+02  0.78044193739E+02  0.00000000000E+00 0. -1.
</event>
<event>
 7    1  0.3636788E-009  0.8946100E+02  0.7561462E-02  0.1304162E+00
          1   -1    0    0  501    0  0.00000000000E+00  0.00000000000E+00  0.31795365234E+03  0.31795365234E+03  0.00000000000E+00 0. -1.
         -1   -1    0    0    0  501 -0.00000000000E+00 -0.00000000000E+00 -0.47778241839E+02  0.47778241839E+02  0.00000000000E+00 0.  1.
         25    2    1    2    0    0  0.43585256464E+02 -0.38242825788E+01  0.94503230260E+02  0.16276670898E+03  0.12509133185E+03 0.  0.
          5    1    3    3  502    0  0.31583494863E+02 -0.55105319797E+02  0.89321308288E+02  0.10968081843E+03  0.41800000000E+01 0.  1.
         -5    1    3    3    0  502  0.12001761600E+02  0.51281037218E+02  0.51819219724E+01  0.53085890545E+02  0.41800000000E+01 0.  1.
        -11    1    1    2    0    0 -0.20395081682E+02  0.24143500041E+02  0.81630205994E+01  0.32642041241E+02  0.00000000000E+00 0.  1.
         11    1    1    2    0    0 -0.23190174781E+02 -0.20319217463E+02  0.16750915964E+03  0.17032314396E+03  0.00000000000E+00 0. -1.
</event>
<event>
 7    1  0.2690635E-009  0.9927894E+02  0.7561462E-02  0.1281820E+00
         -2   -1    0    0    0  501 -0.00000000000E+00  0.00000000000E+00  0.12345822662E+03  0.12345822662E+03  0.00000000000E+00 0.  1.
          2   -1    0    0  501    0  0.00000000000E+00 -0.00000000000E+00 -0.10686312641E+03  0.10686312641E+03  0.00000000000E+00 0. -1.
         25    2    1    2    0    0 -0.15860977895E+02  0.76998593133E+01  0.60606103854E+01  0.12647094844E+03  0.12508921356E+03 0.  0.
          5    1    3    3  502    0  0.32403277754E+02 -0.42651340676E+02 -0.10308068795E+02  0.54706836437E+02  0.41800000000E+01 0. -1.
         -5    1    3    3    0  502 -0.48264255649E+02  0.50351199989E+02  0.16368679180E+02  0.71764112005E+02  0.41800000000E+01 0. -1.
        -11    1    1    2    0    0 -0.60260753824E+01  0.30415131592E+02 -0.30664075188E+02  0.43608248318E+02  0.00000000000E+00 0. -1.
         11    1    1    2    0    0  0.21887053277E+02 -0.38114990905E+02  0.41198565009E+02  0.60242156266E+02  0.00000000000E+00 0.  1.
</event>
<event>
 7    1  0.2690635E-009  0.1322010E+03  0.7561462E-02  0.1224226E+00
          1   -1    0    0  501    0  0.00000000000E+00  0.00000000000E+00  0.26312408494E+03  0.26312408494E+03  0.00000000000E+00 0. -1.
         -1   -1    0    0    0  501 -0.00000000000E+00 -0.00000000000E+00 -0.68479213991E+02  0.68479213991E+02  0.00000000000E+00 0.  1.
         25    2    1    2    0    0  0.71804953212E+02 -0.24700025443E+02  0.12101869755E+03  0.18989236652E+03  0.12509014007E+03 0.  0.
          5    1    3    3  502    0  0.57747998422E+02 -0.74209737700E+02  0.69974003437E+02  0.11728490972E+03  0.41800000000E+01 0. -1.
         -5    1    3    3    0  502  0.14056954789E+02  0.49509712257E+02  0.51044694113E+02  0.72607456799E+02  0.41800000000E+01 0. -1.
        -11    1    1    2    0    0 -0.65918998963E+02 -0.23575963838E+02  0.29245238961E+02  0.75871104494E+02  0.00000000000E+00 0.  1.
         11    1    1    2    0    0 -0.58859542487E+01  0.48275989281E+02  0.44380934433E+02  0.65839827913E+02  0.00000000000E+00 0. -1.
</event>
<event>
 7    1  0.2690635E-009  0.1336207E+03  0.7561462E-02  0.1222180E+00
          2   -1    0    0  501    0  0.00000000000E+00  0.00000000000E+00  0.34276916322E+03  0.34276916322E+03  0.00000000000E+00 0. -1.
         -2   -1    0    0    0  501 -0.00000000000E+00 -0.00000000000E+00 -0.77069002306E+02  0.77069002306E+02  0.00000000000E+00 0.  1.
         25    2    1    2    0    0  0.84380033179E+02  0.39741355411E+02  0.24354065266E+03  0.28923897497E+03  0.12509104609E+03 0.  0.
          5    1    3    3  502    0 -0.21168543164E+02 -0.11347097703E+02  0.72758448655E+01  0.25441583372E+02  0.41800000000E+01 0. -1.
         -5    1    3    3    0  502  0.10554857634E+03  0.51088453114E+02  0.23626480780E+03  0.26379739159E+03  0.41800000000E+01 0. -1.
        -11    1    1    2    0    0 -0.40601424741E+02 -0.63760635635E+02  0.27370772421E+02  0.80393118676E+02  0.00000000000E+00 0. -1.
         11    1    1    2    0    0 -0.43778608438E+02  0.24019280224E+02 -0.52112641719E+01  0.50206071879E+02  0.00000000000E+00 0.  1.
</event>
<event>
 7    1  0.2690635E-009  0.1313605E+03  0.7561462E-02  0.1225451E+00
         -1   -1    0    0    0  501 -0.00000000000E+00  0.00000000000E+00  0.16283755550E+03  0.16283755550E+03  0.00000000000E+00 0.  1.
          1   -1    0    0  501    0  0.00000000000E+00 -0.00000000000E+00 -0.36678754143E+03  0.36678754143E+03  0.00000000000E+00 0. -1.
         25    2    1    2    0    0 -0.11766052691E+02 -0.10691511574E+03 -0.31078977726E+03  0.35186132885E+03  0.12508727800E+03 0.  0.
          5    1    3    3  502    0  0.54416746838E+01  0.22373806789E+02 -0.13086210441E+02  0.26812690229E+02  0.41800000000E+01 0. -1.
         -5    1    3    3    0  502 -0.17207727375E+02 -0.12928892253E+03 -0.29770356682E+03  0.32504863862E+03  0.41800000000E+01 0. -1.
        -11    1    1    2    0    0  0.13639724627E+02  0.48610431761E+02  0.10821459114E+03  0.11941278784E+03  0.00000000000E+00 0.  1.
         11    1    1    2    0    0 -0.18736719367E+01  0.58304683977E+02 -0.13747998026E+01  0.58350980238E+02  0.00000000000E+00 0. -1.
</event>
<event>
 7    1  0.2690635E-009  0.1082183E+03  0.7561462E-02  0.1263905E+00
          1   -1    0    0  501    0  0.00000000000E+00  0.00000000000E+00  0.97913983963E+02  0.97913983963E+02  0.00000000000E+00 0. -1.
         -1   -1    0    0    0  501 -0.00000000000E+00 -0.00000000000E+00 -0.17465803055E+03  0.17465803055E+03  0.00000000000E+00 0.  1.
         25    2    1    2    0    0 -0.28764490134E+02  0.45180780916E+02 -0.84756520043E+02  0.16030154551E+03  0.12507685216E+03 0.  0.
          5    1    3    3  502    0  0.37019650231E+02  0.57803991366E+02 -0.46993314047E+02  0.83292255860E+02  0.41800000000E+01 0.  1.
         -5    1    3    3    0  502 -0.65784140365E+02 -0.12623210450E+02 -0.37763205996E+02  0.77009289652E+02  0.41800000000E+01 0.  1.
        -11    1    1    2    0    0  0.96872513335E+01 -0.57193614222E+02 -0.32069940798E+02  0.66282980085E+02  0.00000000000E+00 0.  1.
         11    1    1    2    0    0  0.19077238800E+02  0.12012833306E+02  0.40082414255E+02  0.45987488916E+02  0.00000000000E+00 0. -1.
</event>
<event>
 7    1  0.2690635E-009  0.8047873E+02  0.7561462E-02  0.1327698E+00
         -1   -1    0    0    0  501 -0.00000000000E+00  0.00000000000E+00  0.57992031076E+02  0.57992031076E+02  0.00000000000E+00 0.  1.
          1   -1    0    0  501    0  0.00000000000E+00 -0.00000000000E+00 -0.20744588822E+03  0.20744588822E+03  0.00000000000E+00 0. -1.
         25    2    1    2    0    0 -0.19861335492E+02 -0.21954055150E+01 -0.86682538986E+02  0.15349360995E+03  0.12508850178E+03 0.  0.
          5    1    3    3  502    0  0.48706170177E+02 -0.24106565117E+02 -0.34907097989E+02  0.64725538893E+02  0.41800000000E+01 0. -1.
         -5    1    3    3    0  502 -0.68567505668E+02  0.21911159602E+02 -0.51775440997E+02  0.88768071057E+02  0.41800000000E+01 0. -1.
        -11    1    1    2    0    0  0.14570564312E+02 -0.12204035458E+02  0.20101118637E+02  0.27663962050E+02  0.00000000000E+00 0.  1.
         11    1    1    2    0    0  0.52907711795E+01  0.14399440973E+02 -0.82872436792E+02  0.84280347294E+02  0.00000000000E+00 0. -1.
</event>
<event>
 7    1  0.2690635E-009  0.1128049E+03  0.7561462E-02  0.1255462E+00
          1   -1    0    0  501    0  0.00000000000E+00  0.00000000000E+00  0.14348354761E+04  0.14348354761E+04  0.00000000000E+00 0. -1.
         -1   -1    0    0    0  501 -0.00000000000E+00 -0.00000000000E+00 -0.10990594709E+02  0.10990594709E+02  0.00000000000E+00 0.  1.
         25    2    1    2    0    0  0.68478340992E+01  0.58613864073E+02  0.96138811123E+03  0.97128560087E+03  0.12508453198E+03 0.  0.
          5    1    3    3  502    0 -0.24292304042E+02 -0.30693760779E+02  0.18468949912E+03  0.18883830775E+03  0.41800000000E+01 0. -1.
         -5    1    3    3    0  502  0.31140138141E+02  0.89307624853E+02  0.77669861211E+03  0.78244729312E+03  0.41800000000E+01 0. -1.
        -11    1    1    2    0    0 -0.74282102162E+01 -0.74903192315E+02  0.44210136610E+03  0.44846324759E+03  0.00000000000E+00 0. -1.
         11    1    1    2    0    0  0.58037611701E+00  0.16289328242E+02  0.20355404023E+02  0.26077222320E+02  0.00000000000E+00 0.  1.
</event>
<event>
 7    1  0.2690635E-009  0.1751688E+03  0.7561462E-02  0.1172562E+00
         -1   -1    0    0    0  501 -0.00000000000E+00  0.00000000000E+00  0.46160920370E+03  0.46160920370E+03  0.00000000000E+00 0.  1.
          1   -1    0    0  501    0  0.00000000000E+00 -0.00000000000E+00 -0.92081722706E+02  0.92081722706E+02  0.00000000000E+00 0. -1.
         25    2    1    2    0    0  0.11583031822E+03 -0.11202618450E+03  0.28466981355E+03  0.35021610072E+03  0.12509150979E+03 0.  0.
          5    1    3    3  502    0  0.44176053427E+02  0.11401146498E+02  0.21061816043E+02  0.50424025354E+02  0.41800000000E+01 0.  1.
         -5    1    3    3    0  502  0.71654264793E+02 -0.12342733100E+03  0.26360799751E+03  0.29979207536E+03  0.41800000000E+01 0.  1.
        -11    1    1    2    0    0 -0.59176511630E+02  0.66875608699E+02  0.94933819228E+02  0.13033279173E+03  0.00000000000E+00 0.  1.
         11    1    1    2    0    0 -0.56653806590E+02  0.45150575799E+02 -0.10076151788E+02  0.73142033954E+02  0.00000000000E+00 0. -1.
</event>
<event>
 7    1  0.2690635E-009  0.1168411E+03  0.7561462E-02  0.1248401E+00
          1   -1    0    0  501    0  0.00000000000E+00  0.00000000000E+00  0.10794173078E+04  0.10794173078E+04  0.00000000000E+00 0. -1.
         -1   -1    0    0    0  501 -0.00000000000E+00 -0.00000000000E+00 -0.18720404882E+02  0.18720404882E+02  0.00000000000E+00 0.  1.
         25    2    1    2    0    0 -0.33346950892E+02 -0.84603427079E+02  0.51866202675E+03  0.54122812527E+03  0.12509127302E+03 0.  0.
          5    1    3    3  502    0  0.99280490058E+01  0.18752360116E+00  0.32708221603E+03  0.32725960607E+03  0.41800000000E+01 0.  1.
         -5    1    3    3    0  502 -0.43274999897E+02 -0.84790950681E+02  0.19157981072E+03  0.21396851920E+03  0.41800000000E+01 0.  1.
        -11    1    1    2    0    0 -0.30620132920E+02  0.36144143716E+02  0.18523077724E+03  0.19119213504E+03  0.00000000000E+00 0.  1.
         11    1    1    2    0    0  0.63967083811E+02  0.48459283364E+02  0.35680409893E+03  0.36571745237E+03  0.00000000000E+00 0. -1.
</event>
<event>
 7    1  0.2690635E-009  0.1481904E+03  0.7561462E-02  0.1202714E+00
          2   -1    0    0  501    0  0.00000000000E+00  0.00000000000E+00  0.30995752852E+03  0.30995752852E+03  0.00000000000E+00 0. -1.
         -2   -1    0    0    0  501 -0.00000000000E+00 -0.00000000000E+00 -0.84848515538E+02  0.84848515538E+02  0.00000000000E+00 0.  1.
         25    2    1    2    0    0  0.18091549991E+02  0.10260554507E+03  0.46036272082E+02  0.16918045143E+03  0.12508990663E+03 0.  0.
          5    1    3    3  502    0  0.35142475296E+00 -0.28999240030E+02  0.14189814632E+02  0.32556146286E+02  0.41800000000E+01 0. -1.
         -5    1    3    3    0  502  0.17740125238E+02  0.13160478510E+03  0.31846457450E+02  0.13662430515E+03  0.41800000000E+01 0. -1.
        -11    1    1    2    0    0 -0.52292806854E+02 -0.63815931743E+02  0.13218478869E+03  0.15581986123E+03  0.00000000000E+00 0.  1.
         11    1    1    2    0    0  0.34201256863E+02 -0.38789613328E+02  0.46887952212E+02  0.69805731396E+02  0.00000000000E+00 0. -1.
</event>
<event>
 7    1  0.2690635E-009  0.1333481E+03  0.7561462E-02  0.1222571E+00
          1   -1    0    0  501    0  0.00000000000E+00  0.00000000000E+00  0.42559834676E+03  0.42559834676E+03  0.00000000000E+00 0. -1.
         -1   -1    0    0    0  501 -0.00000000000E+00 -0.00000000000E+00 -0.95629746830E+02  0.95629746830E+02  0.00000000000E+00 0.  1.
         25    2    1    2    0    0 -0.16776186212E+02 -0.98147888064E+02 -0.89389329447E+01  0.16012998336E+03  0.12508900309E+03 0.  0.
          5    1    3    3  502    0  0.16455229516E+02 -0.10673254519E+03  0.25805866223E+02  0.11111267215E+03  0.41800000000E+01 0. -1.
         -5    1    3    3    0  502 -0.33231415728E+02  0.85846571262E+01 -0.34744799168E+02  0.49017311212E+02  0.41800000000E+01 0. -1.
        -11    1    1    2    0    0 -0.25769372168E+02  0.65594564833E+02  0.20968064801E+03  0.22120732725E+03  0.00000000000E+00 0. -1.
         11    1    1    2    0    0  0.42545558380E+02  0.32553323230E+02  0.12922688486E+03  0.13989078298E+03  0.00000000000E+00 0.  1.
</event>
<event>
 7    1  0.2690635E-009  0.8152175E+02  0.7561462E-02  0.1324788E+00
          2   -1    0    0  501    0  0.00000000000E+00  0.00000000000E+00  0.42700730389E+03  0.42700730389E+03  0.00000000000E+00 0.  1.
         -2   -1    0    0    0  501 -0.00000000000E+00 -0.00000000000E+00 -0.30491696203E+02  0.30491696203E+02  0.00000000000E+00 0. -1.
         25    2    1    2    0    0 -0.86864114169E+01  0.14160545040E+02  0.29067401016E+03  0.31688395655E+03  0.12509231372E+03 0.  0.
          5    1    3    3  502    0  0.20628510582E+02 -0.27982824858E+02  0.24666155811E+03  0.24913444279E+03  0.41800000000E+01 0. -1.
         -5    1    3    3    0  502 -0.29314921998E+02  0.42143369898E+02  0.44012452054E+02  0.67749513754E+02  0.41800000000E+01 0. -1.
        -11    1    1    2    0    0 -0.27692387585E+02 -0.26280461069E+02  0.13273227513E+02  0.40419172836E+02  0.00000000000E+00 0. -1.
         11    1    1    2    0    0  0.36378799001E+02  0.12119916028E+02  0.92568370005E+02  0.10019587071E+03  0.00000000000E+00 0.  1.
</event>
<event>
 7    1  0.2690635E-009  0.1010170E+03  0.7561462E-02  0.1278172E+00
         -1   -1    0    0    0  501 -0.00000000000E+00  0.00000000000E+00  0.34549211305E+02  0.34549211305E+02  0.00000000000E+00 0.  1.
          1   -1    0    0  501    0  0.00000000000E+00 -0.00000000000E+00 -0.38151640035E+03  0.38151640035E+03  0.00000000000E+00 0. -1.
         25    2    1    2    0    0  0.19586661860E+02  0.92067403154E+01 -0.26517860192E+03  0.29399927876E+03  0.12508990209E+03 0.  0.
          5    1    3    3  502    0  0.64046927307E+02 -0.26726706638E+02 -0.15126183351E+03  0.16647504444E+03  0.41800000000E+01 0. -1.
         -5    1    3    3    0  502 -0.44460265447E+02  0.35933446954E+02 -0.11391676841E+03  0.12752423431E+03  0.41800000000E+01 0. -1.
        -11    1    1    2    0    0 -0.25861282281E+02 -0.37864558780E+02 -0.13588884271E+02  0.47824559680E+02  0.00000000000E+00 0.  1.
         11    1    1    2    0    0  0.62746204209E+01  0.28657818465E+02 -0.68199702860E+02  0.74241773220E+02  0.00000000000E+00 0. -1.
</event>
<event>
 7    1  0.2690635E-009  0.1147379E+03  0.7561462E-02  0.1252039E+00
         -1   -1    0    0    0  501 -0.00000000000E+00  0.00000000000E+00  0.41603336364E+03  0.41603336364E+03  0.00000000000E+00 0.  1.
          1   -1    0    0  501    0  0.00000000000E+00 -0.00000000000E+00 -0.39571423382E+02  0.39571423382E+02  0.00000000000E+00 0. -1.
         25    2    1    2    0    0 -0.55800062147E+02 -0.29387523885E+02  0.15100828106E+03  0.20597996011E+03  0.12508784723E+03 0.  0.
          5    1    3    3  502    0  0.32352834824E+02 -0.19111554018E+02  0.96525082792E+01  0.39020516837E+02  0.41800000000E+01 0.  1.
         -5    1    3    3    0  502 -0.88152896971E+02 -0.10275969867E+02  0.14135577278E+03  0.16695944327E+03  0.41800000000E+01 0.  1.
        -11    1    1    2    0    0  0.12854673353E+02 -0.28194514634E+02  0.38992501708E+02  0.49805506441E+02  0.00000000000E+00 0.  1.
         11    1    1    2    0    0  0.42945388794E+02  0.57582038520E+02  0.18646115750E+03  0.19981932047E+03  0.00000000000E+00 0. -1.
</event>
<event>
 7    1  0.2690635E-009  0.1033412E+03  0.7561462E-02  0.1273423E+00
         -2   -1    0    0    0  501 -0.00000000000E+00  0.00000000000E+00  0.12660344186E+03  0.12660344186E+03  0.00000000000E+00 0.  1.
          2   -1    0    0  501    0  0.00000000000E+00 -0.00000000000E+00 -0.20130760458E+03  0.20130760458E+03  0.00000000000E+00 0. -1.
         25    2    1    2    0    0 -0.81547968965E+02 -0.18914873463E+02 -0.12327358861E+03  0.19455622226E+03  0.12509157563E+03 0.  0.
          5    1    3    3  502    0 -0.80961337581E+01 -0.32190234396E+02  0.15542885998E+02  0.36889189167E+02  0.41800000000E+01 0. -1.
         -5    1    3    3    0  502 -0.73451835206E+02  0.13275360933E+02 -0.13881647460E+03  0.15766703309E+03  0.41800000000E+01 0. -1.
        -11    1    1    2    0    0  0.36907040916E+02  0.35150029785E+02  0.65440309745E+02  0.82946298305E+02  0.00000000000E+00 0.  1.
         11    1    1    2    0    0  0.44640928048E+02 -0.16235156322E+02 -0.16870883862E+02  0.50408525867E+02  0.00000000000E+00 0. -1.
</event>
<event>
 7    1  0.2690635E-009  0.1135079E+03  0.7561462E-02  0.1254208E+00
         -4   -1    0    0    0  501 -0.00000000000E+00  0.00000000000E+00  0.39830198708E+02  0.39830198708E+02  0.00000000000E+00 0.  1.
          4   -1    0    0  501    0  0.00000000000E+00 -0.00000000000E+00 -0.36259410155E+03  0.36259410155E+03  0.00000000000E+00 0. -1.
         25    2    1    2    0    0  0.20983899466E+01 -0.46826255045E+02 -0.21894624824E+03  0.25647785866E+03  0.12508529475E+03 0.  0.
          5    1    3    3  502    0  0.32454066162E+02  0.28332169857E+02 -0.35864230676E+02  0.56211152819E+02  0.41800000000E+01 0.  1.
         -5    1    3    3    0  502 -0.30355676215E+02 -0.75158424903E+02 -0.18308201757E+03  0.20026670584E+03  0.41800000000E+01 0.  1.
        -11    1    1    2    0    0 -0.45921155094E+02  0.14651730592E+02 -0.49826404222E+02  0.69326014253E+02  0.00000000000E+00 0.  1.
         11    1    1    2    0    0  0.43822765147E+02  0.32174524454E+02 -0.53991250376E+02  0.76620427342E+02  0.00000000000E+00 0. -1.
</event>
<event>
 7    1  0.2690635E-009  0.8929128E+02  0.7561462E-02  0.1304577E+00
          2   -1    0    0  501    0  0.00000000000E+00  0.00000000000E+00  0.64873593228E+03  0.64873593228E+03  0.00000000000E+00 0. -1.
         -2   -1    0    0    0  501 -0.00000000000E+00 -0.00000000000E+00 -0.27065033640E+02  0.27065033640E+02  0.00000000000E+00 0.  1.
         25    2    1    2    0    0 -0.36160674943E+00 -0.21927411594E+02  0.53232534959E+03  0.54726491409E+03  0.12509063209E+03 0.  0.
          5    1    3    3  502    0 -0.57660125127E+02  0.40249837607E+01  0.17291150902E+03  0.18236434102E+03  0.41800000000E+01 0.  1.
         -5    1    3    3    0  502  0.57298518377E+02 -0.25952395354E+02  0.35941384056E+03  0.36490057306E+03  0.41800000000E+01 0.  1.
        -11    1    1    2    0    0 -0.24667630992E+02  0.21239879534E+02 -0.31570456478E+01  0.32704608828E+02  0.00000000000E+00 0.  1.
         11    1    1    2    0    0  0.25029237741E+02  0.68753205955E+00  0.92502594704E+02  0.95831443009E+02  0.00000000000E+00 0. -1.
</event>
<event>
 7    1  0.2690635E-009  0.9198005E+02  0.7561462E-02  0.1298126E+00
          2   -1    0    0  501    0  0.00000000000E+00  0.00000000000E+00  0.62672076100E+03  0.62672076100E+03  0.00000000000E+00 0. -1.
         -2   -1    0    0    0  501 -0.00000000000E+00 -0.00000000000E+00 -0.42094953617E+02  0.42094953617E+02  0.00000000000E+00 0.  1.
         25    2    1    2    0    0 -0.91070339449E+02 -0.97351282304E+01  0.47793937481E+03  0.50245587196E+03  0.12508907954E+03 0.  0.
          5    1    3    3  502    0 -0.21326528776E+02  0.52293953735E+00  0.25931361877E+01  0.21892716841E+02  0.41800000000E+01 0. -1.
         -5    1    3    3    0  502 -0.69743810673E+02 -0.10258067768E+02  0.47534623863E+03  0.48056315512E+03  0.41800000000E+01 0. -1.
        -11    1    1    2    0    0  0.31920324210E+02  0.41902392123E+01  0.10177759723E+03  0.10674804214E+03  0.00000000000E+00 0. -1.
         11    1    1    2    0    0  0.59150015238E+02  0.55448890181E+01  0.49088353404E+01  0.59611800521E+02  0.00000000000E+00 0.  1.
</event>
<event>
 7    1  0.2690635E-009  0.8737881E+02  0.7561462E-02  0.1309326E+00
         -1   -1    0    0    0  501 -0.00000000000E+00  0.00000000000E+00  0.47258949960E+02  0.47258949960E+02  0.00000000000E+00 0.  1.
          1   -1    0    0  501    0  0.00000000000E+00 -0.00000000000E+00 -0.27776986928E+03  0.27776986928E+03  0.00000000000E+00 0. -1.
         25    2    1    2    0    0  0.55456346350E+00 -0.17319946072E+01 -0.79771926421E+02  0.14837188058E+03  0.12508935748E+03 0.  0.
          5    1    3    3  502    0 -0.51264658993E+02  0.10872593927E+02 -0.78974576309E+02  0.94872201743E+02  0.41800000000E+01 0. -1.
         -5    1    3    3    0  502  0.51819222457E+02 -0.12604588534E+02 -0.79735011136E+00  0.53499678834E+02  0.41800000000E+01 0. -1.
        -11    1    1    2    0    0  0.29936124492E+02  0.17175983114E+02 -0.16723790334E+02  0.38351937482E+02  0.00000000000E+00 0.  1.
         11    1    1    2    0    0 -0.30490687955E+02 -0.15443988506E+02 -0.13401520256E+03  0.13830500118E+03  0.00000000000E+00 0. -1.
</event>
<event>
 7    1  0.2690635E-009  0.1321150E+03  0.7561462E-02  0.1224351E+00
         -2   -1    0    0    0  501 -0.00000000000E+00  0.00000000000E+00  0.33738726766E+02  0.33738726766E+02  0.00000000000E+00 0.  1.
          2   -1    0    0  501    0  0.00000000000E+00 -0.00000000000E+00 -0.58644855663E+03  0.58644855663E+03  0.00000000000E+00 0. -1.
         25    2    1    2    0    0  0.13261180331E+02  0.84796683281E+02 -0.25591592046E+03  0.29750530524E+03  0.12510040727E+03 0.  0.
          5    1    3    3  502    0  0.18127283111E+02 -0.23238283990E+02 -0.14861981498E+02  0.33271115548E+02  0.41800000000E+01 0.  1.
         -5    1    3    3    0  502 -0.48661027802E+01  0.10803496727E+03 -0.24105393897E+03  0.26423418969E+03  0.41800000000E+01 0.  1.
        -11    1    1    2    0    0 -0.53147927625E+02 -0.42041857511E+02 -0.14647669074E+03  0.16139281559E+03  0.00000000000E+00 0.  1.
         11    1    1    2    0    0  0.39886747294E+02 -0.42754825770E+02 -0.15031721865E+03  0.16128916256E+03  0.00000000000E+00 0. -1.
</event>
<event>
 7    1  0.2690635E-009  0.1028658E+03  0.7561462E-02  0.1274382E+00
          1   -1    0    0  501    0  0.00000000000E+00  0.00000000000E+00  0.13635325526E+04  0.13635325526E+04  0.00000000000E+00 0. -1.
         -1   -1    0    0    0  501 -0.00000000000E+00 -0.00000000000E+00 -0.15773730393E+02  0.15773730393E+02  0.00000000000E+00 0.  1.
         25    2    1    2    0    0  0.27971583511E+02  0.76802146844E+02  0.98953694781E+03  0.10007579208E+04  0.12510821578E+03 0.  0.
          5    1    3    3  502    0  0.19995214622E+02  0.30112738612E+02  0.88684876653E+03  0.88759494857E+03  0.41800000000E+01 0.  1.
         -5    1    3    3    0  502  0.79763688896E+01  0.46689408232E+02  0.10268818128E+03  0.11316297220E+03  0.41800000000E+01 0.  1.
        -11    1    1    2    0    0 -0.26578651603E+02 -0.97495745424E+02  0.28218547438E+03  0.29973402718E+03  0.00000000000E+00 0.  1.
         11    1    1    2    0    0 -0.13929319084E+01  0.20693598579E+02  0.76036400037E+02  0.78814335067E+02  0.00000000000E+00 0. -1.
</event>
<event>
 7    1  0.2690635E-009  0.1782802E+03  0.7561462E-02  0.1169478E+00
         -2   -1    0    0    0  501 -0.00000000000E+00  0.00000000000E+00  0.19622509135E+03  0.19622509135E+03  0.00000000000E+00 0. -1.
          2   -1    0    0  501    0  0.00000000000E+00 -0.00000000000E+00 -0.22157576495E+03  0.22157576495E+03  0.00000000000E+00 0.  1.
         25    2    1    2    0    0 -0.11459885440E+03  0.11775266158E+03  0.54465414601E+02  0.21357158853E+03  0.12509098809E+03 0.  0.
          5    1    3    3  502    0 -0.34016375684E+02  0.12413700275E+02 -0.37366669411E+02  0.52201093400E+02  0.41800000000E+01 0. -1.
         -5    1    3    3    0  502 -0.80582478718E+02  0.10533896130E+03  0.91832084013E+02  0.16137049513E+03  0.41800000000E+01 0. -1.
        -11    1    1    2    0    0  0.12941807658E+03 -0.11312891036E+03 -0.77413442736E+02  0.18852063554E+03  0.00000000000E+00 0.  1.
         11    1    1    2    0    0 -0.14819222183E+02 -0.46237512168E+01 -0.24026454622E+01  0.15708632233E+02  0.00000000000E+00 0. -1.
</event>
<event>
 7    1  0.2690635E-009  0.8490544E+02  0.7561462E-02  0.1315680E+00
         -1   -1    0    0    0  501 -0.00000000000E+00  0.00000000000E+00  0.31449234939E+03  0.31449234939E+03  0.00000000000E+00 0.  1.
          1   -1    0    0  501    0  0.00000000000E+00 -0.00000000000E+00 -0.48949374624E+02  0.48949374624E+02  0.00000000000E+00 0. -1.
         25    2    1    2    0    0  0.19662800518E+02 -0.53957902095E+02  0.12508081939E+03  0.18598733611E+03  0.12509195373E+03 0.  0.
          5    1    3    3  502    0 -0.71591359578E+01  0.96014919826E+01 -0.20913627646E+02  0.24460051048E+02  0.41800000000E+01 0.  1.
         -5    1    3    3    0  502  0.26821936476E+02 -0.63559394078E+02  0.14599444704E+03  0.16152728506E+03  0.41800000000E+01 0.  1.
        -11    1    1    2    0    0  0.23777199459E+02  0.30403870580E+02  0.11612516887E+03  0.12237158741E+03  0.00000000000E+00 0.  1.
         11    1    1    2    0    0 -0.43439999976E+02  0.23554031515E+02  0.24336986500E+02  0.55082800496E+02  0.00000000000E+00 0. -1.
</event>
<event>
 7    1  0.2690635E-009  0.8385514E+02  0.7561462E-02  0.1318454E+00
         -1   -1    0    0    0  501 -0.00000000000E+00  0.00000000000E+00  0.17340234697E+02  0.17340234697E+02  0.00000000000E+00 0.  1.
          1   -1    0    0  501    0  0.00000000000E+00 -0.00000000000E+00 -0.94594525667E+03  0.94594525667E+03  0.00000000000E+00 0. -1.
         25    2    1    2    0    0  0.12731528927E+02  0.40406450656E+02 -0.72179864908E+03  0.73378127415E+03  0.12508755095E+03 0.  0.
          5    1    3    3  502    0  0.84825689461E+01  0.56934843934E+02 -0.13625937907E+03  0.14797844848E+03  0.41800000000E+01 0.  1.
         -5    1    3    3    0  502  0.42489599807E+01 -0.16528393277E+02 -0.58553927001E+03  0.58580282567E+03  0.41800000000E+01 0.  1.
        -11    1    1    2    0    0  0.33682646147E+02 -0.29435080774E+02 -0.58025636119E+02  0.73266084095E+02  0.00000000000E+00 0.  1.
         11    1    1    2    0    0 -0.46414175073E+02 -0.10971369882E+02 -0.14878073678E+03  0.15623813313E+03  0.00000000000E+00 0. -1.
</event>
<event>
 7    1  0.2690635E-009  0.1140411E+03  0.7561462E-02  0.1253264E+00
         -2   -1    0    0    0  501 -0.00000000000E+00  0.00000000000E+00  0.18555122099E+02  0.18555122099E+02  0.00000000000E+00 0.  1.
          2   -1    0    0  501    0  0.00000000000E+00 -0.00000000000E+00 -0.82052406833E+03  0.82052406833E+03  0.00000000000E+00 0. -1.
         25    2    1    2    0    0 -0.23723025847E+02 -0.56313768736E+02 -0.43841378622E+03  0.45998946875E+03  0.12509852481E+03 0.  0.
          5    1    3    3  502    0  0.41382662164E+02  0.11801501596E+02 -0.10668496726E+03  0.11511279167E+03  0.41800000000E+01 0. -1.
         -5    1    3    3    0  502 -0.65105688011E+02 -0.68115270332E+02 -0.33172881896E+03  0.34487667708E+03  0.41800000000E+01 0. -1.
        -11    1    1    2    0    0 -0.92067126298E+01  0.56854173856E+02 -0.31623397292E+03  0.32143597539E+03  0.00000000000E+00 0. -1.
         11    1    1    2    0    0  0.32929738477E+02 -0.54040512078E+00 -0.47321187091E+02  0.57653746292E+02  0.00000000000E+00 0.  1.
</event>
<event>
 7    1  0.2690635E-009  0.1819255E+03  0.7561462E-02  0.1165952E+00
         -2   -1    0    0    0  501 -0.00000000000E+00  0.00000000000E+00  0.41646093180E+02  0.41646093180E+02  0.00000000000E+00 0.  1.
          2   -1    0    0  501    0  0.00000000000E+00 -0.00000000000E+00 -0.11309962891E+04  0.11309962891E+04  0.00000000000E+00 0. -1.
         25    2    1    2    0    0  0.11939858260E+03 -0.13211362452E+03 -0.71996456808E+03  0.75213431124E+03  0.12508801519E+03 0.  0.
          5    1    3    3  502    0  0.22712145573E+02 -0.62303890792E+02 -0.95318044056E+02  0.11619216104E+03  0.41800000000E+01 0.  1.
         -5    1    3    3    0  502  0.96686437032E+02 -0.69809733729E+02 -0.62464652402E+03  0.63594215020E+03  0.41800000000E+01 0.  1.
        -11    1    1    2    0    0 -0.58685449255E+02  0.65818511615E+02 -0.85878332659E+02  0.12308999328E+03  0.00000000000E+00 0.  1.
         11    1    1    2    0    0 -0.60713133349E+02  0.66295112906E+02 -0.28350729519E+03  0.29741807777E+03  0.00000000000E+00 0. -1.
</event>
<event>
 7    1  0.2690635E-009  0.1133524E+03  0.7561462E-02  0.1254485E+00
          1   -1    0    0  501    0  0.00000000000E+00  0.00000000000E+00  0.21574014896E+03  0.21574014896E+03  0.00000000000E+00 0. -1.
         -1   -1    0    0    0  501 -0.00000000000E+00 -0.00000000000E+00 -0.91739686057E+02  0.91739686057E+02  0.00000000000E+00 0.  1.
         25    2    1    2    0    0 -0.19698152662E+02 -0.45478536191E+02 -0.13788542534E+02  0.13525749943E+03  0.12509257682E+03 0.  0.
          5    1    3    3  502    0  0.51927311344E+02 -0.17812420117E+02  0.72579340253E+01  0.55532674888E+02  0.41800000000E+01 0. -1.
         -5    1    3    3    0  502 -0.71625464006E+02 -0.27666116074E+02 -0.21046476559E+02  0.79724824542E+02  0.41800000000E+01 0. -1.
        -11    1    1    2    0    0 -0.28179083339E+02  0.36381012796E+02  0.32913268065E+02  0.56576691708E+02  0.00000000000E+00 0.  1.
         11    1    1    2    0    0  0.47877236001E+02  0.90975233949E+01  0.10487573738E+03  0.11564564388E+03  0.00000000000E+00 0. -1.
</event>
<event>
 7    1  0.2690635E-009  0.1037869E+03  0.7561462E-02  0.1272528E+00
         -1   -1    0    0    0  501 -0.00000000000E+00  0.00000000000E+00  0.20553841143E+02  0.20553841143E+02  0.00000000000E+00 0.  1.
          1   -1    0    0  501    0  0.00000000000E+00 -0.00000000000E+00 -0.16077800711E+04  0.16077800711E+04  0.00000000000E+00 0. -1.
         25    2    1    2    0    0  0.45888747391E+02  0.14471649820E+02 -0.14445493752E+04  0.14507529689E+04  0.12508426604E+03 0.  0.
          5    1    3    3  502    0 -0.27854026747E+02  0.43209033596E+01 -0.96691743886E+03  0.96733723333E+03  0.41800000000E+01 0.  1.
         -5    1    3    3    0  502  0.73742774138E+02  0.10150746461E+02 -0.47763193635E+03  0.48341573558E+03  0.41800000000E+01 0.  1.
        -11    1    1    2    0    0 -0.10805465466E+01  0.36580126383E+02 -0.37674697609E+02  0.52522909925E+02  0.00000000000E+00 0.  1.
         11    1    1    2    0    0 -0.44808200844E+02 -0.51051776203E+02 -0.10500215717E+03  0.12505803343E+03  0.00000000000E+00 0. -1.
</event>
<event>
 7    1  0.2882765E-009  0.1498167E+03  0.7561462E-02  0.1200698E+00
         -1   -1    0    0    0  501 -0.00000000000E+00  0.00000000000E+00  0.65699843236E+02  0.65699843236E+02  0.00000000000E+00 0.  1.
          1   -1    0    0  501    0  0.00000000000E+00 -0.00000000000E+00 -0.53881395453E+03  0.53881395453E+03  0.00000000000E+00 0. -1.
         25    2    1    2    0    0  0.10260967124E+02  0.13610075014E+03 -0.13647212436E+03  0.23000167836E+03  0.12508968657E+03 0.  0.
          5    1    3    3  502    0 -0.37790947176E+02  0.40160520874E+02 -0.10404522107E+03  0.11782997731E+03  0.41800000000E+01 0.  1.
         -5    1    3    3    0  502  0.48051914300E+02  0.95940229265E+02 -0.32426903295E+02  0.11217170105E+03  0.41800000000E+01 0.  1.
        -11    1    1    2    0    0 -0.94292583266E+01 -0.52348318980E+02 -0.40783489413E+02  0.67026490444E+02  0.00000000000E+00 0.  1.
         11    1    1    2    0    0 -0.83170879787E+00 -0.83752431160E+02 -0.29585849752E+03  0.30748562896E+03  0.00000000000E+00 0. -1.
</event>
<event>
 7    1  0.2690635E-009  0.1572896E+03  0.7561462E-02  0.1191791E+00
         -1   -1    0    0    0  501 -0.00000000000E+00  0.00000000000E+00  0.10951048674E+03  0.10951048674E+03  0.00000000000E+00 0.  1.
          1   -1    0    0  501    0  0.00000000000E+00 -0.00000000000E+00 -0.29932895076E+03  0.29932895076E+03  0.00000000000E+00 0. -1.
         25    2    1    2    0    0  0.12715849907E+03 -0.67571106231E+02 -0.12509481774E+03  0.22810448251E+03  0.12509117966E+03 0.  0.
          5    1    3    3  502    0  0.24776006604E+02  0.17626642541E+02  0.15505158350E+02  0.34386499763E+02  0.41800000000E+01 0. -1.
         -5    1    3    3    0  502  0.10238249247E+03 -0.85197748772E+02 -0.14059997609E+03  0.19371798274E+03  0.41800000000E+01 0. -1.
        -11    1    1    2    0    0 -0.63717752628E+02  0.91261642824E+01  0.11781335955E+02  0.65437288692E+02  0.00000000000E+00 0.  1.
         11    1    1    2    0    0 -0.63440746446E+02  0.58444941948E+02 -0.76504982234E+02  0.11529766631E+03  0.00000000000E+00 0. -1.
</event>
<event>
 7    1  0.2690635E-009  0.3229059E+03  0.7561462E-02  0.1074320E+00
         -2   -1    0    0    0  501 -0.00000000000E+00  0.00000000000E+00  0.98492983031E+02  0.98492983031E+02  0.00000000000E+00 0.  1.
          2   -1    0    0  501    0  0.00000000000E+00 -0.00000000000E+00 -0.11460740091E+04  0.11460740091E+04  0.00000000000E+00 0. -1.
         25    2    1    2    0    0 -0.30695512918E+03 -0.84049504385E+00 -0.68465192580E+03  0.76067109443E+03  0.12510034625E+03 0.  0.
          5    1    3    3  502    0 -0.24859771859E+03  0.48811376987E+02 -0.55308142045E+03  0.60835836993E+03  0.41800000000E+01 0.  1.
         -5    1    3    3    0  502 -0.58357410594E+02 -0.49651872031E+02 -0.13157050535E+03  0.15231272450E+03  0.41800000000E+01 0.  1.
        -11    1    1    2    0    0  0.17604233702E+03  0.36987026717E+02 -0.16668517261E+03  0.24524047655E+03  0.00000000000E+00 0. -1.
         11    1    1    2    0    0  0.13091279216E+03 -0.36146531673E+02 -0.19624392766E+03  0.23865542116E+03  0.00000000000E+00 0.  1.
</event>
<event>
 7    1  0.2690635E-009  0.1258819E+03  0.7561462E-02  0.1233697E+00
          1   -1    0    0  501    0  0.00000000000E+00  0.00000000000E+00  0.18463729217E+03  0.18463729217E+03  0.00000000000E+00 0. -1.
         -1   -1    0    0    0  501 -0.00000000000E+00 -0.00000000000E+00 -0.26432266788E+03  0.26432266788E+03  0.00000000000E+00 0.  1.
         25    2    1    2    0    0 -0.33779750367E+02  0.11541884697E+03  0.11154332296E+03  0.20628881887E+03  0.12510228665E+03 0.  0.
          5    1    3    3  502    0 -0.24798006632E+01  0.61246041308E+01 -0.26372068182E+02  0.27506700407E+02  0.41800000000E+01 0.  1.
         -5    1    3    3    0  502 -0.31299949704E+02  0.10929424284E+03  0.13791539114E+03  0.17878211846E+03  0.41800000000E+01 0.  1.
        -11    1    1    2    0    0  0.28071455467E+02 -0.19706262340E+02 -0.11551420453E+03  0.12049844329E+03  0.00000000000E+00 0.  1.
         11    1    1    2    0    0  0.57082948998E+01 -0.95712584631E+02 -0.75714494140E+02  0.12217269789E+03  0.00000000000E+00 0. -1.
</event>
<event>
 7    1  0.2690635E-009  0.7818392E+02  0.7561462E-02  0.1334286E+00
          2   -1    0    0  501    0  0.00000000000E+00  0.00000000000E+00  0.16510842304E+03  0.16510842304E+03  0.00000000000E+00 0. -1.
         -2   -1    0    0    0  501 -0.00000000000E+00 -0.00000000000E+00 -0.76444433813E+02  0.76444433813E+02  0.00000000000E+00 0.  1.
         25    2    1    2    0    0 -0.24657355978E+02  0.23065498731E+01  0.34596921397E+02  0.13211950364E+03  0.12508121720E+03 0.  0.
          5    1    3    3  502    0 -0.41987366479E+02 -0.12319887294E+02 -0.36651659659E+02  0.57232290907E+02  0.41800000000E+01 0. -1.
         -5    1    3    3    0  502  0.17330010501E+02  0.14626437167E+02  0.71248581056E+02  0.74887212731E+02  0.41800000000E+01 0. -1.
        -11    1    1    2    0    0 -0.26052480884E+02 -0.22835845049E+02  0.40057143999E+02  0.52960196041E+02  0.00000000000E+00 0. -1.
         11    1    1    2    0    0  0.50709836862E+02  0.20529295176E+02  0.14009923827E+02  0.56473157169E+02  0.00000000000E+00 0.  1.
</event>
<event>
 7    1  0.2690635E-009  0.1374810E+03  0.7561462E-02  0.1216759E+00
          1   -1    0    0  501    0  0.00000000000E+00  0.00000000000E+00  0.99218935062E+03  0.99218935062E+03  0.00000000000E+00 0. -1.
         -1   -1    0    0    0  501 -0.00000000000E+00 -0.00000000000E+00 -0.22310606873E+02  0.22310606873E+02  0.00000000000E+00 0.  1.
         25    2    1    2    0    0 -0.56758219491E+02 -0.81638498744E+02  0.45902695186E+03  0.48604414893E+03  0.12508729839E+03 0.  0.
          5    1    3    3  502    0 -0.78983626593E+02 -0.97649859534E+02  0.31068827683E+03  0.33513965163E+03  0.41800000000E+01 0.  1.
         -5    1    3    3    0  502  0.22225407102E+02  0.16011360789E+02  0.14833867502E+03  0.15090449729E+03  0.41800000000E+01 0.  1.
        -11    1    1    2    0    0  0.31199822143E+02 -0.46955078825E+01  0.51760842627E+02  0.60618986510E+02  0.00000000000E+00 0.  1.
         11    1    1    2    0    0  0.25558397348E+02  0.86334006627E+02  0.45909094927E+03  0.46783682206E+03  0.00000000000E+00 0. -1.
</event>
<event>
 7    1  0.2690635E-009  0.1031654E+03  0.7561462E-02  0.1273777E+00
         -1   -1    0    0    0  501 -0.00000000000E+00  0.00000000000E+00  0.10212307181E+03  0.10212307181E+03  0.00000000000E+00 0.  1.
          1   -1    0    0  501    0  0.00000000000E+00 -0.00000000000E+00 -0.18197909650E+03  0.18197909650E+03  0.00000000000E+00 0. -1.
         25    2    1    2    0    0  0.72243536451E+02 -0.90686043109E+01 -0.21124540702E+01  0.14475370815E+03  0.12509118841E+03 0.  0.
          5    1    3    3  502    0  0.64041991055E+02  0.34065571565E+02  0.40704362974E+02  0.83283595920E+02  0.41800000000E+01 0. -1.
         -5    1    3    3    0  502  0.82015453957E+01 -0.43134175876E+02 -0.42816817044E+02  0.61470112227E+02  0.41800000000E+01 0. -1.
        -11    1    1    2    0    0 -0.33073949970E+02  0.30436585568E+02  0.51175411662E+01  0.45237828587E+02  0.00000000000E+00 0.  1.
         11    1    1    2    0    0 -0.39169586480E+02 -0.21367981257E+02 -0.82861111791E+02  0.94110631574E+02  0.00000000000E+00 0. -1.
</event>
<event>
 7    1  0.2690635E-009  0.9564244E+02  0.7561462E-02  0.1289736E+00
         -4   -1    0    0    0  501 -0.00000000000E+00  0.00000000000E+00  0.21970671389E+02  0.21970671389E+02  0.00000000000E+00 0.  1.
          4   -1    0    0  501    0  0.00000000000E+00 -0.00000000000E+00 -0.59053622629E+03  0.59053622629E+03  0.00000000000E+00 0. -1.
         25    2    1    2    0    0 -0.10850609487E+02  0.30853272373E+02 -0.38910951325E+03  0.41002835323E+03  0.12508947601E+03 0.  0.
          5    1    3    3  502    0  0.54628545197E+02  0.31807891348E+02 -0.17667444487E+03  0.18768950896E+03  0.41800000000E+01 0. -1.
         -5    1    3    3    0  502 -0.65479154684E+02 -0.95461897570E+00 -0.21243506838E+03  0.22233884427E+03  0.41800000000E+01 0. -1.
        -11    1    1    2    0    0  0.82507946058E+01 -0.46107126814E+02 -0.18096762614E+03  0.18693106875E+03  0.00000000000E+00 0. -1.
         11    1    1    2    0    0  0.25998148808E+01  0.15253854441E+02  0.15115844915E+01  0.15547475692E+02  0.00000000000E+00 0.  1.
</event>
<event>
 7    1  0.2690635E-009  0.8781860E+02  0.7561462E-02  0.1308222E+00
         -2   -1    0    0    0  501 -0.00000000000E+00  0.00000000000E+00  0.11859017881E+03  0.11859017881E+03  0.00000000000E+00 0.  1.
          2   -1    0    0  501    0  0.00000000000E+00 -0.00000000000E+00 -0.13501511670E+03  0.13501511670E+03  0.00000000000E+00 0. -1.
         25    2    1    2    0    0 -0.10575118975E+02 -0.29427467255E+02 -0.67598764577E+02  0.14557572406E+03  0.12507953267E+03 0.  0.
          5    1    3    3  502    0 -0.39147337491E+02 -0.33236857473E+02  0.18452958138E+02  0.54728299730E+02  0.41800000000E+01 0. -1.
         -5    1    3    3    0  502  0.28572218516E+02  0.38093902187E+01 -0.86051722715E+02  0.90847424328E+02  0.41800000000E+01 0. -1.
        -11    1    1    2    0    0 -0.11113509398E+02 -0.29857857932E+02  0.20082343596E+02  0.37660354429E+02  0.00000000000E+00 0. -1.
         11    1    1    2    0    0  0.21688628372E+02  0.59285325186E+02  0.31091483100E+02  0.70369217023E+02  0.00000000000E+00 0.  1.
</event>
<event>
 7    1  0.2690635E-009  0.1464985E+03  0.7561462E-02  0.1204843E+00
         -2   -1    0    0    0  501 -0.00000000000E+00  0.00000000000E+00  0.23418775988E+02  0.23418775988E+02  0.00000000000E+00 0.  1.
          2   -1    0    0  501    0  0.00000000000E+00 -0.00000000000E+00 -0.99354405883E+03  0.99354405883E+03  0.00000000000E+00 0. -1.
         25    2    1    2    0    0 -0.10610730976E+03  0.29633609587E+02 -0.44639945414E+03  0.47650494423E+03  0.12509027629E+03 0.  0.
          5    1    3    3  502    0 -0.59483265319E+02  0.74229856056E+02 -0.19614417240E+03  0.21803288548E+03  0.41800000000E+01 0. -1.
         -5    1    3    3    0  502 -0.46624044437E+02 -0.44596246469E+02 -0.25025528174E+03  0.25847205875E+03  0.41800000000E+01 0. -1.
        -11    1    1    2    0    0  0.11003423313E+03 -0.71081447197E+01 -0.44689365063E+03  0.46029554978E+03  0.00000000000E+00 0. -1.
         11    1    1    2    0    0 -0.39269233723E+01 -0.22525464867E+02 -0.76832178082E+02  0.80162340806E+02  0.00000000000E+00 0.  1.
</event>
<event>
 7    1  0.3747267E-009  0.1074438E+03  0.7561462E-02  0.1265378E+00
         -1   -1    0    0    0  501 -0.00000000000E+00  0.00000000000E+00  0.27263194803E+02  0.27263194803E+02  0.00000000000E+00 0.  1.
          1   -1    0    0  501    0  0.00000000000E+00 -0.00000000000E+00 -0.69699374180E+03  0.69699374180E+03  0.00000000000E+00 0. -1.
         25    2    1    2    0    0  0.68189814587E+02  0.49584291901E+02 -0.35187452190E+03  0.38284602385E+03  0.12508775322E+03 0.  0.
          5    1    3    3  502    0  0.72874605001E+01  0.24439094026E+02 -0.10508863247E+01  0.25864128816E+02  0.41800000000E+01 0. -1.
         -5    1    3    3    0  502  0.60902354087E+02  0.25145197875E+02 -0.35082363557E+03  0.35698189504E+03  0.41800000000E+01 0. -1.
        -11    1    1    2    0    0 -0.11403817443E+02  0.26054368204E+02 -0.52600339311E+02  0.59796930109E+02  0.00000000000E+00 0.  1.
         11    1    1    2    0    0 -0.56785997144E+02 -0.75638660106E+02 -0.26525568579E+03  0.28161398264E+03  0.00000000000E+00 0. -1.
</event>
<event>
 7    1  0.2690635E-009  0.1026541E+03  0.7561462E-02  0.1274812E+00
          1   -1    0    0  501    0  0.00000000000E+00  0.00000000000E+00  0.11663364244E+03  0.11663364244E+03  0.00000000000E+00 0. -1.
         -1   -1    0    0    0  501 -0.00000000000E+00 -0.00000000000E+00 -0.15862632957E+03  0.15862632957E+03  0.00000000000E+00 0.  1.
         25    2    1    2    0    0 -0.22145696114E+02  0.41280667192E+02  0.48806074742E+02  0.14221242728E+03  0.12509123151E+03 0.  0.
          5    1    3    3  502    0  0.28374828855E+02 -0.32942166304E+02  0.16952438367E+02  0.46852692558E+02  0.41800000000E+01 0.  1.
         -5    1    3    3    0  502 -0.50520524969E+02  0.74222833496E+02  0.31853636375E+02  0.95359734718E+02  0.41800000000E+01 0.  1.
        -11    1    1    2    0    0  0.19287548926E+00  0.13100850828E+02 -0.69390842360E+02  0.70616984479E+02  0.00000000000E+00 0.  1.
         11    1    1    2    0    0  0.21952820625E+02 -0.54381518020E+02 -0.21407919511E+02  0.62430560252E+02  0.00000000000E+00 0. -1.
</event>
<event>
 7    1  0.2690635E-009  0.1837605E+03  0.7561462E-02  0.1164212E+00
         -2   -1    0    0    0  501 -0.00000000000E+00  0.00000000000E+00  0.73785978956E+02  0.73785978956E+02  0.00000000000E+00 0.  1.
          2   -1    0    0  501    0  0.00000000000E+00 -0.00000000000E+00 -0.52905301337E+03  0.52905301337E+03  0.00000000000E+00 0. -1.
         25    2    1    2    0    0  0.16097469125E+03 -0.32094041567E+02 -0.25060028281E+03  0.32463943671E+03  0.12508950154E+03 0.  0.
          5    1    3    3  502    0  0.20347542761E+02  0.39947162315E+02 -0.81906999829E+02  0.93466717576E+02  0.41800000000E+01 0. -1.
         -5    1    3    3    0  502  0.14062714848E+03 -0.72041203882E+02 -0.16869328298E+03  0.23117271913E+03  0.41800000000E+01 0. -1.
        -11    1    1    2    0    0 -0.43311025149E+02  0.13089565863E+02 -0.48096941653E+01  0.45500711993E+02  0.00000000000E+00 0.  1.
         11    1    1    2    0    0 -0.11766366610E+03  0.19004475704E+02 -0.19985705744E+03  0.23269884362E+03  0.00000000000E+00 0. -1.
</event>
<event>
 7    1  0.2690635E-009  0.2679370E+03  0.7561462E-02  0.1102466E+00
         -1   -1    0    0    0  501 -0.00000000000E+00  0.00000000000E+00  0.53965060003E+02  0.53965060003E+02  0.00000000000E+00 0.  1.
          1   -1    0    0  501    0  0.00000000000E+00 -0.00000000000E+00 -0.14879654421E+04  0.14879654421E+04  0.00000000000E+00 0. -1.
         25    2    1    2    0    0  0.41828645960E+02  0.25300368135E+03 -0.60297761056E+03  0.66707617792E+03  0.12509248543E+03 0.  0.
          5    1    3    3  502    0  0.54824118119E+02  0.25670604608E+03 -0.59609734523E+03  0.65134721571E+03  0.41800000000E+01 0.  1.
         -5    1    3    3    0  502 -0.12995472159E+02 -0.37023647272E+01 -0.68802653292E+01  0.15728962210E+02  0.41800000000E+01 0.  1.
        -11    1    1    2    0    0 -0.28475708971E+02 -0.68068607780E+02 -0.12752636769E+03  0.14733355294E+03  0.00000000000E+00 0.  1.
         11    1    1    2    0    0 -0.13352936990E+02 -0.18493507357E+03 -0.70349640389E+03  0.72752077128E+03  0.00000000000E+00 0. -1.
</event>
<event>
 7    1  0.2690635E-009  0.4632649E+02  0.7561462E-02  0.1466227E+00
         -1   -1    0    0    0  501 -0.00000000000E+00  0.00000000000E+00  0.87812575894E+02  0.87812575894E+02  0.00000000000E+00 0.  1.
          1   -1    0    0  501    0  0.00000000000E+00 -0.00000000000E+00 -0.12941365751E+03  0.12941365751E+03  0.00000000000E+00 0. -1.
         25    2    1    2    0    0  0.33016584848E+01 -0.63407975626E+01 -0.18958654714E+02  0.12671823991E+03  0.12508786942E+03 0.  0.
          5    1    3    3  502    0  0.17898714703E+01 -0.71785854315E+00  0.53604569938E+02  0.53801870590E+02  0.41800000000E+01 0.  1.
         -5    1    3    3    0  502  0.15117870145E+01 -0.56229390195E+01 -0.72563224653E+02  0.72916369322E+02  0.41800000000E+01 0.  1.
        -11    1    1    2    0    0  0.29871700924E+02 -0.22122189246E+02 -0.27907337579E+02  0.46481493779E+02  0.00000000000E+00 0. -1.
         11    1    1    2    0    0 -0.33173359409E+02  0.28462986808E+02  0.52649106775E+01  0.44026499713E+02  0.00000000000E+00 0.  1.
</event>
<event>
 7    1  0.2690635E-009  0.2476975E+03  0.7561462E-02  0.1114769E+00
         -1   -1    0    0    0  501 -0.00000000000E+00  0.00000000000E+00  0.48843339947E+02  0.48843339947E+02  0.00000000000E+00 0.  1.
          1   -1    0    0  501    0  0.00000000000E+00 -0.00000000000E+00 -0.16631069642E+04  0.16631069642E+04  0.00000000000E+00 0. -1.
         25    2    1    2    0    0 -0.16759431360E+03 -0.17999558860E+03 -0.53929230973E+03  0.60577998725E+03  0.12508769627E+03 0.  0.
          5    1    3    3  502    0 -0.33828577377E+02 -0.30604531506E+02 -0.21707505743E+02  0.50692190736E+02  0.41800000000E+01 0. -1.
         -5    1    3    3    0  502 -0.13376573622E+03 -0.14939105709E+03 -0.51758480399E+03  0.55508779652E+03  0.41800000000E+01 0. -1.
        -11    1    1    2    0    0  0.63800129976E+02  0.42165664087E+02 -0.19533353833E+03  0.20977032919E+03  0.00000000000E+00 0.  1.
         11    1    1    2    0    0  0.10379418362E+03  0.13782992451E+03 -0.87963777619E+03  0.89639998770E+03  0.00000000000E+00 0. -1.
</event>
<event>
 7    1  0.2690635E-009  0.1070916E+03  0.7561462E-02  0.1266052E+00
         -1   -1    0    0    0  501 -0.00000000000E+00  0.00000000000E+00  0.73305731935E+02  0.73305731935E+02  0.00000000000E+00 0.  1.
          1   -1    0    0  501    0  0.00000000000E+00 -0.00000000000E+00 -0.16557400577E+03  0.16557400577E+03  0.00000000000E+00 0. -1.
         25    2    1    2    0    0 -0.76119798571E+01  0.19671426188E+02 -0.47970329418E+02  0.13562372676E+03  0.12509090899E+03 0.  0.
          5    1    3    3  502    0  0.32806790792E+02  0.60599334995E+02 -0.22883972482E+02  0.72730416749E+02  0.41800000000E+01 0. -1.
         -5    1    3    3    0  502 -0.40418770649E+02 -0.40927908807E+02 -0.25086356936E+02  0.62893310013E+02  0.41800000000E+01 0. -1.
        -11    1    1    2    0    0  0.22075166315E+02 -0.49568275975E+02 -0.93806028697E+01  0.55066529409E+02  0.00000000000E+00 0.  1.
         11    1    1    2    0    0 -0.14463186458E+02  0.29896849787E+02 -0.34917341543E+02  0.48189481530E+02  0.00000000000E+00 0. -1.
</event>
<event>
 7    1  0.2690635E-009  0.8971304E+02  0.7561462E-02  0.1303548E+00
         -2   -1    0    0    0  501 -0.00000000000E+00  0.00000000000E+00  0.13269255348E+03  0.13269255348E+03  0.00000000000E+00 0.  1.
          2   -1    0    0  501    0  0.00000000000E+00 -0.00000000000E+00 -0.10603738036E+03  0.10603738036E+03  0.00000000000E+00 0. -1.
         25    2    1    2    0    0  0.39089941250E+02 -0.11853099873E+01 -0.16069947254E+02  0.13204175048E+03  0.12508937684E+03 0.  0.
          5    1    3    3  502    0 -0.26355104615E+02 -0.36010528011E+02  0.20485166024E+02  0.49279449002E+02  0.41800000000E+01 0.  1.
         -5    1    3    3    0  502  0.65445045865E+02  0.34825218024E+02 -0.36555113279E+02  0.82762301475E+02  0.41800000000E+01 0.  1.
        -11    1    1    2    0    0 -0.27595521852E+02  0.22850981657E+02 -0.18795292582E+02  0.40459154863E+02  0.00000000000E+00 0. -1.
         11    1    1    2    0    0 -0.11494419398E+02 -0.21665671670E+02  0.61520412958E+02  0.66229028505E+02  0.00000000000E+00 0.  1.
</event>
<event>
 7    1  0.2690635E-009  0.1279460E+03  0.7561462E-02  0.1230536E+00
         -1   -1    0    0    0  501 -0.00000000000E+00  0.00000000000E+00  0.39986736833E+03  0.39986736833E+03  0.00000000000E+00 0.  1.
          1   -1    0    0  501    0  0.00000000000E+00 -0.00000000000E+00 -0.46811748386E+02  0.46811748386E+02  0.00000000000E+00 0. -1.
         25    2    1    2    0    0 -0.77473418080E+02 -0.29084130037E+02  0.21177732395E+03  0.25950768208E+03  0.12508631017E+03 0.  0.
          5    1    3    3  502    0 -0.57019877728E+02 -0.77884612704E+02  0.12888806162E+03  0.16108036560E+03  0.41800000000E+01 0. -1.
         -5    1    3    3    0  502 -0.20453540352E+02  0.48800482667E+02  0.82889262326E+02  0.98427316485E+02  0.41800000000E+01 0. -1.
        -11    1    1    2    0    0  0.36412507621E+02 -0.20525494451E+02  0.10555221052E+03  0.11352724686E+03  0.00000000000E+00 0.  1.
         11    1    1    2    0    0  0.41060910458E+02  0.49609624488E+02  0.35726085475E+02  0.73644187774E+02  0.00000000000E+00 0. -1.
</event>
<event>
 7    1  0.2690635E-009  0.9107031E+02  0.7561462E-02  0.1300280E+00
          1   -1    0    0  501    0  0.00000000000E+00  0.00000000000E+00  0.16427062654E+04  0.16427062654E+04  0.00000000000E+00 0. -1.
         -1   -1    0    0    0  501 -0.00000000000E+00 -0.00000000000E+00 -0.12480092261E+02  0.12480092261E+02  0.00000000000E+00 0.  1.
         25    2    1    2    0    0  0.11073235375E+02  0.75274719813E+02  0.12682824628E+04  0.12767053556E+04  0.12508900676E+03 0.  0.
          5    1    3    3  502    0  0.84715936494E+01  0.58433390612E+02  0.20749380733E+03  0.21577159572E+03  0.41800000000E+01 0. -1.
         -5    1    3    3    0  502  0.26016417259E+01  0.16841329200E+02  0.10607886554E+04  0.10609337599E+04  0.41800000000E+01 0. -1.
        -11    1    1    2    0    0  0.31343032521E+02 -0.30782099670E+02  0.96760543293E+02  0.10626629798E+03  0.00000000000E+00 0.  1.
         11    1    1    2    0    0 -0.42416267896E+02 -0.44492620143E+02  0.26518316710E+03  0.27221470413E+03  0.00000000000E+00 0. -1.
</event>
<event>
 7    1  0.2690635E-009  0.2605471E+03  0.7561462E-02  0.1106815E+00
         -2   -1    0    0    0  501 -0.00000000000E+00  0.00000000000E+00  0.17119193165E+04  0.17119193165E+04  0.00000000000E+00 0.  1.
          2   -1    0    0  501    0  0.00000000000E+00 -0.00000000000E+00 -0.48126096288E+02  0.48126096288E+02  0.00000000000E+00 0. -1.
         25    2    1    2    0    0 -0.77078034314E+02 -0.21813319883E+03  0.47400961906E+03  0.54208430835E+03  0.12508861897E+03 0.  0.
          5    1    3    3  502    0 -0.10424536396E+03 -0.11174389623E+03  0.26422018353E+03  0.30525984347E+03  0.41800000000E+01 0.  1.
         -5    1    3    3    0  502  0.27167329642E+02 -0.10638930260E+03  0.20978943553E+03  0.23682446488E+03  0.41800000000E+01 0.  1.
        -11    1    1    2    0    0 -0.25612592105E+01  0.15930073967E+03  0.80718897579E+03  0.82276201197E+03  0.00000000000E+00 0. -1.
         11    1    1    2    0    0  0.79639293524E+02  0.58832459159E+02  0.38259462533E+03  0.39519909242E+03  0.00000000000E+00 0.  1.
</event>
<event>
 7    1  0.2690635E-009  0.3371586E+03  0.7561462E-02  0.1068013E+00
          2   -1    0    0  501    0  0.00000000000E+00  0.00000000000E+00  0.32188104343E+04  0.32188104343E+04  0.00000000000E+00 0.  1.
         -2   -1    0    0    0  501 -0.00000000000E+00 -0.00000000000E+00 -0.45554236331E+02  0.45554236331E+02  0.00000000000E+00 0. -1.
         25    2    1    2    0    0 -0.15681275326E+03  0.28760759182E+03  0.23111721566E+04  0.23376212012E+04  0.12509107372E+03 0.  0.
          5    1    3    3  502    0 -0.13485727738E+03  0.12935751595E+03  0.10702277563E+04  0.10864275286E+04  0.41800000000E+01 0. -1.
         -5    1    3    3    0  502 -0.21955475873E+02  0.15825007586E+03  0.12409444003E+04  0.12511936726E+04  0.41800000000E+01 0. -1.
        -11    1    1    2    0    0  0.50330976359E+01 -0.96359001904E+01  0.32080351732E+01  0.11334643089E+02  0.00000000000E+00 0. -1.
         11    1    1    2    0    0  0.15177965562E+03 -0.27797169163E+03  0.85887600627E+03  0.91540882635E+03  0.00000000000E+00 0.  1.
</event>
<event>
 7    1  0.2690635E-009  0.7388616E+02  0.7561462E-02  0.1347355E+00
          1   -1    0    0  501    0  0.00000000000E+00  0.00000000000E+00  0.37747054001E+02  0.37747054001E+02  0.00000000000E+00 0. -1.
         -1   -1    0    0    0  501 -0.00000000000E+00 -0.00000000000E+00 -0.32816844820E+03  0.32816844820E+03  0.00000000000E+00 0.  1.
         25    2    1    2    0    0  0.21224308866E+01  0.27295035939E+02 -0.16354478975E+03  0.20771003261E+03  0.12508811172E+03 0.  0.
          5    1    3    3  502    0 -0.18095979889E+02  0.26900800769E+02 -0.17897263363E+03  0.18193348664E+03  0.41800000000E+01 0.  1.
         -5    1    3    3    0  502  0.20218410776E+02  0.39423516999E+00  0.15427843883E+02  0.25776545978E+02  0.41800000000E+01 0.  1.
        -11    1    1    2    0    0  0.34300394883E+02  0.16005517398E+02 -0.47842525676E+02  0.61004925534E+02  0.00000000000E+00 0.  1.
         11    1    1    2    0    0 -0.36422825769E+02 -0.43300553338E+02 -0.79034078768E+02  0.97200544048E+02  0.00000000000E+00 0. -1.
</event>
<event>
 7    1  0.2690635E-009  0.1189525E+03  0.7561462E-02  0.1244835E+00
          3   -1    0    0  501    0  0.00000000000E+00  0.00000000000E+00  0.33252829786E+03  0.33252829786E+03  0.00000000000E+00 0. -1.
         -3   -1    0    0    0  501 -0.00000000000E+00 -0.00000000000E+00 -0.50354169134E+02  0.50354169134E+02  0.00000000000E+00 0.  1.
         25    2    1    2    0    0 -0.30427780865E+02 -0.51904125893E+02  0.10271896117E+03  0.17267663633E+03  0.12508456187E+03 0.  0.
          5    1    3    3  502    0  0.33611699876E+02 -0.64999308435E+02  0.55234530155E+02  0.91776806368E+02  0.41800000000E+01 0.  1.
         -5    1    3    3    0  502 -0.64039480741E+02  0.13095182542E+02  0.47484431018E+02  0.80899829966E+02  0.41800000000E+01 0.  1.
        -11    1    1    2    0    0  0.55307169435E+02  0.20356434822E+02  0.14760403345E+03  0.15893463474E+03  0.00000000000E+00 0. -1.
         11    1    1    2    0    0 -0.24879388570E+02  0.31547691071E+02  0.31851134108E+02  0.51271195924E+02  0.00000000000E+00 0.  1.
</event>
<event>
 7    1  0.2690635E-009  0.1075572E+03  0.7561462E-02  0.1265162E+00
          2   -1    0    0  501    0  0.00000000000E+00  0.00000000000E+00  0.15373401710E+03  0.15373401710E+03  0.00000000000E+00 0. -1.
         -2   -1    0    0    0  501 -0.00000000000E+00 -0.00000000000E+00 -0.17063078407E+03  0.17063078407E+03  0.00000000000E+00 0.  1.
         25    2    1    2    0    0 -0.15521677966E+02 -0.10031397500E+03  0.55688803603E+02  0.17044113050E+03  0.12508045432E+03 0.  0.
          5    1    3    3  502    0  0.12638396585E+02 -0.55706607382E+02  0.90499104114E+02  0.10710049215E+03  0.41800000000E+01 0. -1.
         -5    1    3    3    0  502 -0.28160074551E+02 -0.44607367619E+02 -0.34810300511E+02  0.63340638347E+02  0.41800000000E+01 0. -1.
        -11    1    1    2    0    0 -0.71867331188E+01  0.36160420820E+02 -0.77366608025E+02  0.85701908987E+02  0.00000000000E+00 0.  1.
         11    1    1    2    0    0  0.22708411085E+02  0.64153554181E+02  0.47810374591E+01  0.68221761684E+02  0.00000000000E+00 0. -1.
</event>
<event>
 7    1  0.2690635E-009  0.1087875E+03  0.7561462E-02  0.1262832E+00
          1   -1    0    0  501    0  0.00000000000E+00  0.00000000000E+00  0.63749311691E+03  0.63749311691E+03  0.00000000000E+00 0. -1.
         -1   -1    0    0    0  501 -0.00000000000E+00 -0.00000000000E+00 -0.30179811069E+02  0.30179811069E+02  0.00000000000E+00 0.  1.
         25    2    1    2    0    0  0.31335832775E+02 -0.55299611236E+02  0.45582472239E+03  0.47693078018E+03  0.12508721010E+03 0.  0.
          5    1    3    3  502    0  0.40415116127E+02  0.95385694859E+01  0.34958696216E+03  0.35206942842E+03  0.41800000000E+01 0. -1.
         -5    1    3    3    0  502 -0.90792833527E+01 -0.64838180722E+02  0.10623776023E+03  0.12486135176E+03  0.41800000000E+01 0. -1.
        -11    1    1    2    0    0  0.16038909828E+02  0.60487294530E+02  0.55801889436E+02  0.83843963961E+02  0.00000000000E+00 0.  1.
         11    1    1    2    0    0 -0.47374742602E+02 -0.51876832943E+01  0.95686694017E+02  0.10689818383E+03  0.00000000000E+00 0. -1.
</event>
<event>
 7    1  0.2690635E-009  0.9905672E+02  0.7561462E-02  0.1282292E+00
          2   -1    0    0  501    0  0.00000000000E+00  0.00000000000E+00  0.22556988051E+03  0.22556988051E+03  0.00000000000E+00 0. -1.
         -2   -1    0    0    0  501 -0.00000000000E+00 -0.00000000000E+00 -0.62330443125E+02  0.62330443125E+02  0.00000000000E+00 0.  1.
         25    2    1    2    0    0 -0.15850778824E+02 -0.44629458755E+02  0.90060036810E+02  0.16126026776E+03  0.12510406847E+03 0.  0.
          5    1    3    3  502    0  0.33112339891E+02 -0.25616480416E+02  0.99226701582E+02  0.10777774273E+03  0.41800000000E+01 0.  1.
         -5    1    3    3    0  502 -0.48963118715E+02 -0.19012978338E+02 -0.91666647721E+01  0.53482525021E+02  0.41800000000E+01 0.  1.
        -11    1    1    2    0    0  0.70337479771E+00  0.72034068806E+02  0.51650514839E+02  0.88640721387E+02  0.00000000000E+00 0.  1.
         11    1    1    2    0    0  0.15147404026E+02 -0.27404610051E+02  0.21528885735E+02  0.37999334491E+02  0.00000000000E+00 0. -1.
</event>
<event>
 7    1  0.2690635E-009  0.9398250E+02  0.7561462E-02  0.1293484E+00
          3   -1    0    0  501    0  0.00000000000E+00  0.00000000000E+00  0.51557440194E+03  0.51557440194E+03  0.00000000000E+00 0. -1.
         -3   -1    0    0    0  501 -0.00000000000E+00 -0.00000000000E+00 -0.33542513157E+02  0.33542513157E+02  0.00000000000E+00 0.  1.
         25    2    1    2    0    0  0.13342866537E+02 -0.71999994408E+02  0.24453694672E+03  0.28426694298E+03  0.12508934918E+03 0.  0.
          5    1    3    3  502    0  0.10520316153E+02 -0.48304768408E+02  0.12761010836E+02  0.51228346650E+02  0.41800000000E+01 0. -1.
         -5    1    3    3    0  502  0.28225503843E+01 -0.23695226000E+02  0.23177593588E+03  0.23303859633E+03  0.41800000000E+01 0. -1.
        -11    1    1    2    0    0  0.11180372156E+02 -0.17809447026E+02  0.23814459406E+02  0.31769570374E+02  0.00000000000E+00 0.  1.
         11    1    1    2    0    0 -0.24523238693E+02  0.89809441434E+02  0.21368048265E+03  0.23308040174E+03  0.00000000000E+00 0. -1.
</event>
<event>
 7    1  0.2690635E-009  0.1116937E+03  0.7561462E-02  0.1257465E+00
          2   -1    0    0  501    0  0.00000000000E+00  0.00000000000E+00  0.10956476112E+03  0.10956476112E+03  0.00000000000E+00 0. -1.
         -2   -1    0    0    0  501 -0.00000000000E+00 -0.00000000000E+00 -0.13584057499E+03  0.13584057499E+03  0.00000000000E+00 0.  1.
         25    2    1    2    0    0  0.91542509809E+01  0.43664442237E+02  0.11816387466E+02  0.13333022893E+03  0.12508772565E+03 0.  0.
          5    1    3    3  502    0  0.83994454481E+01 -0.37341083273E+02 -0.23229443700E+02  0.44966505739E+02  0.41800000000E+01 0.  1.
         -5    1    3    3    0  502  0.75480553283E+00  0.81005525510E+02  0.35045831166E+02  0.88363723193E+02  0.41800000000E+01 0.  1.
        -11    1    1    2    0    0  0.25631078989E+02  0.19130325743E+02 -0.21066909143E+02  0.38297992558E+02  0.00000000000E+00 0.  1.
         11    1    1    2    0    0 -0.34785329970E+02 -0.62794767980E+02 -0.17025292190E+02  0.73777114615E+02  0.00000000000E+00 0. -1.
</event>
<event>
 7    1  0.2690635E-009  0.1226998E+03  0.7561462E-02  0.1238708E+00
         -2   -1    0    0    0  501 -0.00000000000E+00  0.00000000000E+00  0.25798019556E+02  0.25798019556E+02  0.00000000000E+00 0.  1.
          2   -1    0    0  501    0  0.00000000000E+00 -0.00000000000E+00 -0.91686527225E+03  0.91686527225E+03  0.00000000000E+00 0. -1.
         25    2    1    2    0    0  0.59240724930E+02  0.26685924723E+02 -0.74455200497E+03  0.75778018960E+03  0.12510605731E+03 0.  0.
          5    1    3    3  502    0 -0.32504629718E+02 -0.12370929368E+02 -0.30693714213E+03  0.30892955907E+03  0.41800000000E+01 0.  1.
         -5    1    3    3    0  502  0.91745354648E+02  0.39056854091E+02 -0.43761486284E+03  0.44885063053E+03  0.41800000000E+01 0.  1.
        -11    1    1    2    0    0 -0.17270047999E+02 -0.56504640582E+02 -0.60005253101E+02  0.84211990624E+02  0.00000000000E+00 0.  1.
         11    1    1    2    0    0 -0.41970676931E+02  0.29818715859E+02 -0.86509994623E+02  0.10067111158E+03  0.00000000000E+00 0. -1.
</event>
<event>
 7    1  0.2690635E-009  0.1210148E+03  0.7561462E-02  0.1241432E+00
         -1   -1    0    0    0  501 -0.00000000000E+00  0.00000000000E+00  0.92897716745E+02  0.92897716745E+02  0.00000000000E+00 0.  1.
          1   -1    0    0  501    0  0.00000000000E+00 -0.00000000000E+00 -0.40803168460E+03  0.40803168460E+03  0.00000000000E+00 0. -1.
         25    2    1    2    0    0  0.60132896171E+02 -0.87252880647E+02 -0.32308766237E+03  0.36229894422E+03  0.12508340029E+03 0.  0.
          5    1    3    3  502    0  0.35432668713E+02 -0.19690728362E+02 -0.11294283570E+02  0.42287492678E+02  0.41800000000E+01 0.  1.
         -5    1    3    3    0  502  0.24700227457E+02 -0.67562152285E+02 -0.31179337880E+03  0.32001145155E+03  0.41800000000E+01 0.  1.
        -11    1    1    2    0    0 -0.75748622978E+02  0.84292676815E+02 -0.11040175510E+02  0.11386393074E+03  0.00000000000E+00 0. -1.
         11    1    1    2    0    0  0.15615726807E+02  0.29602038324E+01  0.18993870026E+02  0.24766526382E+02  0.00000000000E+00 0.  1.
</event>
<event>
 7    1  0.2690635E-009  0.8295160E+02  0.7561462E-02  0.1320878E+00
          1   -1    0    0  501    0  0.00000000000E+00  0.00000000000E+00  0.32655031306E+02  0.32655031306E+02  0.00000000000E+00 0. -1.
         -1   -1    0    0    0  501 -0.00000000000E+00 -0.00000000000E+00 -0.41229174189E+03  0.41229174189E+03  0.00000000000E+00 0.  1.
         25    2    1    2    0    0 -0.23394502601E+02  0.34317570501E+02 -0.23710882234E+03  0.27128148767E+03  0.12509218011E+03 0.  0.
          5    1    3    3  502    0  0.39186168192E+01 -0.19738307820E+02  0.54316591163E+01  0.21258684675E+02  0.41800000000E+01 0.  1.
         -5    1    3    3    0  502 -0.27313119421E+02  0.54055878322E+02 -0.24254048146E+03  0.25002280300E+03  0.41800000000E+01 0.  1.
        -11    1    1    2    0    0  0.40355426004E+02 -0.48100186723E+02 -0.55062695425E+02  0.83511010042E+02  0.00000000000E+00 0. -1.
         11    1    1    2    0    0 -0.16960923403E+02  0.13782616221E+02 -0.87465192813E+02  0.90154275475E+02  0.00000000000E+00 0.  1.
</event>
<event>
 7    1  0.2690635E-009  0.1207457E+03  0.7561462E-02  0.1241872E+00
         -1   -1    0    0    0  501 -0.00000000000E+00  0.00000000000E+00  0.69578826648E+02  0.69578826648E+02  0.00000000000E+00 0.  1.
          1   -1    0    0  501    0  0.00000000000E+00 -0.00000000000E+00 -0.26369005068E+03  0.26369005068E+03  0.00000000000E+00 0. -1.
         25    2    1    2    0    0  0.72639481657E+02  0.45919640140E+01 -0.14999832660E+03  0.20843356809E+03  0.12508986327E+03 0.  0.
          5    1    3    3  502    0  0.10608516879E+03  0.96465395750E+01 -0.13268505804E+03  0.17020551046E+03  0.41800000000E+01 0. -1.
         -5    1    3    3    0  502 -0.33445687133E+02 -0.50545755609E+01 -0.17313268562E+02  0.38228057630E+02  0.41800000000E+01 0. -1.
        -11    1    1    2    0    0 -0.32008020130E+01 -0.27498663339E+02 -0.43680442559E+02  0.51714627342E+02  0.00000000000E+00 0. -1.
         11    1    1    2    0    0 -0.69438679644E+02  0.22906699325E+02 -0.43245487471E+00  0.73120681902E+02  0.00000000000E+00 0.  1.
</event>
<event>
 7    1  0.2713930E-009  0.1435450E+03  0.7561462E-02  0.1208637E+00
         -1   -1    0    0    0  501 -0.00000000000E+00  0.00000000000E+00  0.41248529963E+02  0.41248529963E+02  0.00000000000E+00 0.  1.
          1   -1    0    0  501    0  0.00000000000E+00 -0.00000000000E+00 -0.77788881747E+03  0.77788881747E+03  0.00000000000E+00 0. -1.
         25    2    1    2    0    0 -0.10138904372E+03  0.73729745213E+02 -0.54285150018E+03  0.57101044365E+03  0.12509741003E+03 0.  0.
          5    1    3    3  502    0 -0.94345025437E+02  0.97967548516E+02 -0.33486541856E+03  0.36145669911E+03  0.41800000000E+01 0. -1.
         -5    1    3    3    0  502 -0.70440182843E+01 -0.24237803303E+02 -0.20798608162E+03  0.20955374454E+03  0.41800000000E+01 0. -1.
        -11    1    1    2    0    0  0.58571440169E+02 -0.40042735231E+02 -0.17766785481E+03  0.19131100565E+03  0.00000000000E+00 0. -1.
         11    1    1    2    0    0  0.42817603552E+02 -0.33687009982E+02 -0.16120932515E+02  0.56815898133E+02  0.00000000000E+00 0.  1.
</event>
<event>
 7    1  0.2690635E-009  0.1065788E+03  0.7561462E-02  0.1267040E+00
         -1   -1    0    0    0  501 -0.00000000000E+00  0.00000000000E+00  0.46643735825E+03  0.46643735825E+03  0.00000000000E+00 0.  1.
          1   -1    0    0  501    0  0.00000000000E+00 -0.00000000000E+00 -0.29263122649E+02  0.29263122649E+02  0.00000000000E+00 0. -1.
         25    2    1    2    0    0  0.30881674340E+01 -0.20187023680E+02  0.31181933899E+03  0.33659515607E+03  0.12509175121E+03 0.  0.
          5    1    3    3  502    0  0.45737102201E+02 -0.48682418305E+02  0.11402720704E+03  0.13221776248E+03  0.41800000000E+01 0. -1.
         -5    1    3    3    0  502 -0.42648934767E+02  0.28495394624E+02  0.19779213195E+03  0.20437739359E+03  0.41800000000E+01 0. -1.
        -11    1    1    2    0    0  0.11609994227E+02  0.55403397487E+02  0.93941426556E+02  0.10967825693E+03  0.00000000000E+00 0.  1.
         11    1    1    2    0    0 -0.14698161661E+02 -0.35216373807E+02  0.31413470060E+02  0.49427067903E+02  0.00000000000E+00 0. -1.
</event>
<event>
 7    1  0.2690635E-009  0.1130290E+03  0.7561462E-02  0.1255061E+00
          1   -1    0    0  501    0  0.00000000000E+00  0.00000000000E+00  0.41936657105E+03  0.41936657105E+03  0.00000000000E+00 0. -1.
         -1   -1    0    0    0  501 -0.00000000000E+00 -0.00000000000E+00 -0.42163465822E+02  0.42163465822E+02  0.00000000000E+00 0.  1.
         25    2    1    2    0    0 -0.59999069939E+02 -0.30825542566E+02  0.14421556739E+03  0.20247270894E+03  0.12508783122E+03 0.  0.
          5    1    3    3  502    0  0.33081329451E+01 -0.67436741148E+02  0.56069966606E+02  0.87863367540E+02  0.41800000000E+01 0. -1.
         -5    1    3    3    0  502 -0.63307202884E+02  0.36611198582E+02  0.88145600780E+02  0.11460934140E+03  0.41800000000E+01 0. -1.
        -11    1    1    2    0    0  0.45419250291E+02 -0.57538667869E+01  0.36189541534E+02  0.58358360124E+02  0.00000000000E+00 0.  1.
         11    1    1    2    0    0  0.14579819648E+02  0.36579409353E+02  0.19679799631E+03  0.20069896781E+03  0.00000000000E+00 0. -1.
</event>
<event>
 7    1  0.2690635E-009  0.1078432E+03  0.7561462E-02  0.1264617E+00
         -2   -1    0    0    0  501 -0.00000000000E+00  0.00000000000E+00  0.45405879571E+02  0.45405879571E+02  0.00000000000E+00 0.  1.
          2   -1    0    0  501    0  0.00000000000E+00 -0.00000000000E+00 -0.49966173405E+03  0.49966173405E+03  0.00000000000E+00 0. -1.
         25    2    1    2    0    0  0.43812611355E+02  0.62171156661E+02 -0.37620727891E+03  0.40369372524E+03  0.12510759151E+03 0.  0.
          5    1    3    3  502    0 -0.35896895714E+02  0.67557630438E+01 -0.42837955291E+02  0.56451663126E+02  0.41800000000E+01 0. -1.
         -5    1    3    3    0  502  0.79709507069E+02  0.55415393617E+02 -0.33336932362E+03  0.34724206211E+03  0.41800000000E+01 0. -1.
        -11    1    1    2    0    0 -0.46967874139E+02 -0.47708382885E+02 -0.53257604339E+01  0.67159770122E+02  0.00000000000E+00 0.  1.
         11    1    1    2    0    0  0.31552627844E+01 -0.14462773777E+02 -0.72722815135E+02  0.74214118264E+02  0.00000000000E+00 0. -1.
</event>
<event>
 7    1  0.3129083E-009  0.1023742E+03  0.7561462E-02  0.1275381E+00
          2   -1    0    0  501    0  0.00000000000E+00  0.00000000000E+00  0.10424666869E+04  0.10424666869E+04  0.00000000000E+00 0.  1.
         -2   -1    0    0    0  501 -0.00000000000E+00 -0.00000000000E+00 -0.15499909858E+02  0.15499909858E+02  0.00000000000E+00 0. -1.
         25    2    1    2    0    0  0.11692144742E+01  0.66143199980E+02  0.54532323426E+03  0.56338295024E+03  0.12508648543E+03 0.  0.
          5    1    3    3  502    0  0.18636774995E+02 -0.50880535636E+01  0.40055892783E+03  0.40104631246E+03  0.41800000000E+01 0.  1.
         -5    1    3    3    0  502 -0.17467560520E+02  0.71231253544E+02  0.14476430642E+03  0.16233663778E+03  0.41800000000E+01 0.  1.
        -11    1    1    2    0    0 -0.36381864761E+02  0.23425081982E+00  0.12955744723E+03  0.13456904209E+03  0.00000000000E+00 0. -1.
         11    1    1    2    0    0  0.35212650287E+02 -0.66377450800E+02  0.35208609557E+03  0.36001460444E+03  0.00000000000E+00 0.  1.
</event>
<event>
 7    1  0.2690635E-009  0.8983104E+02  0.7561462E-02  0.1303261E+00
         -1   -1    0    0    0  501 -0.00000000000E+00  0.00000000000E+00  0.25305375007E+02  0.25305375007E+02  0.00000000000E+00 0.  1.
          1   -1    0    0  501    0  0.00000000000E+00 -0.00000000000E+00 -0.55719244836E+03  0.55719244836E+03  0.00000000000E+00 0. -1.
         25    2    1    2    0    0 -0.33287796826E+01  0.30959561366E+02 -0.39057389015E+03  0.41129602756E+03  0.12508750301E+03 0.  0.
          5    1    3    3  502    0 -0.50603867693E+01 -0.36199453102E+02 -0.27577897646E+03  0.27822207709E+03  0.41800000000E+01 0.  1.
         -5    1    3    3    0  502  0.17316070868E+01  0.67159014469E+02 -0.11479491368E+03  0.13307395047E+03  0.41800000000E+01 0.  1.
        -11    1    1    2    0    0 -0.31051567018E+02 -0.26634924426E+02 -0.12749367893E+03  0.13389644200E+03  0.00000000000E+00 0. -1.
         11    1    1    2    0    0  0.34380346700E+02 -0.43246369401E+01 -0.13819504275E+02  0.37305353802E+02  0.00000000000E+00 0.  1.
</event>
<event>
 7    1  0.2690635E-009  0.8068971E+02  0.7561462E-02  0.1327105E+00
         -2   -1    0    0    0  501 -0.00000000000E+00  0.00000000000E+00  0.13252913633E+03  0.13252913633E+03  0.00000000000E+00 0.  1.
          2   -1    0    0  501    0  0.00000000000E+00 -0.00000000000E+00 -0.10701709193E+03  0.10701709193E+03  0.00000000000E+00 0. -1.
         25    2    1    2    0    0  0.42243300585E+01 -0.47919446942E+02  0.17149185554E+02  0.13511659399E+03  0.12509308952E+03 0.  0.
          5    1    3    3  502    0  0.16893872872E+02 -0.29783396088E+01 -0.50111282341E+02  0.53130842882E+02  0.41800000000E+01 0. -1.
         -5    1    3    3    0  502 -0.12669542814E+02 -0.44941107333E+02  0.67260467895E+02  0.81985751109E+02  0.41800000000E+01 0. -1.
        -11    1    1    2    0    0  0.28239803061E+02 -0.10402621930E+02 -0.15108585303E+02  0.33674476533E+02  0.00000000000E+00 0. -1.
         11    1    1    2    0    0 -0.32464133119E+02  0.58322068872E+02  0.23471444147E+02  0.70755157741E+02  0.00000000000E+00 0.  1.
</event>
<event>
 7    1  0.2690635E-009  0.1433410E+03  0.7561462E-02  0.1208903E+00
          2   -1    0    0  501    0  0.00000000000E+00  0.00000000000E+00  0.17676578314E+04  0.17676578314E+04  0.00000000000E+00 0. -1.
         -2   -1    0    0    0  501 -0.00000000000E+00 -0.00000000000E+00 -0.13212249698E+02  0.13212249698E+02  0.00000000000E+00 0.  1.
         25    2    1    2    0    0 -0.23461064884E+02 -0.94847699116E+02  0.12192869606E+04  0.12295753460E+04  0.12509329197E+03 0.  0.
          5    1    3    3  502    0 -0.16162648126E+02 -0.12553072372E+03  0.94402721810E+03  0.95248309943E+03  0.41800000000E+01 0. -1.
         -5    1    3    3    0  502 -0.72984167577E+01  0.30683024605E+02  0.27525974250E+03  0.27709224660E+03  0.41800000000E+01 0. -1.
        -11    1    1    2    0    0 -0.29330561303E+02  0.54113093364E+02  0.18892519439E+03  0.19869886204E+03  0.00000000000E+00 0. -1.
         11    1    1    2    0    0  0.52791626187E+02  0.40734605752E+02  0.34623342676E+03  0.35259587307E+03  0.00000000000E+00 0.  1.
</event>
<event>
 7    1  0.2690635E-009  0.2812367E+03  0.7561462E-02  0.1095015E+00
          2   -1    0    0  501    0  0.00000000000E+00  0.00000000000E+00  0.89876180887E+03  0.89876180887E+03  0.00000000000E+00 0. -1.
         -2   -1    0    0    0  501 -0.00000000000E+00 -0.00000000000E+00 -0.11405281332E+03  0.11405281332E+03  0.00000000000E+00 0.  1.
         25    2    1    2    0    0 -0.27241590418E+02  0.27939907399E+03  0.56858789255E+03  0.64633205216E+03  0.12508790231E+03 0.  0.
          5    1    3    3  502    0 -0.17962792172E+02  0.23692443505E+03  0.34759797954E+03  0.42106730770E+03  0.41800000000E+01 0.  1.
         -5    1    3    3    0  502 -0.92787982469E+01  0.42474638937E+02  0.22098991300E+03  0.22526474446E+03  0.41800000000E+01 0.  1.
        -11    1    1    2    0    0  0.22468393188E+02 -0.26570491890E+03  0.16552933779E+03  0.31385330059E+03  0.00000000000E+00 0.  1.
         11    1    1    2    0    0  0.47731972303E+01 -0.13694155085E+02  0.50591765208E+02  0.52629269444E+02  0.00000000000E+00 0. -1.
</event>
<event>
 7    1  0.2690635E-009  0.1592479E+03  0.7561462E-02  0.1189548E+00
          3   -1    0    0  501    0  0.00000000000E+00  0.00000000000E+00  0.81210084601E+03  0.81210084601E+03  0.00000000000E+00 0. -1.
         -3   -1    0    0    0  501 -0.00000000000E+00 -0.00000000000E+00 -0.42588819692E+02  0.42588819692E+02  0.00000000000E+00 0.  1.
         25    2    1    2    0    0 -0.58255472230E+02 -0.11381982321E+03  0.58684052006E+03  0.61349617077E+03  0.12508838223E+03 0.  0.
          5    1    3    3  502    0 -0.60411918253E+02 -0.13393400613E+03  0.41191018413E+03  0.43735042020E+03  0.41800000000E+01 0.  1.
         -5    1    3    3    0  502  0.21564460229E+01  0.20114182922E+02  0.17493033594E+03  0.17614575057E+03  0.41800000000E+01 0.  1.
        -11    1    1    2    0    0  0.17391810200E+01  0.89180701040E+02  0.72506331550E+02  0.11494951198E+03  0.00000000000E+00 0. -1.
         11    1    1    2    0    0  0.56516291210E+02  0.24639122166E+02  0.11016517470E+03  0.12624398295E+03  0.00000000000E+00 0.  1.
</event>
<event>
 7    1  0.2690635E-009  0.8958583E+02  0.7561462E-02  0.1303858E+00
         -1   -1    0    0    0  501 -0.00000000000E+00  0.00000000000E+00  0.39964539271E+03  0.39964539271E+03  0.00000000000E+00 0.  1.
          1   -1    0    0  501    0  0.00000000000E+00 -0.00000000000E+00 -0.36105399566E+02  0.36105399566E+02  0.00000000000E+00 0. -1.
         25    2    1    2    0    0 -0.12807910564E+02  0.31929999019E+02  0.12430919266E+03  0.17967884691E+03  0.12509254668E+03 0.  0.
          5    1    3    3  502    0  0.34192915330E+02  0.20539184620E+02  0.12485056134E+03  0.13113408646E+03  0.41800000000E+01 0.  1.
         -5    1    3    3    0  502 -0.47000825893E+02  0.11390814399E+02 -0.54136867598E+00  0.48544760452E+02  0.41800000000E+01 0.  1.
        -11    1    1    2    0    0  0.22634066268E+02 -0.58216108494E+02  0.14852976106E+03  0.16112884957E+03  0.00000000000E+00 0. -1.
         11    1    1    2    0    0 -0.98261557048E+01  0.26286109475E+02  0.90701039419E+02  0.94943095794E+02  0.00000000000E+00 0.  1.
</event>
<event>
 7    1  0.2690635E-009  0.1231330E+03  0.7561462E-02  0.1238016E+00
          1   -1    0    0  501    0  0.00000000000E+00  0.00000000000E+00  0.75595757006E+02  0.75595757006E+02  0.00000000000E+00 0. -1.
         -1   -1    0    0    0  501 -0.00000000000E+00 -0.00000000000E+00 -0.22751311468E+03  0.22751311468E+03  0.00000000000E+00 0.  1.
         25    2    1    2    0    0 -0.63458550848E+02  0.37211172387E+02 -0.73500231690E+02  0.16265704934E+03  0.12507346888E+03 0.  0.
          5    1    3    3  502    0 -0.97470409219E+02  0.38607918035E+02 -0.73940886875E+02  0.12835801167E+03  0.41800000000E+01 0.  1.
         -5    1    3    3    0  502  0.34011858371E+02 -0.13967456476E+01  0.44065518475E+00  0.34299037672E+02  0.41800000000E+01 0.  1.
        -11    1    1    2    0    0  0.55253234016E+02 -0.60750966054E+02 -0.81054466167E+02  0.11538382136E+03  0.00000000000E+00 0.  1.
         11    1    1    2    0    0  0.82053168325E+01  0.23539793667E+02  0.26373401817E+01  0.25068000986E+02  0.00000000000E+00 0. -1.
</event>
<event>
 7    1  0.2690635E-009  0.1171922E+03  0.7561462E-02  0.1247802E+00
          3   -1    0    0  501    0  0.00000000000E+00  0.00000000000E+00  0.16193806726E+03  0.16193806726E+03  0.00000000000E+00 0. -1.
         -3   -1    0    0    0  501 -0.00000000000E+00 -0.00000000000E+00 -0.12913314922E+03  0.12913314922E+03  0.00000000000E+00 0.  1.
         25    2    1    2    0    0  0.49666703728E+02  0.48207990410E+02 -0.48673681305E+02  0.15101818079E+03  0.12508625776E+03 0.  0.
          5    1    3    3  502    0  0.83222274581E+02  0.49005206576E+02 -0.61801056701E+02  0.11473578460E+03  0.41800000000E+01 0.  1.
         -5    1    3    3    0  502 -0.33555570853E+02 -0.79721616609E+00  0.13127375396E+02  0.36282396196E+02  0.41800000000E+01 0.  1.
        -11    1    1    2    0    0 -0.23277420838E+02 -0.67370199724E+02  0.80366555486E+02  0.10742143814E+03  0.00000000000E+00 0. -1.
         11    1    1    2    0    0 -0.26389282889E+02  0.19162209314E+02  0.11120438596E+01  0.32631597551E+02  0.00000000000E+00 0.  1.
</event>
<event>
 7    1  0.2690635E-009  0.1012620E+03  0.7561462E-02  0.1277664E+00
          2   -1    0    0  501    0  0.00000000000E+00  0.00000000000E+00  0.37543907246E+03  0.37543907246E+03  0.00000000000E+00 0. -1.
         -2   -1    0    0    0  501 -0.00000000000E+00 -0.00000000000E+00 -0.61741974673E+02  0.61741974673E+02  0.00000000000E+00 0.  1.
         25    2    1    2    0    0 -0.24211932503E+02  0.68657072485E+02  0.58573244592E+02  0.15613738785E+03  0.12509215652E+03 0.  0.
          5    1    3    3  502    0 -0.14519331931E+02  0.75924011066E+02  0.92060097751E+02  0.12028217014E+03  0.41800000000E+01 0.  1.
         -5    1    3    3    0  502 -0.96926005724E+01 -0.72669385803E+01 -0.33486853159E+02  0.35855217705E+02  0.41800000000E+01 0.  1.
        -11    1    1    2    0    0 -0.31285472122E+02 -0.13573872061E+02  0.42457809991E+02  0.54458207809E+02  0.00000000000E+00 0. -1.
         11    1    1    2    0    0  0.55497404625E+02 -0.55083200425E+02  0.21266604321E+03  0.22658545148E+03  0.00000000000E+00 0.  1.
</event>
<event>
 7    1  0.2690635E-009  0.1230734E+03  0.7561462E-02  0.1238111E+00
         -1   -1    0    0    0  501 -0.00000000000E+00  0.00000000000E+00  0.14614480719E+02  0.14614480719E+02  0.00000000000E+00 0.  1.
          1   -1    0    0  501    0  0.00000000000E+00 -0.00000000000E+00 -0.15371502850E+04  0.15371502850E+04  0.00000000000E+00 0. -1.
         25    2    1    2    0    0  0.31040848573E+02  0.85590761838E+02 -0.11068278594E+04  0.11175889125E+04  0.12509098407E+03 0.  0.
          5    1    3    3  502    0 -0.35388594326E+02 -0.10296533350E+02 -0.32179089176E+03  0.32392162883E+03  0.41800000000E+01 0.  1.
         -5    1    3    3    0  502  0.66429442899E+02  0.95887295188E+02 -0.78503696760E+03  0.79366728366E+03  0.41800000000E+01 0.  1.
        -11    1    1    2    0    0 -0.30944891965E+02 -0.67685358502E+02 -0.40791356318E+03  0.41464728279E+03  0.00000000000E+00 0. -1.
         11    1    1    2    0    0 -0.95956608121E-01 -0.17905403336E+02 -0.77943817329E+01  0.19528570427E+02  0.00000000000E+00 0.  1.
</event>
<event>
 7    1  0.2690635E-009  0.1585089E+03  0.7561462E-02  0.1190391E+00
         -1   -1    0    0    0  501 -0.00000000000E+00  0.00000000000E+00  0.52542657632E+02  0.52542657632E+02  0.00000000000E+00 0.  1.
          1   -1    0    0  501    0  0.00000000000E+00 -0.00000000000E+00 -0.51044247232E+03  0.51044247232E+03  0.00000000000E+00 0. -1.
         25    2    1    2    0    0 -0.12093272675E+03 -0.93292003493E+01 -0.27464900852E+03  0.32525594409E+03  0.12509033897E+03 0.  0.
          5    1    3    3  502    0 -0.36044808259E+02 -0.57947524541E+02 -0.67231259319E+02  0.95888781578E+02  0.41800000000E+01 0.  1.
         -5    1    3    3    0  502 -0.84887918496E+02  0.48618324191E+02 -0.20741774920E+03  0.22936716251E+03  0.41800000000E+01 0.  1.
        -11    1    1    2    0    0  0.64469388936E+02  0.49631707829E+02 -0.11029236903E+03  0.13705478904E+03  0.00000000000E+00 0.  1.
         11    1    1    2    0    0  0.56463337818E+02 -0.40302507480E+02 -0.72958437133E+02  0.10067439682E+03  0.00000000000E+00 0. -1.
</event>
<event>
 7    1  0.2690635E-009  0.1255054E+03  0.7561462E-02  0.1234282E+00
          1   -1    0    0  501    0  0.00000000000E+00  0.00000000000E+00  0.97098702426E+02  0.97098702426E+02  0.00000000000E+00 0. -1.
         -1   -1    0    0    0  501 -0.00000000000E+00 -0.00000000000E+00 -0.20421827603E+03  0.20421827603E+03  0.00000000000E+00 0.  1.
         25    2    1    2    0    0  0.52107909808E+02  0.72736742464E+02 -0.56780717485E+02  0.16394421203E+03  0.12509111404E+03 0.  0.
          5    1    3    3  502    0  0.73932515341E+02  0.36346707786E+02 -0.80409399692E+02  0.11519654487E+03  0.41800000000E+01 0.  1.
         -5    1    3    3    0  502 -0.21824605533E+02  0.36390034678E+02  0.23628682207E+02  0.48747667158E+02  0.41800000000E+01 0.  1.
        -11    1    1    2    0    0 -0.68563404142E+02 -0.21174918748E+02 -0.16798008822E+02  0.73698647694E+02  0.00000000000E+00 0. -1.
         11    1    1    2    0    0  0.16455494334E+02 -0.51561823716E+02 -0.33540847296E+02  0.63674118730E+02  0.00000000000E+00 0.  1.
</event>
<event>
 7    1  0.2690635E-009  0.1044527E+03  0.7561462E-02  0.1271202E+00
         -1   -1    0    0    0  501 -0.00000000000E+00  0.00000000000E+00  0.30988433366E+03  0.30988433366E+03  0.00000000000E+00 0.  1.
          1   -1    0    0  501    0  0.00000000000E+00 -0.00000000000E+00 -0.42764845387E+02  0.42764845387E+02  0.00000000000E+00 0. -1.
         25    2    1    2    0    0 -0.12372405876E+02 -0.18255639816E+02  0.10678348496E+03  0.16594143678E+03  0.12508997949E+03 0.  0.
          5    1    3    3  502    0 -0.40901336668E+01 -0.69507131969E+02  0.37286316950E+02  0.79093061767E+02  0.41800000000E+01 0. -1.
         -5    1    3    3    0  502 -0.82822722096E+01  0.51251492153E+02  0.69497168013E+02  0.86848375015E+02  0.41800000000E+01 0. -1.
        -11    1    1    2    0    0 -0.25557167098E+02 -0.20557677420E+02  0.26099323796E+02  0.41916125698E+02  0.00000000000E+00 0. -1.
         11    1    1    2    0    0  0.37929572974E+02  0.38813317236E+02  0.13423667951E+03  0.14479161657E+03  0.00000000000E+00 0.  1.
</event>
<event>
 7    1  0.2690635E-009  0.8419236E+02  0.7561462E-02  0.1317558E+00
          2   -1    0    0  501    0  0.00000000000E+00  0.00000000000E+00  0.22376593360E+03  0.22376593360E+03  0.00000000000E+00 0. -1.
         -2   -1    0    0    0  501 -0.00000000000E+00 -0.00000000000E+00 -0.54390899964E+02  0.54390899964E+02  0.00000000000E+00 0.  1.
         25    2    1    2    0    0 -0.19134317319E+02  0.18947777533E+01  0.89228956196E+02  0.15485561970E+03  0.12509494013E+03 0.  0.
          5    1    3    3  502    0 -0.50533280867E+02  0.12981210677E+02  0.10534129130E+03  0.11762816142E+03  0.41800000000E+01 0. -1.
         -5    1    3    3    0  502  0.31398963548E+02 -0.11086432924E+02 -0.16112335109E+02  0.37227458274E+02  0.41800000000E+01 0. -1.
        -11    1    1    2    0    0 -0.58746957465E+01  0.36331354212E+02  0.65848945999E+02  0.75435820657E+02  0.00000000000E+00 0.  1.
         11    1    1    2    0    0  0.25009013065E+02 -0.38226131966E+02  0.14297131440E+02  0.47865393208E+02  0.00000000000E+00 0. -1.
</event>
<event>
 7    1  0.2690635E-009  0.1064532E+03  0.7561462E-02  0.1267283E+00
          1   -1    0    0  501    0  0.00000000000E+00  0.00000000000E+00  0.17655421855E+03  0.17655421855E+03  0.00000000000E+00 0. -1.
         -1   -1    0    0    0  501 -0.00000000000E+00 -0.00000000000E+00 -0.69917344387E+02  0.69917344387E+02  0.00000000000E+00 0.  1.
         25    2    1    2    0    0  0.93727705261E+01 -0.21176307454E+02  0.63361091020E+02  0.14211818809E+03  0.12508663680E+03 0.  0.
          5    1    3    3  502    0 -0.86423739273E+01 -0.71892988289E+02  0.28921285188E+02  0.78084604943E+02  0.41800000000E+01 0. -1.
         -5    1    3    3    0  502  0.18015144453E+02  0.50716680835E+02  0.34439805832E+02  0.64033583144E+02  0.41800000000E+01 0. -1.
        -11    1    1    2    0    0  0.17688552030E+02  0.46239446957E+02  0.45718326174E+02  0.67387956461E+02  0.00000000000E+00 0. -1.
         11    1    1    2    0    0 -0.27061322556E+02 -0.25063139503E+02 -0.24425430306E+01  0.36965418389E+02  0.00000000000E+00 0.  1.
</event>
<event>
 7    1  0.2690635E-009  0.4041138E+03  0.7561462E-02  0.1042364E+00
          4   -1    0    0  501    0  0.00000000000E+00  0.00000000000E+00  0.82756059140E+03  0.82756059140E+03  0.00000000000E+00 0.  1.
         -4   -1    0    0    0  501 -0.00000000000E+00 -0.00000000000E+00 -0.19982733647E+03  0.19982733647E+03  0.00000000000E+00 0. -1.
         25    2    1    2    0    0  0.11984328826E+03 -0.37307162597E+03  0.30608731097E+03  0.51272037654E+03  0.12509152942E+03 0.  0.
          5    1    3    3  502    0  0.10401999344E+03 -0.14042407729E+03  0.99385353633E+02  0.20108207637E+03  0.41800000000E+01 0.  1.
         -5    1    3    3    0  502  0.15823294818E+02 -0.23264754869E+03  0.20670195734E+03  0.31163830017E+03  0.41800000000E+01 0.  1.
        -11    1    1    2    0    0 -0.28306156798E+02  0.22025201385E+03  0.20098855362E+03  0.29951391754E+03  0.00000000000E+00 0.  1.
         11    1    1    2    0    0 -0.91537131464E+02  0.15281961213E+03  0.12065739034E+03  0.21515363379E+03  0.00000000000E+00 0. -1.
</event>
<event>
 7    1  0.2690635E-009  0.1217012E+03  0.7561462E-02  0.1240317E+00
          2   -1    0    0  501    0  0.00000000000E+00  0.00000000000E+00  0.14535207391E+04  0.14535207391E+04  0.00000000000E+00 0. -1.
         -2   -1    0    0    0  501 -0.00000000000E+00 -0.00000000000E+00 -0.15113923462E+02  0.15113923462E+02  0.00000000000E+00 0.  1.
         25    2    1    2    0    0 -0.83363367637E+02 -0.13765710801E+01  0.10483538517E+04  0.10590785751E+04  0.12510109388E+03 0.  0.
          5    1    3    3  502    0  0.21038808058E+02 -0.14001960591E+02  0.50360744779E+03  0.50425848552E+03  0.41800000000E+01 0.  1.
         -5    1    3    3    0  502 -0.10440217569E+03  0.12625389511E+02  0.54474640394E+03  0.55482008954E+03  0.41800000000E+01 0.  1.
        -11    1    1    2    0    0  0.50820988280E+02  0.38067917931E+02  0.30352554507E+03  0.31009626850E+03  0.00000000000E+00 0. -1.
         11    1    1    2    0    0  0.32542379357E+02 -0.36691346851E+02  0.86527418881E+02  0.99459819054E+02  0.00000000000E+00 0.  1.
</event>
<event>
 7    1  0.2690635E-009  0.1155948E+03  0.7561462E-02  0.1250546E+00
         -1   -1    0    0    0  501 -0.00000000000E+00  0.00000000000E+00  0.48495732453E+02  0.48495732453E+02  0.00000000000E+00 0.  1.
          1   -1    0    0  501    0  0.00000000000E+00 -0.00000000000E+00 -0.32612359373E+03  0.32612359373E+03  0.00000000000E+00 0. -1.
         25    2    1    2    0    0 -0.62411333899E+02 -0.28376202872E+02 -0.14647527745E+03  0.20445762275E+03  0.12509008397E+03 0.  0.
          5    1    3    3  502    0 -0.41584248135E+02 -0.70517583125E+02 -0.47333608270E+02  0.94656865016E+02  0.41800000000E+01 0. -1.
         -5    1    3    3    0  502 -0.20827085763E+02  0.42141380253E+02 -0.99141669176E+02  0.10980075773E+03  0.41800000000E+01 0. -1.
        -11    1    1    2    0    0 -0.17234622407E+02 -0.66997586531E+00 -0.46230437624E+01  0.17856472519E+02  0.00000000000E+00 0.  1.
         11    1    1    2    0    0  0.79645956306E+02  0.29046178738E+02 -0.12652954006E+03  0.15230523092E+03  0.00000000000E+00 0. -1.
</event>
<event>
 7    1  0.2690635E-009  0.2373151E+03  0.7561462E-02  0.1121594E+00
         -2   -1    0    0    0  501 -0.00000000000E+00  0.00000000000E+00  0.11362100973E+03  0.11362100973E+03  0.00000000000E+00 0.  1.
          2   -1    0    0  501    0  0.00000000000E+00 -0.00000000000E+00 -0.58358224245E+03  0.58358224245E+03  0.00000000000E+00 0. -1.
         25    2    1    2    0    0 -0.10523362939E+03 -0.19872007516E+03 -0.33209483058E+03  0.42011735613E+03  0.12509129227E+03 0.  0.
          5    1    3    3  502    0 -0.11933159927E+03 -0.11881467558E+03 -0.17290654542E+03  0.24139408353E+03  0.41800000000E+01 0.  1.
         -5    1    3    3    0  502  0.14097969877E+02 -0.79905399579E+02 -0.15918828516E+03  0.17872327260E+03  0.41800000000E+01 0.  1.
        -11    1    1    2    0    0  0.20940116239E+02  0.44568278836E+02  0.65239315137E+01  0.49672745332E+02  0.00000000000E+00 0.  1.
         11    1    1    2    0    0  0.84293513150E+02  0.15415179632E+03 -0.14439033366E+03  0.22741315072E+03  0.00000000000E+00 0. -1.
</event>
<event>
 7    1  0.2690635E-009  0.1009253E+03  0.7561462E-02  0.1278362E+00
          2   -1    0    0  501    0  0.00000000000E+00  0.00000000000E+00  0.38563632505E+03  0.38563632505E+03  0.00000000000E+00 0.  1.
         -2   -1    0    0    0  501 -0.00000000000E+00 -0.00000000000E+00 -0.39435305029E+02  0.39435305029E+02  0.00000000000E+00 0. -1.
         25    2    1    2    0    0  0.29537030277E+02 -0.28216877780E+01  0.30294063080E+03  0.32909178654E+03  0.12509188663E+03 0.  0.
          5    1    3    3  502    0 -0.29697370547E+02 -0.41922977881E+02  0.80718449821E+02  0.95772701921E+02  0.41800000000E+01 0. -1.
         -5    1    3    3    0  502  0.59234400824E+02  0.39101290103E+02  0.22222218098E+03  0.23331908462E+03  0.41800000000E+01 0. -1.
        -11    1    1    2    0    0  0.23157953617E+02  0.11408973927E+02  0.32518284718E+02  0.41519806632E+02  0.00000000000E+00 0.  1.
         11    1    1    2    0    0 -0.52694983894E+02 -0.85872861490E+01  0.10742104507E+02  0.54460036910E+02  0.00000000000E+00 0. -1.
</event>
<event>
 7    1  0.2690635E-009  0.1411950E+03  0.7561462E-02  0.1211730E+00
          2   -1    0    0  501    0  0.00000000000E+00  0.00000000000E+00  0.39115471955E+03  0.39115471955E+03  0.00000000000E+00 0. -1.
         -2   -1    0    0    0  501 -0.00000000000E+00 -0.00000000000E+00 -0.59472972660E+02  0.59472972660E+02  0.00000000000E+00 0.  1.
         25    2    1    2    0    0 -0.77685267508E+02 -0.70584505093E+02  0.15190113457E+03  0.22302169219E+03  0.12509015691E+03 0.  0.
          5    1    3    3  502    0 -0.22662601664E+01 -0.83827677332E+02  0.99245465431E+02  0.12999750086E+03  0.41800000000E+01 0. -1.
         -5    1    3    3    0  502 -0.75419007342E+02  0.13243172238E+02  0.52655669138E+02  0.93024191325E+02  0.41800000000E+01 0. -1.
        -11    1    1    2    0    0 -0.38011498242E+01  0.30849061372E+02  0.60818012510E+01  0.31671779772E+02  0.00000000000E+00 0.  1.
         11    1    1    2    0    0  0.81486417332E+02  0.39735443722E+02  0.17369881107E+03  0.19593422025E+03  0.00000000000E+00 0. -1.
</event>
<event>
 7    1  0.2690635E-009  0.1840677E+03  0.7561462E-02  0.1163923E+00
         -1   -1    0    0    0  501 -0.00000000000E+00  0.00000000000E+00  0.32450169802E+02  0.32450169802E+02  0.00000000000E+00 0.  1.
          1   -1    0    0  501    0  0.00000000000E+00 -0.00000000000E+00 -0.11969159778E+04  0.11969159778E+04  0.00000000000E+00 0. -1.
         25    2    1    2    0    0 -0.82246272670E+02 -0.14299256990E+03 -0.61240506857E+03  0.64645117160E+03  0.12509126607E+03 0.  0.
          5    1    3    3  502    0  0.11741154096E+00 -0.72769520712E+02 -0.41434417450E+03  0.42070652987E+03  0.41800000000E+01 0.  1.
         -5    1    3    3    0  502 -0.82363684211E+02 -0.70223049193E+02 -0.19806089407E+03  0.22574464174E+03  0.41800000000E+01 0.  1.
        -11    1    1    2    0    0 -0.42816861147E+01 -0.10158876094E+02 -0.39526260055E+02  0.41034873382E+02  0.00000000000E+00 0.  1.
         11    1    1    2    0    0  0.86527958785E+02  0.15315144600E+03 -0.51253447938E+03  0.54188010262E+03  0.00000000000E+00 0. -1.
</event>
<event>
 7    1  0.3910838E-009  0.8571975E+02  0.7561462E-02  0.1313561E+00
         -2   -1    0    0    0  501 -0.00000000000E+00  0.00000000000E+00  0.27127890379E+02  0.27127890379E+02  0.00000000000E+00 0.  1.
          2   -1    0    0  501    0  0.00000000000E+00 -0.00000000000E+00 -0.73563347578E+03  0.73563347578E+03  0.00000000000E+00 0. -1.
         25    2    1    2    0    0 -0.29399252811E+02  0.23914685926E+02 -0.60902736468E+03  0.62289496834E+03  0.12509029690E+03 0.  0.
          5    1    3    3  502    0 -0.66097970579E+02  0.31283200101E+02 -0.21629325666E+03  0.22835898405E+03  0.41800000000E+01 0.  1.
         -5    1    3    3    0  502  0.36698717767E+02 -0.73685141757E+01 -0.39273410803E+03  0.39453598428E+03  0.41800000000E+01 0.  1.
        -11    1    1    2    0    0  0.30383561898E+02  0.56869156034E+01  0.49627261998E+01  0.31307035855E+02  0.00000000000E+00 0.  1.
         11    1    1    2    0    0 -0.98430908680E+00 -0.29601601529E+02 -0.10444094692E+03  0.10855936197E+03  0.00000000000E+00 0. -1.
</event>
<event>
 7    1  0.2690635E-009  0.1011900E+03  0.7561462E-02  0.1277813E+00
          1   -1    0    0  501    0  0.00000000000E+00  0.00000000000E+00  0.15917545715E+03  0.15917545715E+03  0.00000000000E+00 0. -1.
         -1   -1    0    0    0  501 -0.00000000000E+00 -0.00000000000E+00 -0.11903675919E+03  0.11903675919E+03  0.00000000000E+00 0.  1.
         25    2    1    2    0    0  0.37024035300E+02  0.73623878454E+02  0.42308312958E+02  0.15565578352E+03  0.12508986741E+03 0.  0.
          5    1    3    3  502    0  0.34875779601E+02  0.23908103949E+02  0.81675763975E+02  0.92066933576E+02  0.41800000000E+01 0. -1.
         -5    1    3    3    0  502  0.21482556991E+01  0.49715774505E+02 -0.39367451017E+02  0.63588849941E+02  0.41800000000E+01 0. -1.
        -11    1    1    2    0    0  0.11929384623E+02 -0.57028571094E+02  0.25873410258E+02  0.63749521543E+02  0.00000000000E+00 0. -1.
         11    1    1    2    0    0 -0.48953419924E+02 -0.16595307360E+02 -0.28043025264E+02  0.58806911282E+02  0.00000000000E+00 0.  1.
</event>
<event>
 7    1  0.2690635E-009  0.9041028E+02  0.7561462E-02  0.1301861E+00
         -2   -1    0    0    0  501 -0.00000000000E+00  0.00000000000E+00  0.30123380608E+02  0.30123380608E+02  0.00000000000E+00 0.  1.
          2   -1    0    0  501    0  0.00000000000E+00 -0.00000000000E+00 -0.42424446252E+03  0.42424446252E+03  0.00000000000E+00 0. -1.
         25    2    1    2    0    0  0.13543824127E+02 -0.18488435623E+02 -0.29197945695E+03  0.31847411468E+03  0.12509396875E+03 0.  0.
          5    1    3    3  502    0  0.67415754464E+02 -0.25442302134E+02 -0.15199777264E+03  0.16826464267E+03  0.41800000000E+01 0.  1.
         -5    1    3    3    0  502 -0.53871930338E+02  0.69538665109E+01 -0.13998168431E+03  0.15020947201E+03  0.41800000000E+01 0.  1.
        -11    1    1    2    0    0 -0.31149631052E+02  0.40854579121E+01 -0.10794054683E+03  0.11241953625E+03  0.00000000000E+00 0. -1.
         11    1    1    2    0    0  0.17605806926E+02  0.14402977711E+02  0.57989218650E+01  0.23474192196E+02  0.00000000000E+00 0.  1.
</event>
<event>
 7    1  0.2690635E-009  0.1153751E+03  0.7561462E-02  0.1250928E+00
         -1   -1    0    0    0  501 -0.00000000000E+00  0.00000000000E+00  0.24433531301E+02  0.24433531301E+02  0.00000000000E+00 0.  1.
          1   -1    0    0  501    0  0.00000000000E+00 -0.00000000000E+00 -0.57931728460E+03  0.57931728460E+03  0.00000000000E+00 0. -1.
         25    2    1    2    0    0  0.29646664849E+02 -0.29853198333E+02 -0.30761549869E+03  0.33473161875E+03  0.12509126017E+03 0.  0.
          5    1    3    3  502    0 -0.44261338232E+02 -0.30372558847E+02 -0.90077620992E+02  0.10494288254E+03  0.41800000000E+01 0. -1.
         -5    1    3    3    0  502  0.73908003081E+02  0.51936051394E+00 -0.21753787770E+03  0.22978873621E+03  0.41800000000E+01 0. -1.
        -11    1    1    2    0    0  0.12515873606E+02  0.53222185111E+02 -0.16314949049E+03  0.17206686005E+03  0.00000000000E+00 0. -1.
         11    1    1    2    0    0 -0.42162538455E+02 -0.23368986779E+02 -0.84118764123E+02  0.96952337103E+02  0.00000000000E+00 0.  1.
</event>
<event>
 7    1  0.2690635E-009  0.8431204E+02  0.7561462E-02  0.1317241E+00
         -2   -1    0    0    0  501 -0.00000000000E+00  0.00000000000E+00  0.22445921769E+02  0.22445921769E+02  0.00000000000E+00 0. -1.
          2   -1    0    0  501    0  0.00000000000E+00 -0.00000000000E+00 -0.67905864186E+03  0.67905864186E+03  0.00000000000E+00 0.  1.
         25    2    1    2    0    0  0.42463520178E+02  0.33822422930E+01 -0.49395286958E+03  0.51132397231E+03  0.12509267435E+03 0.  0.
          5    1    3    3  502    0  0.26914523909E+02  0.38726363462E+02 -0.45075021832E+03  0.45322991355E+03  0.41800000000E+01 0.  1.
         -5    1    3    3    0  502  0.15548996268E+02 -0.35344121169E+02 -0.43202651268E+02  0.58094058756E+02  0.41800000000E+01 0.  1.
        -11    1    1    2    0    0 -0.17734298120E+02  0.33575761286E+02 -0.12882257415E+03  0.13430224378E+03  0.00000000000E+00 0.  1.
         11    1    1    2    0    0 -0.24729222058E+02 -0.36958003579E+02 -0.33837276362E+02  0.55878347540E+02  0.00000000000E+00 0. -1.
</event>
<event>
 7    1  0.2690635E-009  0.8705907E+02  0.7561462E-02  0.1310134E+00
         -3   -1    0    0    0  501 -0.00000000000E+00  0.00000000000E+00  0.30997794821E+03  0.30997794821E+03  0.00000000000E+00 0.  1.
          3   -1    0    0  501    0  0.00000000000E+00 -0.00000000000E+00 -0.46377870415E+02  0.46377870415E+02  0.00000000000E+00 0. -1.
         25    2    1    2    0    0  0.21257723514E+00 -0.34991706570E+02  0.20135663890E+03  0.23961837478E+03  0.12509198530E+03 0.  0.
          5    1    3    3  502    0  0.25072211108E+02  0.82153791689E+01  0.18510328055E+03  0.18702086807E+03  0.41800000000E+01 0.  1.
         -5    1    3    3    0  502 -0.24859633873E+02 -0.43207085739E+02  0.16253358355E+02  0.52597506711E+02  0.41800000000E+01 0.  1.
        -11    1    1    2    0    0 -0.45395308468E+02  0.13583272818E+02  0.20598893820E+02  0.51667724529E+02  0.00000000000E+00 0.  1.
         11    1    1    2    0    0  0.45182731233E+02  0.21408433752E+02  0.41644545070E+02  0.65069719313E+02  0.00000000000E+00 0. -1.
</event>
<event>
 7    1  0.2690635E-009  0.7025005E+02  0.7561462E-02  0.1359245E+00
          1   -1    0    0  501    0  0.00000000000E+00  0.00000000000E+00  0.13508359595E+03  0.13508359595E+03  0.00000000000E+00 0. -1.
         -1   -1    0    0    0  501 -0.00000000000E+00 -0.00000000000E+00 -0.10403276297E+03  0.10403276297E+03  0.00000000000E+00 0.  1.
         25    2    1    2    0    0  0.20741684497E+02 -0.15665296352E+02  0.58805268670E+02  0.14064725424E+03  0.12509185232E+03 0.  0.
          5    1    3    3  502    0  0.31616997508E+02 -0.44966518931E+02  0.83870487116E+02  0.10036609669E+03  0.41800000000E+01 0.  1.
         -5    1    3    3    0  502 -0.10875313011E+02  0.29301222579E+02 -0.25065218446E+02  0.40281157549E+02  0.41800000000E+01 0.  1.
        -11    1    1    2    0    0  0.10503887984E+02  0.19709041457E+02  0.27157193684E+02  0.35160932108E+02  0.00000000000E+00 0. -1.
         11    1    1    2    0    0 -0.31245572481E+02 -0.40437451046E+01 -0.54911629375E+02  0.63308172575E+02  0.00000000000E+00 0.  1.
</event>
<event>
 7    1  0.2690635E-009  0.1066760E+03  0.7561462E-02  0.1266852E+00
         -2   -1    0    0    0  501 -0.00000000000E+00  0.00000000000E+00  0.30580840653E+02  0.30580840653E+02  0.00000000000E+00 0.  1.
          2   -1    0    0  501    0  0.00000000000E+00 -0.00000000000E+00 -0.54011904204E+03  0.54011904204E+03  0.00000000000E+00 0. -1.
         25    2    1    2    0    0  0.64607713290E+02 -0.13013261623E+02 -0.23479831069E+03  0.27408201589E+03  0.12508878100E+03 0.  0.
          5    1    3    3  502    0 -0.11111703390E+02  0.42741721857E+02 -0.10278845856E+03  0.11195206274E+03  0.41800000000E+01 0.  1.
         -5    1    3    3    0  502  0.75719416680E+02 -0.55754983480E+02 -0.13200985214E+03  0.16212995314E+03  0.41800000000E+01 0.  1.
        -11    1    1    2    0    0 -0.39528789743E+02  0.25308362867E+02 -0.26155233773E+03  0.26573043451E+03  0.00000000000E+00 0. -1.
         11    1    1    2    0    0 -0.25078923547E+02 -0.12295101244E+02 -0.13187552954E+02  0.30887432295E+02  0.00000000000E+00 0.  1.
</event>
<event>
 7    1  0.2690635E-009  0.1059106E+03  0.7561462E-02  0.1268336E+00
          2   -1    0    0  501    0  0.00000000000E+00  0.00000000000E+00  0.69951119666E+02  0.69951119666E+02  0.00000000000E+00 0. -1.
         -2   -1    0    0    0  501 -0.00000000000E+00 -0.00000000000E+00 -0.19760673786E+03  0.19760673786E+03  0.00000000000E+00 0.  1.
         25    2    1    2    0    0 -0.13875497585E+02 -0.22872086222E+02 -0.25679173125E+02  0.13047162525E+03  0.12509102007E+03 0.  0.
          5    1    3    3  502    0  0.46354215731E+02 -0.38747160776E+02  0.52795922311E+01  0.60789820516E+02  0.41800000000E+01 0.  1.
         -5    1    3    3    0  502 -0.60229713316E+02  0.15875074555E+02 -0.30958765356E+02  0.69681804731E+02  0.41800000000E+01 0.  1.
        -11    1    1    2    0    0 -0.12802675547E+02 -0.28335747419E+02 -0.20571763496E+02  0.37282979177E+02  0.00000000000E+00 0. -1.
         11    1    1    2    0    0  0.26678173131E+02  0.51207833641E+02 -0.81404681568E+02  0.99803253098E+02  0.00000000000E+00 0.  1.
</event>
<event>
 7    1  0.2690635E-009  0.8562898E+02  0.7561462E-02  0.1313796E+00
          2   -1    0    0  501    0  0.00000000000E+00  0.00000000000E+00  0.11043393523E+03  0.11043393523E+03  0.00000000000E+00 0. -1.
         -2   -1    0    0    0  501 -0.00000000000E+00 -0.00000000000E+00 -0.11458398532E+03  0.11458398532E+03  0.00000000000E+00 0.  1.
         25    2    1    2    0    0  0.91253699285E+01 -0.23922756987E+02 -0.17099278097E+02  0.12883372510E+03  0.12510065041E+03 0.  0.
          5    1    3    3  502    0  0.21345447610E+02 -0.60744496153E+02  0.27005628112E+02  0.69944966197E+02  0.41800000000E+01 0. -1.
         -5    1    3    3    0  502 -0.12220077682E+02  0.36821739166E+02 -0.44104906209E+02  0.58888758906E+02  0.41800000000E+01 0. -1.
        -11    1    1    2    0    0  0.26716151958E+02  0.15539404647E+02 -0.27588130331E+02  0.41428623045E+02  0.00000000000E+00 0.  1.
         11    1    1    2    0    0 -0.35841521887E+02  0.83833523396E+01  0.40537358337E+02  0.54755572397E+02  0.00000000000E+00 0. -1.
</event>
<event>
 7    1  0.2690635E-009  0.1257043E+03  0.7561462E-02  0.1233973E+00
         -3   -1    0    0    0  501 -0.00000000000E+00  0.00000000000E+00  0.53281239034E+02  0.53281239034E+02  0.00000000000E+00 0.  1.
          3   -1    0    0  501    0  0.00000000000E+00 -0.00000000000E+00 -0.31496760571E+03  0.31496760571E+03  0.00000000000E+00 0. -1.
         25    2    1    2    0    0 -0.57710976472E+02 -0.40813510154E+02 -0.15029319778E+03  0.20792187328E+03  0.12508861130E+03 0.  0.
          5    1    3    3  502    0 -0.45193255502E+02  0.40693080181E+02 -0.59119835696E+02  0.84917515803E+02  0.41800000000E+01 0. -1.
         -5    1    3    3    0  502 -0.12517720970E+02 -0.81506590335E+02 -0.91173362080E+02  0.12300435748E+03  0.41800000000E+01 0. -1.
        -11    1    1    2    0    0  0.22532713206E+02 -0.24754564643E+02 -0.10737340092E+02  0.35153977120E+02  0.00000000000E+00 0.  1.
         11    1    1    2    0    0  0.35178263267E+02  0.65568074797E+02 -0.10065582881E+03  0.12517299434E+03  0.00000000000E+00 0. -1.
</event>
<event>
 7    1  0.2690635E-009  0.1115273E+03  0.7561462E-02  0.1257767E+00
         -2   -1    0    0    0  501 -0.00000000000E+00  0.00000000000E+00  0.11321086681E+03  0.11321086681E+03  0.00000000000E+00 0. -1.
          2   -1    0    0  501    0  0.00000000000E+00 -0.00000000000E+00 -0.18084084313E+03  0.18084084313E+03  0.00000000000E+00 0.  1.
         25    2    1    2    0    0  0.44527729667E+02 -0.39839158118E+02  0.23404882497E+02  0.14058965430E+03  0.12509110737E+03 0.  0.
          5    1    3    3  502    0  0.79193182516E+02 -0.14735802645E+02  0.45110560950E+02  0.92418283612E+02  0.41800000000E+01 0.  1.
         -5    1    3    3    0  502 -0.34665452849E+02 -0.25103355472E+02 -0.21705678453E+02  0.48171370691E+02  0.41800000000E+01 0.  1.
        -11    1    1    2    0    0 -0.58499376586E+00  0.53399224653E+02 -0.93209152093E+02  0.10742330029E+03  0.00000000000E+00 0.  1.
         11    1    1    2    0    0 -0.43942735901E+02 -0.13560066535E+02  0.21742932830E+01  0.46038755350E+02  0.00000000000E+00 0. -1.
</event>
<event>
 7    1  0.2690635E-009  0.1245810E+03  0.7561462E-02  0.1235726E+00
          2   -1    0    0  501    0  0.00000000000E+00  0.00000000000E+00  0.19559909703E+04  0.19559909703E+04  0.00000000000E+00 0. -1.
         -2   -1    0    0    0  501 -0.00000000000E+00 -0.00000000000E+00 -0.11371443316E+02  0.11371443316E+02  0.00000000000E+00 0.  1.
         25    2    1    2    0    0  0.70646381845E+02  0.14848595389E+02  0.15481528028E+04  0.15548751259E+04  0.12509262171E+03 0.  0.
          5    1    3    3  502    0  0.75374271191E+02  0.55821578042E+02  0.12902757138E+04  0.12936870639E+04  0.41800000000E+01 0. -1.
         -5    1    3    3    0  502 -0.47278893457E+01 -0.40972982652E+02  0.25787708906E+03  0.26118806195E+03  0.41800000000E+01 0. -1.
        -11    1    1    2    0    0 -0.47533674712E+02 -0.51755745913E+02  0.24073417246E+03  0.25078087897E+03  0.00000000000E+00 0.  1.
         11    1    1    2    0    0 -0.23112707133E+02  0.36907150524E+02  0.15573255170E+03  0.16170640881E+03  0.00000000000E+00 0. -1.
</event>
<event>
 7    1  0.2690635E-009  0.1326394E+03  0.7561462E-02  0.1223591E+00
         -1   -1    0    0    0  501 -0.00000000000E+00  0.00000000000E+00  0.81194853481E+02  0.81194853481E+02  0.00000000000E+00 0.  1.
          1   -1    0    0  501    0  0.00000000000E+00 -0.00000000000E+00 -0.34609397402E+03  0.34609397402E+03  0.00000000000E+00 0. -1.
         25    2    1    2    0    0 -0.40592371456E+02 -0.81292119207E+02 -0.26695994591E+02  0.15689769747E+03  0.12509221430E+03 0.  0.
          5    1    3    3  502    0 -0.80749349527E+02 -0.48707136030E+02 -0.41247244483E+02  0.10301286389E+03  0.41800000000E+01 0. -1.
         -5    1    3    3    0  502  0.40156978071E+02 -0.32584983177E+02  0.14551249892E+02  0.53884833579E+02  0.41800000000E+01 0. -1.
        -11    1    1    2    0    0 -0.77896108801E+01 -0.11769820174E+02 -0.75514698622E+02  0.76822369220E+02  0.00000000000E+00 0.  1.
         11    1    1    2    0    0  0.48381982336E+02  0.93061939381E+02 -0.16268842732E+03  0.19356876081E+03  0.00000000000E+00 0. -1.
</event>
<event>
 7    1  0.2690635E-009  0.9147352E+02  0.7561462E-02  0.1299322E+00
         -2   -1    0    0    0  501 -0.00000000000E+00  0.00000000000E+00  0.27876911709E+02  0.27876911709E+02  0.00000000000E+00 0.  1.
          2   -1    0    0  501    0  0.00000000000E+00 -0.00000000000E+00 -0.44936415651E+03  0.44936415651E+03  0.00000000000E+00 0. -1.
         25    2    1    2    0    0 -0.17164590279E+02 -0.18356963072E+02 -0.21593768473E+03  0.25081442050E+03  0.12508872287E+03 0.  0.
          5    1    3    3  502    0  0.31117814614E+02 -0.38458639458E+02 -0.30890156976E+02  0.58472724696E+02  0.41800000000E+01 0.  1.
         -5    1    3    3    0  502 -0.48282404894E+02  0.20101676386E+02 -0.18504752776E+03  0.19234169580E+03  0.41800000000E+01 0.  1.
        -11    1    1    2    0    0 -0.22481522149E+02 -0.16624444991E+02 -0.22485612482E+02  0.35880270040E+02  0.00000000000E+00 0.  1.
         11    1    1    2    0    0  0.39646112429E+02  0.34981408064E+02 -0.18306394759E+03  0.19054637768E+03  0.00000000000E+00 0. -1.
</event>
<event>
 7    1  0.2690635E-009  0.7384852E+02  0.7561462E-02  0.1347474E+00
         -1   -1    0    0    0  501 -0.00000000000E+00  0.00000000000E+00  0.86116376717E+02  0.86116376717E+02  0.00000000000E+00 0.  1.
          1   -1    0    0  501    0  0.00000000000E+00 -0.00000000000E+00 -0.14536599131E+03  0.14536599131E+03  0.00000000000E+00 0. -1.
         25    2    1    2    0    0  0.17749331094E+02  0.27369327088E+02 -0.30281011204E+02  0.13277716137E+03  0.12509482852E+03 0.  0.
          5    1    3    3  502    0 -0.11569729301E+02 -0.65637293915E+01  0.43862771555E+02  0.46025604918E+02  0.41800000000E+01 0. -1.
         -5    1    3    3    0  502  0.29319060395E+02  0.33933056480E+02 -0.74143782759E+02  0.86751556449E+02  0.41800000000E+01 0. -1.
        -11    1    1    2    0    0  0.12429715487E+02  0.25199882713E+02  0.59913226817E+01  0.28730260411E+02  0.00000000000E+00 0.  1.
         11    1    1    2    0    0 -0.30179046582E+02 -0.52569209801E+02 -0.34959926073E+02  0.69974946250E+02  0.00000000000E+00 0. -1.
</event>
<event>
 7    1  0.2690635E-009  0.1606912E+03  0.7561462E-02  0.1187919E+00
         -3   -1    0    0    0  501 -0.00000000000E+00  0.00000000000E+00  0.13975156510E+03  0.13975156510E+03  0.00000000000E+00 0.  1.
          3   -1    0    0  501    0  0.00000000000E+00 -0.00000000000E+00 -0.20921861006E+03  0.20921861006E+03  0.00000000000E+00 0. -1.
         25    2    1    2    0    0 -0.12947858885E+03 -0.21109253965E+02 -0.25090147345E+02  0.18299515140E+03  0.12508958537E+03 0.  0.
          5    1    3    3  502    0 -0.94477470875E+02 -0.58959307420E+02  0.21365568771E+02  0.11347313498E+03  0.41800000000E+01 0.  1.
         -5    1    3    3    0  502 -0.35001117975E+02  0.37850053455E+02 -0.46455716117E+02  0.69522016412E+02  0.41800000000E+01 0.  1.
        -11    1    1    2    0    0  0.10461834476E+03  0.53404805043E+02 -0.43354025465E+02  0.12520640074E+03  0.00000000000E+00 0.  1.
         11    1    1    2    0    0  0.24860244085E+02 -0.32295551078E+02 -0.10228721459E+01  0.40768623019E+02  0.00000000000E+00 0. -1.
</event>
<event>
 7    1  0.2690635E-009  0.9587048E+02  0.7561462E-02  0.1289227E+00
         -3   -1    0    0    0  501 -0.00000000000E+00  0.00000000000E+00  0.40269320219E+02  0.40269320219E+02  0.00000000000E+00 0.  1.
          3   -1    0    0  501    0  0.00000000000E+00 -0.00000000000E+00 -0.33769370724E+03  0.33769370724E+03  0.00000000000E+00 0. -1.
         25    2    1    2    0    0 -0.25732744135E+02 -0.31189256480E+02 -0.14458787176E+03  0.19541735600E+03  0.12508935416E+03 0.  0.
          5    1    3    3  502    0 -0.56953750661E+02 -0.12509179635E+02 -0.14443807298E+02  0.60218811503E+02  0.41800000000E+01 0.  1.
         -5    1    3    3    0  502  0.31221006526E+02 -0.18680076845E+02 -0.13014406446E+03  0.13519854450E+03  0.41800000000E+01 0.  1.
        -11    1    1    2    0    0 -0.15973701674E+02 -0.23170024021E+02 -0.25647512247E+02  0.38076292398E+02  0.00000000000E+00 0.  1.
         11    1    1    2    0    0  0.41706445809E+02  0.54359280501E+02 -0.12718900302E+03  0.14446937907E+03  0.00000000000E+00 0. -1.
</event>
<event>
 7    1  0.2690635E-009  0.8167719E+02  0.7561462E-02  0.1324358E+00
          2   -1    0    0  501    0  0.00000000000E+00  0.00000000000E+00  0.90413417486E+03  0.90413417486E+03  0.00000000000E+00 0. -1.
         -2   -1    0    0    0  501 -0.00000000000E+00 -0.00000000000E+00 -0.20316562408E+02  0.20316562408E+02  0.00000000000E+00 0.  1.
         25    2    1    2    0    0  0.89628013246E+01 -0.52539982305E+02  0.69364955261E+03  0.70685034026E+03  0.12508764980E+03 0.  0.
          5    1    3    3  502    0 -0.33308689312E+02 -0.53584939768E+02  0.16832000779E+03  0.17980520564E+03  0.41800000000E+01 0.  1.
         -5    1    3    3    0  502  0.42271490636E+02  0.10449574629E+01  0.52532954482E+03  0.52704513462E+03  0.41800000000E+01 0.  1.
        -11    1    1    2    0    0 -0.15955644221E+02  0.42502047428E+02  0.19795814690E+03  0.20309710619E+03  0.00000000000E+00 0. -1.
         11    1    1    2    0    0  0.69928428966E+01  0.10037934877E+02 -0.77900870593E+01  0.14503290825E+02  0.00000000000E+00 0.  1.
</event>
<event>
 7    1  0.2690635E-009  0.1211801E+03  0.7561462E-02  0.1241163E+00
         -2   -1    0    0    0  501 -0.00000000000E+00  0.00000000000E+00  0.30621133417E+03  0.30621133417E+03  0.00000000000E+00 0.  1.
          2   -1    0    0  501    0  0.00000000000E+00 -0.00000000000E+00 -0.53507772754E+02  0.53507772754E+02  0.00000000000E+00 0. -1.
         25    2    1    2    0    0  0.48655022663E+02 -0.35811685483E+02  0.17893926179E+03  0.22653195362E+03  0.12509068132E+03 0.  0.
          5    1    3    3  502    0  0.13092221792E+02 -0.77372138752E+02  0.73128824832E+02  0.10734594332E+03  0.41800000000E+01 0. -1.
         -5    1    3    3    0  502  0.35562800870E+02  0.41560453269E+02  0.10581043696E+03  0.11918601030E+03  0.41800000000E+01 0. -1.
        -11    1    1    2    0    0 -0.75601386973E+02  0.22597147809E+02  0.64087903132E+02  0.10165362821E+03  0.00000000000E+00 0.  1.
         11    1    1    2    0    0  0.26946364310E+02  0.13214537673E+02  0.96763964954E+01  0.31533525090E+02  0.00000000000E+00 0. -1.
</event>
<event>
 7    1  0.2690635E-009  0.2242553E+03  0.7561462E-02  0.1130750E+00
         -1   -1    0    0    0  501 -0.00000000000E+00  0.00000000000E+00  0.65047309298E+02  0.65047309298E+02  0.00000000000E+00 0.  1.
          1   -1    0    0  501    0  0.00000000000E+00 -0.00000000000E+00 -0.10021265208E+04  0.10021265208E+04  0.00000000000E+00 0. -1.
         25    2    1    2    0    0  0.13127637479E+03  0.16794510634E+03 -0.30040585519E+03  0.38901212210E+03  0.12509079896E+03 0.  0.
          5    1    3    3  502    0  0.67305174131E+02  0.17185578563E+02 -0.36994087992E+02  0.78812216830E+02  0.41800000000E+01 0. -1.
         -5    1    3    3    0  502  0.63971200660E+02  0.15075952777E+03 -0.26341176720E+03  0.31019990527E+03  0.41800000000E+01 0. -1.
        -11    1    1    2    0    0 -0.95004964327E+02 -0.99115356309E+02 -0.26523641646E+03  0.29866394780E+03  0.00000000000E+00 0.  1.
         11    1    1    2    0    0 -0.36271410464E+02 -0.68829750029E+02 -0.37143693983E+03  0.37949776017E+03  0.00000000000E+00 0. -1.
</event>
<event>
 7    1  0.2690635E-009  0.1667678E+03  0.7561462E-02  0.1181261E+00
         -2   -1    0    0    0  501 -0.00000000000E+00  0.00000000000E+00  0.92417082785E+02  0.92417082785E+02  0.00000000000E+00 0. -1.
          2   -1    0    0  501    0  0.00000000000E+00 -0.00000000000E+00 -0.38379420932E+03  0.38379420932E+03  0.00000000000E+00 0.  1.
         25    2    1    2    0    0 -0.13770560725E+03 -0.11369150198E+02 -0.67554335248E+02  0.19825080241E+03  0.12509076944E+03 0.  0.
          5    1    3    3  502    0  0.51028096095E+01 -0.26893468451E+02  0.16034994578E+02  0.31998293117E+02  0.41800000000E+01 0. -1.
         -5    1    3    3    0  502 -0.14280841686E+03  0.15524318253E+02 -0.83589329827E+02  0.16625250929E+03  0.41800000000E+01 0. -1.
        -11    1    1    2    0    0  0.11291489628E+03  0.43973875499E+02 -0.14366621055E+03  0.18794535264E+03  0.00000000000E+00 0.  1.
         11    1    1    2    0    0  0.24790710977E+02 -0.32604725301E+02 -0.80156580738E+02  0.90015137051E+02  0.00000000000E+00 0. -1.
</event>
<event>
 7    1  0.2690635E-009  0.1160953E+03  0.7561462E-02  0.1249681E+00
          1   -1    0    0  501    0  0.00000000000E+00  0.00000000000E+00  0.42231062160E+03  0.42231062160E+03  0.00000000000E+00 0. -1.
         -1   -1    0    0    0  501 -0.00000000000E+00 -0.00000000000E+00 -0.52900234457E+02  0.52900234457E+02  0.00000000000E+00 0.  1.
         25    2    1    2    0    0  0.32514380617E+02 -0.66767883475E+02  0.86505286703E+02  0.16925020023E+03  0.12508928986E+03 0.  0.
          5    1    3    3  502    0  0.25371004231E+02 -0.10097221821E+03  0.41585604302E+02  0.11218694929E+03  0.41800000000E+01 0.  1.
         -5    1    3    3    0  502  0.71433763858E+01  0.34204334732E+02  0.44919682401E+02  0.57063250938E+02  0.41800000000E+01 0.  1.
        -11    1    1    2    0    0 -0.26201193922E+02  0.46874290488E+00  0.15629144282E+02  0.30512168619E+02  0.00000000000E+00 0.  1.
         11    1    1    2    0    0 -0.63131866952E+01  0.66299140571E+02  0.26727595616E+03  0.27544848721E+03  0.00000000000E+00 0. -1.
</event>
<event>
 7    1  0.2690635E-009  0.9100889E+02  0.7561462E-02  0.1300427E+00
          1   -1    0    0  501    0  0.00000000000E+00  0.00000000000E+00  0.31579532116E+03  0.31579532116E+03  0.00000000000E+00 0. -1.
         -1   -1    0    0    0  501 -0.00000000000E+00 -0.00000000000E+00 -0.99736396166E+02  0.99736396166E+02  0.00000000000E+00 0.  1.
         25    2    1    2    0    0 -0.53659315006E+02 -0.47322484757E+02  0.25704410739E+03  0.29468312125E+03  0.12509088359E+03 0.  0.
          5    1    3    3  502    0 -0.22433771080E+02 -0.26558690812E+02  0.13300882559E+00  0.35016113918E+02  0.41800000000E+01 0. -1.
         -5    1    3    3    0  502 -0.31225543926E+02 -0.20763793945E+02  0.25691109856E+03  0.25966700733E+03  0.41800000000E+01 0. -1.
        -11    1    1    2    0    0  0.84237494293E+01  0.61337964895E+02 -0.64751060387E+01  0.62251365368E+02  0.00000000000E+00 0. -1.
         11    1    1    2    0    0  0.45235565577E+02 -0.14015480138E+02 -0.34510076356E+02  0.58597230708E+02  0.00000000000E+00 0.  1.
</event>
<event>
 7    1  0.2690635E-009  0.1420906E+03  0.7561462E-02  0.1210543E+00
         -2   -1    0    0    0  501 -0.00000000000E+00  0.00000000000E+00  0.44897699110E+02  0.44897699110E+02  0.00000000000E+00 0.  1.
          2   -1    0    0  501    0  0.00000000000E+00 -0.00000000000E+00 -0.52669020336E+03  0.52669020336E+03  0.00000000000E+00 0. -1.
         25    2    1    2    0    0  0.98972705752E+02  0.34242352928E+02 -0.31767764659E+03  0.35712159112E+03  0.12509439828E+03 0.  0.
          5    1    3    3  502    0  0.15537747837E+02  0.68780381539E+02 -0.11142587507E+03  0.13192937704E+03  0.41800000000E+01 0. -1.
         -5    1    3    3    0  502  0.83434957915E+02 -0.34538028611E+02 -0.20625177153E+03  0.22519221408E+03  0.41800000000E+01 0. -1.
        -11    1    1    2    0    0 -0.78065547718E+02  0.54799909958E+01 -0.14679545450E+03  0.16635253380E+03  0.00000000000E+00 0. -1.
         11    1    1    2    0    0 -0.20907158034E+02 -0.39722343924E+02 -0.17319403158E+02  0.48113777545E+02  0.00000000000E+00 0.  1.
</event>
<event>
 7    1  0.2690635E-009  0.1691151E+03  0.7561462E-02  0.1178774E+00
         -3   -1    0    0    0  501 -0.00000000000E+00  0.00000000000E+00  0.50348262669E+02  0.50348262669E+02  0.00000000000E+00 0.  1.
          3   -1    0    0  501    0  0.00000000000E+00 -0.00000000000E+00 -0.68708111339E+03  0.68708111339E+03  0.00000000000E+00 0. -1.
         25    2    1    2    0    0  0.14972854785E+03 -0.77344188086E+01 -0.37478209913E+03  0.42259483700E+03  0.12508523156E+03 0.  0.
          5    1    3    3  502    0  0.49929518868E+02  0.51606433310E+02 -0.91313531572E+02  0.11624032975E+03  0.41800000000E+01 0.  1.
         -5    1    3    3    0  502  0.99799028980E+02 -0.59340852118E+02 -0.28346856756E+03  0.30635450725E+03  0.41800000000E+01 0.  1.
        -11    1    1    2    0    0 -0.10720265074E+03  0.89451588677E+01 -0.98228598274E+02  0.14567526115E+03  0.00000000000E+00 0.  1.
         11    1    1    2    0    0 -0.42525897112E+02 -0.12107400592E+01 -0.16372215332E+03  0.16915927791E+03  0.00000000000E+00 0. -1.
</event>
<event>
 7    1  0.2690635E-009  0.1057373E+03  0.7561462E-02  0.1268674E+00
          1   -1    0    0  501    0  0.00000000000E+00  0.00000000000E+00  0.65659097323E+02  0.65659097323E+02  0.00000000000E+00 0. -1.
         -1   -1    0    0    0  501 -0.00000000000E+00 -0.00000000000E+00 -0.26356544367E+03  0.26356544367E+03  0.00000000000E+00 0.  1.
         25    2    1    2    0    0  0.61244676462E+02  0.38479233768E+02 -0.87826728661E+02  0.16909339917E+03  0.12508989388E+03 0.  0.
          5    1    3    3  502    0  0.61404061125E+02  0.28076975232E+01  0.12206653199E+02  0.62807775556E+02  0.41800000000E+01 0. -1.
         -5    1    3    3    0  502 -0.15938466236E+00  0.35671536245E+02 -0.10003338186E+03  0.10628562362E+03  0.41800000000E+01 0. -1.
        -11    1    1    2    0    0  0.17785092889E+02 -0.29451342499E+02 -0.19360628601E+02  0.39478159075E+02  0.00000000000E+00 0.  1.
         11    1    1    2    0    0 -0.79029769352E+02 -0.90278912685E+01 -0.90718989087E+02  0.12065298275E+03  0.00000000000E+00 0. -1.
</event>
<event>
 7    1  0.2690635E-009  0.1207821E+03  0.7561462E-02  0.1241812E+00
         -2   -1    0    0    0  501 -0.00000000000E+00  0.00000000000E+00  0.27027592219E+02  0.27027592219E+02  0.00000000000E+00 0.  1.
          2   -1    0    0  501    0  0.00000000000E+00 -0.00000000000E+00 -0.89067806016E+03  0.89067806016E+03  0.00000000000E+00 0. -1.
         25    2    1    2    0    0  0.29244763566E+02  0.90704586623E+02 -0.62248197677E+03  0.64203926323E+03  0.12509206969E+03 0.  0.
          5    1    3    3  502    0  0.37696745330E+02  0.30209058859E+02 -0.52288431286E+03  0.52512770722E+03  0.41800000000E+01 0. -1.
         -5    1    3    3    0  502 -0.84519817647E+01  0.60495527764E+02 -0.99597663904E+02  0.11691155602E+03  0.41800000000E+01 0. -1.
        -11    1    1    2    0    0 -0.61176782206E+02 -0.44349636301E+02 -0.15932386033E+03  0.17633372165E+03  0.00000000000E+00 0. -1.
         11    1    1    2    0    0  0.31932018640E+02 -0.46354950322E+02 -0.81844630841E+02  0.99332667493E+02  0.00000000000E+00 0.  1.
</event>
<event>
 7    1  0.2690635E-009  0.1557671E+03  0.7561462E-02  0.1193560E+00
          1   -1    0    0  501    0  0.00000000000E+00  0.00000000000E+00  0.42126392441E+03  0.42126392441E+03  0.00000000000E+00 0. -1.
         -1   -1    0    0    0  501 -0.00000000000E+00 -0.00000000000E+00 -0.69584291482E+02  0.69584291482E+02  0.00000000000E+00 0.  1.
         25    2    1    2    0    0 -0.11821290041E+03 -0.38297269083E+02  0.12392192331E+03  0.21551078103E+03  0.12508910033E+03 0.  0.
          5    1    3    3  502    0 -0.62902064085E+02  0.29997792914E+02  0.84267040551E+01  0.70320828970E+02  0.41800000000E+01 0. -1.
         -5    1    3    3    0  502 -0.55310836328E+02 -0.68295061997E+02  0.11549521926E+03  0.14518995206E+03  0.41800000000E+01 0. -1.
        -11    1    1    2    0    0  0.38219123372E+02  0.59739899401E+02  0.12059411519E+03  0.13990174263E+03  0.00000000000E+00 0. -1.
         11    1    1    2    0    0  0.79993777040E+02 -0.21442630318E+02  0.10716359442E+03  0.13543569223E+03  0.00000000000E+00 0.  1.
</event>
<event>
 7    1  0.2690635E-009  0.1060872E+03  0.7561462E-02  0.1267992E+00
         -2   -1    0    0    0  501 -0.00000000000E+00  0.00000000000E+00  0.22927807671E+03  0.22927807671E+03  0.00000000000E+00 0.  1.
          2   -1    0    0  501    0  0.00000000000E+00 -0.00000000000E+00 -0.52820413376E+02  0.52820413376E+02  0.00000000000E+00 0. -1.
         25    2    1    2    0    0 -0.27027187609E+01  0.13300274078E+02  0.80731843925E+02  0.14949842556E+03  0.12509175290E+03 0.  0.
          5    1    3    3  502    0 -0.46046666574E+02  0.50559810768E+02  0.43483513882E+02  0.81147263337E+02  0.41800000000E+01 0.  1.
         -5    1    3    3    0  502  0.43343947813E+02 -0.37259536690E+02  0.37248330042E+02  0.68351162224E+02  0.41800000000E+01 0.  1.
        -11    1    1    2    0    0  0.22535738116E+00  0.36494320926E+02  0.63485535031E+02  0.73227722920E+02  0.00000000000E+00 0.  1.
         11    1    1    2    0    0  0.24773613798E+01 -0.49794595004E+02  0.32240284378E+02  0.59372341606E+02  0.00000000000E+00 0. -1.
</event>
<event>
 7    1  0.2690635E-009  0.1207220E+03  0.7561462E-02  0.1241911E+00
          1   -1    0    0  501    0  0.00000000000E+00  0.00000000000E+00  0.11139024781E+03  0.11139024781E+03  0.00000000000E+00 0. -1.
         -1   -1    0    0    0  501 -0.00000000000E+00 -0.00000000000E+00 -0.16969170508E+03  0.16969170508E+03  0.00000000000E+00 0.  1.
         25    2    1    2    0    0  0.51107535845E+02 -0.66456835015E+02 -0.47723860128E+02  0.15796759754E+03  0.12509078266E+03 0.  0.
          5    1    3    3  502    0  0.63957422351E+02 -0.95252704820E+02 -0.21637568277E+02  0.11683016053E+03  0.41800000000E+01 0. -1.
         -5    1    3    3    0  502 -0.12849886506E+02  0.28795869806E+02 -0.26086291851E+02  0.41137437009E+02  0.41800000000E+01 0. -1.
        -11    1    1    2    0    0 -0.34299953123E+02  0.97175926772E+01 -0.42825292895E+02  0.55721845835E+02  0.00000000000E+00 0.  1.
         11    1    1    2    0    0 -0.16807582722E+02  0.56739242337E+02  0.32247695755E+02  0.67392509520E+02  0.00000000000E+00 0. -1.
</event>
<event>
 7    1  0.2690635E-009  0.1714051E+03  0.7561462E-02  0.1176390E+00
         -1   -1    0    0    0  501 -0.00000000000E+00  0.00000000000E+00  0.19430010665E+03  0.19430010665E+03  0.00000000000E+00 0.  1.
          1   -1    0    0  501    0  0.00000000000E+00 -0.00000000000E+00 -0.19290745829E+03  0.19290745829E+03  0.00000000000E+00 0. -1.
         25    2    1    2    0    0  0.13273189305E+03  0.84837497414E+02  0.28268130016E+02  0.20312508307E+03  0.12508219615E+03 0.  0.
          5    1    3    3  502    0  0.97779669184E+02  0.40840603892E+02 -0.41119224637E+02  0.11374129271E+03  0.41800000000E+01 0.  1.
         -5    1    3    3    0  502  0.34952223870E+02  0.43996893521E+02  0.69387354653E+02  0.89383790358E+02  0.41800000000E+01 0.  1.
        -11    1    1    2    0    0 -0.91227880852E+02 -0.61275075140E+01 -0.26141947402E+02  0.95097181909E+02  0.00000000000E+00 0. -1.
         11    1    1    2    0    0 -0.41504012202E+02 -0.78709989900E+02 -0.73353425493E+00  0.88985299973E+02  0.00000000000E+00 0.  1.
</event>
<event>
 7    1  0.2690635E-009  0.1148372E+03  0.7561462E-02  0.1251866E+00
         -2   -1    0    0    0  501 -0.00000000000E+00  0.00000000000E+00  0.28240555262E+03  0.28240555262E+03  0.00000000000E+00 0.  1.
          2   -1    0    0  501    0  0.00000000000E+00 -0.00000000000E+00 -0.76681666430E+02  0.76681666430E+02  0.00000000000E+00 0. -1.
         25    2    1    2    0    0 -0.31396744680E+02  0.88490633367E+02  0.72028861209E+02  0.17219936115E+03  0.12509242729E+03 0.  0.
          5    1    3    3  502    0 -0.36364955410E+02  0.96628589959E+02  0.40297787628E+01  0.10340795857E+03  0.41800000000E+01 0.  1.
         -5    1    3    3    0  502  0.49682107306E+01 -0.81379565924E+01  0.67999082446E+02  0.68791402579E+02  0.41800000000E+01 0.  1.
        -11    1    1    2    0    0  0.53057806221E+02 -0.59077261047E+02  0.45712452615E+02  0.91623588108E+02  0.00000000000E+00 0.  1.
         11    1    1    2    0    0 -0.21661061541E+02 -0.29413372320E+02  0.87982572370E+02  0.95264269793E+02  0.00000000000E+00 0. -1.
</event>
<event>
 7    1  0.2690635E-009  0.9771876E+02  0.7561462E-02  0.1285168E+00
          2   -1    0    0  501    0  0.00000000000E+00  0.00000000000E+00  0.11063957492E+04  0.11063957492E+04  0.00000000000E+00 0. -1.
         -2   -1    0    0    0  501 -0.00000000000E+00 -0.00000000000E+00 -0.10623013459E+02  0.10623013459E+02  0.00000000000E+00 0.  1.
         25    2    1    2    0    0 -0.73747989304E+01 -0.75656516104E+01  0.67254096526E+03  0.68415711691E+03  0.12509190195E+03 0.  0.
          5    1    3    3  502    0  0.40333231983E+02 -0.31268567245E+02  0.14233721346E+03  0.15126747052E+03  0.41800000000E+01 0.  1.
         -5    1    3    3    0  502 -0.47708030913E+02  0.23702915634E+02  0.53020375179E+03  0.53288964640E+03  0.41800000000E+01 0.  1.
        -11    1    1    2    0    0 -0.27415140200E+02 -0.29287398253E+02  0.18681433668E+03  0.19107312212E+03  0.00000000000E+00 0.  1.
         11    1    1    2    0    0  0.34789939130E+02  0.36853049863E+02  0.23641743381E+03  0.24178852363E+03  0.00000000000E+00 0. -1.
</event>
<event>
 7    1  0.2690635E-009  0.1161665E+03  0.7561462E-02  0.1249559E+00
          2   -1    0    0  501    0  0.00000000000E+00  0.00000000000E+00  0.27919844571E+03  0.27919844571E+03  0.00000000000E+00 0. -1.
         -2   -1    0    0    0  501 -0.00000000000E+00 -0.00000000000E+00 -0.52714481276E+02  0.52714481276E+02  0.00000000000E+00 0.  1.
         25    2    1    2    0    0 -0.34928552594E+02 -0.42351067244E+02  0.13787626938E+03  0.19409091678E+03  0.12509117329E+03 0.  0.
          5    1    3    3  502    0  0.33968264886E+02 -0.55615776297E+02  0.78257399012E+02  0.10192472954E+03  0.41800000000E+01 0.  1.
         -5    1    3    3    0  502 -0.68896817481E+02  0.13264709053E+02  0.59618870364E+02  0.92166187231E+02  0.41800000000E+01 0.  1.
        -11    1    1    2    0    0 -0.14139596107E+02  0.45429582759E+02  0.16123060822E+02  0.50236722206E+02  0.00000000000E+00 0.  1.
         11    1    1    2    0    0  0.49068148701E+02 -0.30785155142E+01  0.72484634236E+02  0.87585288006E+02  0.00000000000E+00 0. -1.
</event>
<event>
 7    1  0.2690635E-009  0.9823762E+02  0.7561462E-02  0.1284046E+00
         -2   -1    0    0    0  501 -0.00000000000E+00  0.00000000000E+00  0.29727806393E+02  0.29727806393E+02  0.00000000000E+00 0.  1.
          2   -1    0    0  501    0  0.00000000000E+00 -0.00000000000E+00 -0.77671855901E+03  0.77671855901E+03  0.00000000000E+00 0. -1.
         25    2    1    2    0    0  0.12647015987E+01 -0.14141640412E+02 -0.66754468634E+03  0.67931182339E+03  0.12508820756E+03 0.  0.
          5    1    3    3  502    0  0.46784266305E+02 -0.20892893778E+02 -0.55876847597E+03  0.56112829436E+03  0.41800000000E+01 0. -1.
         -5    1    3    3    0  502 -0.45519564706E+02  0.67512533658E+01 -0.10877621037E+03  0.11818352903E+03  0.41800000000E+01 0. -1.
        -11    1    1    2    0    0  0.39860423893E+02  0.34731570040E+02 -0.36818234138E+02  0.64426063945E+02  0.00000000000E+00 0. -1.
         11    1    1    2    0    0 -0.41125125492E+02 -0.20589929628E+02 -0.42627832137E+02  0.62708478067E+02  0.00000000000E+00 0.  1.
</event>
<event>
 7    1  0.2690635E-009  0.1299821E+03  0.7561462E-02  0.1227482E+00
          2   -1    0    0  501    0  0.00000000000E+00  0.00000000000E+00  0.50254528142E+02  0.50254528142E+02  0.00000000000E+00 0. -1.
         -2   -1    0    0    0  501 -0.00000000000E+00 -0.00000000000E+00 -0.37651402071E+03  0.37651402071E+03  0.00000000000E+00 0.  1.
         25    2    1    2    0    0 -0.83405827377E+02 -0.81922365052E+01 -0.19217414907E+03  0.24413737707E+03  0.12509400677E+03 0.  0.
          5    1    3    3  502    0 -0.38994669393E+02  0.49642966436E+02 -0.14219860896E+03  0.15563715864E+03  0.41800000000E+01 0. -1.
         -5    1    3    3    0  502 -0.44411157984E+02 -0.57835202942E+02 -0.49975540108E+02  0.88500218428E+02  0.41800000000E+01 0. -1.
        -11    1    1    2    0    0 -0.12446578670E+02  0.23500125038E+02 -0.34579809227E+02  0.43622659290E+02  0.00000000000E+00 0.  1.
         11    1    1    2    0    0  0.95852406047E+02 -0.15307888532E+02 -0.99505534267E+02  0.13900851250E+03  0.00000000000E+00 0. -1.
</event>
<event>
 7    1  0.2690635E-009  0.1098405E+03  0.7561462E-02  0.1260865E+00
          1   -1    0    0  501    0  0.00000000000E+00  0.00000000000E+00  0.58564505541E+03  0.58564505541E+03  0.00000000000E+00 0.  1.
         -1   -1    0    0    0  501 -0.00000000000E+00 -0.00000000000E+00 -0.26607970891E+02  0.26607970891E+02  0.00000000000E+00 0. -1.
         25    2    1    2    0    0  0.60974973313E+02 -0.13732715074E+02  0.27438983641E+03  0.30796525624E+03  0.12508509861E+03 0.  0.
          5    1    3    3  502    0 -0.24687234675E+02  0.26887483435E+02  0.36247723592E+02  0.51611686535E+02  0.41800000000E+01 0. -1.
         -5    1    3    3    0  502  0.85662207988E+02 -0.40620198509E+02  0.23814211282E+03  0.25635356971E+03  0.41800000000E+01 0. -1.
        -11    1    1    2    0    0  0.10320831727E+02  0.13186657270E+02  0.79211498322E+01  0.18524365364E+02  0.00000000000E+00 0.  1.
         11    1    1    2    0    0 -0.71295805039E+02  0.54605780422E+00  0.27672609827E+03  0.28576340469E+03  0.00000000000E+00 0. -1.
</event>
<event>
 7    1  0.2690635E-009  0.7540973E+02  0.7561462E-02  0.1342607E+00
         -2   -1    0    0    0  501 -0.00000000000E+00  0.00000000000E+00  0.88301079732E+02  0.88301079732E+02  0.00000000000E+00 0.  1.
          2   -1    0    0  501    0  0.00000000000E+00 -0.00000000000E+00 -0.17427591085E+03  0.17427591085E+03  0.00000000000E+00 0. -1.
         25    2    1    2    0    0 -0.37586426426E+02 -0.21346134675E+02 -0.87016525729E+02  0.15839041782E+03  0.12508897549E+03 0.  0.
          5    1    3    3  502    0 -0.36379586216E+02  0.85504983293E+01 -0.11265561407E+03  0.11876592565E+03  0.41800000000E+01 0. -1.
         -5    1    3    3    0  502 -0.12068402095E+01 -0.29896633004E+02  0.25639088342E+02  0.39624492164E+02  0.41800000000E+01 0. -1.
        -11    1    1    2    0    0 -0.19387229613E+02 -0.53123319192E+01 -0.28352347964E+02  0.34755448171E+02  0.00000000000E+00 0. -1.
         11    1    1    2    0    0  0.56973656039E+02  0.26658466594E+02  0.29394042573E+02  0.69431124594E+02  0.00000000000E+00 0.  1.
</event>
<event>
 7    1  0.2690635E-009  0.1561083E+03  0.7561462E-02  0.1193162E+00
          2   -1    0    0  501    0  0.00000000000E+00  0.00000000000E+00  0.61773126825E+03  0.61773126825E+03  0.00000000000E+00 0.  1.
         -2   -1    0    0    0  501 -0.00000000000E+00 -0.00000000000E+00 -0.92396509833E+02  0.92396509833E+02  0.00000000000E+00 0. -1.
         25    2    1    2    0    0 -0.10547997770E+03  0.49977572539E+02  0.53498663307E+03  0.56167703567E+03  0.12508641565E+03 0.  0.
          5    1    3    3  502    0 -0.10227079063E+03 -0.15515333783E+02  0.28575167859E+03  0.30392685701E+03  0.41800000000E+01 0.  1.
         -5    1    3    3    0  502 -0.32091870731E+01  0.65492906321E+02  0.24923495448E+03  0.25775017865E+03  0.41800000000E+01 0.  1.
        -11    1    1    2    0    0  0.38575296620E+02 -0.63907350713E+02 -0.24408113124E+02  0.78536354453E+02  0.00000000000E+00 0. -1.
         11    1    1    2    0    0  0.66904681083E+02  0.13929778175E+02  0.14756238474E+02  0.69914387967E+02  0.00000000000E+00 0.  1.
</event>
<event>
 7    1  0.2690635E-009  0.1438512E+03  0.7561462E-02  0.1208239E+00
          1   -1    0    0  501    0  0.00000000000E+00  0.00000000000E+00  0.33384609563E+02  0.33384609563E+02  0.00000000000E+00 0. -1.
         -1   -1    0    0    0  501 -0.00000000000E+00 -0.00000000000E+00 -0.82264708921E+03  0.82264708921E+03  0.00000000000E+00 0.  1.
         25    2    1    2    0    0  0.88714568357E+02  0.71310247724E+02 -0.44479168631E+03  0.47586052009E+03  0.12509262287E+03 0.  0.
          5    1    3    3  502    0 -0.14925656249E+02  0.81280274325E+01 -0.30989459833E+01  0.17774023479E+02  0.41800000000E+01 0.  1.
         -5    1    3    3    0  502  0.10364022461E+03  0.63182220291E+02 -0.44169274033E+03  0.45808649661E+03  0.41800000000E+01 0.  1.
        -11    1    1    2    0    0  0.13209315073E+02 -0.39998005244E+02 -0.17460123692E+03  0.17961046284E+03  0.00000000000E+00 0.  1.
         11    1    1    2    0    0 -0.10192388343E+03 -0.31312242480E+02 -0.16986955641E+03  0.20056071584E+03  0.00000000000E+00 0. -1.
</event>
<event>
 7    1  0.2690635E-009  0.1193569E+03  0.7561462E-02  0.1244162E+00
         -1   -1    0    0    0  501 -0.00000000000E+00  0.00000000000E+00  0.55527002277E+03  0.55527002277E+03  0.00000000000E+00 0.  1.
          1   -1    0    0  501    0  0.00000000000E+00 -0.00000000000E+00 -0.37840521699E+02  0.37840521699E+02  0.00000000000E+00 0. -1.
         25    2    1    2    0    0  0.56094405548E+02  0.77351426280E+00  0.13494711031E+03  0.19236866513E+03  0.12509116709E+03 0.  0.
          5    1    3    3  502    0  0.21593656917E+02  0.61526130491E+02  0.80589857510E+02  0.10374944957E+03  0.41800000000E+01 0. -1.
         -5    1    3    3    0  502  0.34500748631E+02 -0.60752616228E+02  0.54357252799E+02  0.88619215560E+02  0.41800000000E+01 0. -1.
        -11    1    1    2    0    0 -0.69133215081E+02  0.25794818467E+02  0.34592068781E+03  0.35370311893E+03  0.00000000000E+00 0. -1.
         11    1    1    2    0    0  0.13038809532E+02 -0.26568332729E+02  0.36561702950E+02  0.47038760407E+02  0.00000000000E+00 0.  1.
</event>
<event>
 7    1  0.2690635E-009  0.1074207E+03  0.7561462E-02  0.1265422E+00
         -1   -1    0    0    0  501 -0.00000000000E+00  0.00000000000E+00  0.38230308592E+03  0.38230308592E+03  0.00000000000E+00 0.  1.
          1   -1    0    0  501    0  0.00000000000E+00 -0.00000000000E+00 -0.67784835493E+02  0.67784835493E+02  0.00000000000E+00 0. -1.
         25    2    1    2    0    0 -0.56568209799E+02  0.69873988647E+02  0.27804055853E+03  0.31786459432E+03  0.12509600906E+03 0.  0.
          5    1    3    3  502    0 -0.14503825777E+02  0.36664595524E+01  0.21912320850E+03  0.21967306797E+03  0.41800000000E+01 0. -1.
         -5    1    3    3    0  502 -0.42064384022E+02  0.66207529094E+02  0.58917350028E+02  0.98191526347E+02  0.41800000000E+01 0. -1.
        -11    1    1    2    0    0  0.75371968873E+02 -0.68590086796E+02  0.45165860614E+02  0.11146967598E+03  0.00000000000E+00 0.  1.
         11    1    1    2    0    0 -0.18803759074E+02 -0.12839018510E+01 -0.86881687111E+01  0.20753651120E+02  0.00000000000E+00 0. -1.
</event>
<event>
 7    1  0.2690635E-009  0.1007362E+03  0.7561462E-02  0.1278755E+00
          1   -1    0    0  501    0  0.00000000000E+00  0.00000000000E+00  0.48254692637E+02  0.48254692637E+02  0.00000000000E+00 0. -1.
         -1   -1    0    0    0  501 -0.00000000000E+00 -0.00000000000E+00 -0.28217753885E+03  0.28217753885E+03  0.00000000000E+00 0.  1.
         25    2    1    2    0    0  0.35679142717E+01  0.32289165305E+02 -0.17290974005E+03  0.21587221540E+03  0.12509082688E+03 0.  0.
          5    1    3    3  502    0  0.31887466155E+02 -0.35165202110E+02 -0.10773768926E+03  0.11780612898E+03  0.41800000000E+01 0. -1.
         -5    1    3    3    0  502 -0.28319551883E+02  0.67454367415E+02 -0.65172050789E+02  0.98066086423E+02  0.41800000000E+01 0. -1.
        -11    1    1    2    0    0  0.10814614723E+02  0.21927616386E+02 -0.52383067548E+02  0.57807975382E+02  0.00000000000E+00 0.  1.
         11    1    1    2    0    0 -0.14382528995E+02 -0.54216781691E+02 -0.86300386103E+01  0.56752040700E+02  0.00000000000E+00 0. -1.
</event>
<event>
 7    1  0.2690635E-009  0.1110378E+03  0.7561462E-02  0.1258660E+00
         -1   -1    0    0    0  501 -0.00000000000E+00  0.00000000000E+00  0.17983910521E+03  0.17983910521E+03  0.00000000000E+00 0.  1.
          1   -1    0    0  501    0  0.00000000000E+00 -0.00000000000E+00 -0.12306540808E+03  0.12306540808E+03  0.00000000000E+00 0. -1.
         25    2    1    2    0    0  0.43303734400E+01  0.56637681201E+02  0.11764842007E+03  0.18087084433E+03  0.12508610042E+03 0.  0.
          5    1    3    3  502    0  0.10265142468E+02  0.90220781477E+02  0.47046488126E+02  0.10235236688E+03  0.41800000000E+01 0.  1.
         -5    1    3    3    0  502 -0.59347690282E+01 -0.33583100275E+02  0.70601931946E+02  0.78518477456E+02  0.41800000000E+01 0.  1.
        -11    1    1    2    0    0  0.28924911368E+02 -0.56599880474E+02 -0.61953954228E+02  0.88760855177E+02  0.00000000000E+00 0. -1.
         11    1    1    2    0    0 -0.33255284808E+02 -0.37800727651E-01  0.10792312873E+01  0.33272813778E+02  0.00000000000E+00 0.  1.
</event>
<event>
 7    1  0.2690635E-009  0.1025116E+03  0.7561462E-02  0.1275101E+00
         -2   -1    0    0    0  501 -0.00000000000E+00  0.00000000000E+00  0.36355569771E+02  0.36355569771E+02  0.00000000000E+00 0.  1.
          2   -1    0    0  501    0  0.00000000000E+00 -0.00000000000E+00 -0.33591710427E+03  0.33591710427E+03  0.00000000000E+00 0. -1.
         25    2    1    2    0    0  0.19841676553E+02 -0.68807966459E+01 -0.16152548026E+03  0.20537443270E+03  0.12508852601E+03 0.  0.
          5    1    3    3  502    0  0.16300300355E+01  0.55523826873E+02 -0.10614120779E+03  0.11987068341E+03  0.41800000000E+01 0. -1.
         -5    1    3    3    0  502  0.18211646518E+02 -0.62404623519E+02 -0.55384272470E+02  0.85503749289E+02  0.41800000000E+01 0. -1.
        -11    1    1    2    0    0 -0.40290961252E+02  0.32238140593E+02 -0.11765262756E+03  0.12847100856E+03  0.00000000000E+00 0.  1.
         11    1    1    2    0    0  0.20449284698E+02 -0.25357343947E+02 -0.20383426672E+02  0.38427232786E+02  0.00000000000E+00 0. -1.
</event>
<event>
 7    1  0.2690635E-009  0.1287217E+03  0.7561462E-02  0.1229365E+00
         -1   -1    0    0    0  501 -0.00000000000E+00  0.00000000000E+00  0.35588057133E+03  0.35588057133E+03  0.00000000000E+00 0.  1.
          1   -1    0    0  501    0  0.00000000000E+00 -0.00000000000E+00 -0.63752373016E+02  0.63752373016E+02  0.00000000000E+00 0. -1.
         25    2    1    2    0    0  0.19420221769E+02 -0.93453456720E+02  0.97284317045E+02  0.18498990806E+03  0.12508530752E+03 0.  0.
          5    1    3    3  502    0 -0.38537981800E+02 -0.40056854078E+02 -0.48116719943E+01  0.55949550375E+02  0.41800000000E+01 0. -1.
         -5    1    3    3    0  502  0.57958203569E+02 -0.53396602642E+02  0.10209598904E+03  0.12904035769E+03  0.41800000000E+01 0. -1.
        -11    1    1    2    0    0 -0.43035350347E+02  0.88851737272E+02  0.11658949172E+03  0.15277363049E+03  0.00000000000E+00 0. -1.
         11    1    1    2    0    0  0.23615128578E+02  0.46017194476E+01  0.78254389551E+02  0.81869405785E+02  0.00000000000E+00 0.  1.
</event>
<event>
 7    1  0.2690635E-009  0.1461781E+03  0.7561462E-02  0.1205250E+00
          1   -1    0    0  501    0  0.00000000000E+00  0.00000000000E+00  0.74234728750E+03  0.74234728750E+03  0.00000000000E+00 0. -1.
         -1   -1    0    0    0  501 -0.00000000000E+00 -0.00000000000E+00 -0.30821428080E+02  0.30821428080E+02  0.00000000000E+00 0.  1.
         25    2    1    2    0    0 -0.71977777758E+02 -0.78703127447E+02  0.34521493125E+03  0.38235575529E+03  0.12509033568E+03 0.  0.
          5    1    3    3  502    0  0.12655926742E+02  0.23897470064E+02  0.32365846064E+02  0.42382566565E+02  0.41800000000E+01 0.  1.
         -5    1    3    3    0  502 -0.84633704500E+02 -0.10260059751E+03  0.31284908519E+03  0.33997318872E+03  0.41800000000E+01 0.  1.
        -11    1    1    2    0    0  0.48616815365E+02  0.92711701231E+02  0.24406064030E+03  0.26556477632E+03  0.00000000000E+00 0.  1.
         11    1    1    2    0    0  0.23360962393E+02 -0.14008573784E+02  0.12225028787E+03  0.12524818397E+03  0.00000000000E+00 0. -1.
</event>
<event>
 7    1  0.2690635E-009  0.1577301E+03  0.7561462E-02  0.1191284E+00
         -2   -1    0    0    0  501 -0.00000000000E+00  0.00000000000E+00  0.12635611583E+03  0.12635611583E+03  0.00000000000E+00 0.  1.
          2   -1    0    0  501    0  0.00000000000E+00 -0.00000000000E+00 -0.23351274735E+03  0.23351274735E+03  0.00000000000E+00 0. -1.
         25    2    1    2    0    0  0.75843593930E+02 -0.10117345338E+03 -0.97172695485E+02  0.20268093223E+03  0.12509480058E+03 0.  0.
          5    1    3    3  502    0  0.10233322879E+02 -0.10940747819E+03 -0.47079433988E+02  0.11961882246E+03  0.41800000000E+01 0. -1.
         -5    1    3    3    0  502  0.65610271051E+02  0.82340248117E+01 -0.50093261497E+02  0.83062109769E+02  0.41800000000E+01 0. -1.
        -11    1    1    2    0    0  0.51655006743E+01  0.32881262013E+02 -0.35021884923E+02  0.48315548350E+02  0.00000000000E+00 0. -1.
         11    1    1    2    0    0 -0.81009094605E+02  0.68292191368E+02  0.25037948888E+02  0.10887238261E+03  0.00000000000E+00 0.  1.
</event>
<event>
 7    1  0.2690635E-009  0.2382689E+03  0.7561462E-02  0.1120951E+00
          1   -1    0    0  501    0  0.00000000000E+00  0.00000000000E+00  0.33495126625E+03  0.33495126625E+03  0.00000000000E+00 0.  1.
         -1   -1    0    0    0  501 -0.00000000000E+00 -0.00000000000E+00 -0.23588081292E+03  0.23588081292E+03  0.00000000000E+00 0. -1.
         25    2    1    2    0    0 -0.12959198057E+03 -0.19390734473E+03 -0.64401149665E+02  0.27237884252E+03  0.12509430844E+03 0.  0.
          5    1    3    3  502    0 -0.11973256566E+03 -0.15481983326E+03 -0.98745353870E+02  0.21925598136E+03  0.41800000000E+01 0.  1.
         -5    1    3    3    0  502 -0.98594149050E+01 -0.39087511465E+02  0.34344204205E+02  0.53122861155E+02  0.41800000000E+01 0.  1.
        -11    1    1    2    0    0  0.11988281163E+03  0.13499918596E+03  0.15538712778E+03  0.23820543280E+03  0.00000000000E+00 0.  1.
         11    1    1    2    0    0  0.97091689351E+01  0.58908158766E+02  0.80844752101E+01  0.60247803861E+02  0.00000000000E+00 0. -1.
</event>
<event>
 7    1  0.2690635E-009  0.3429692E+03  0.7561462E-02  0.1065538E+00
         -2   -1    0    0    0  501 -0.00000000000E+00  0.00000000000E+00  0.58468270978E+02  0.58468270978E+02  0.00000000000E+00 0. -1.
          2   -1    0    0  501    0  0.00000000000E+00 -0.00000000000E+00 -0.25216004006E+04  0.25216004006E+04  0.00000000000E+00 0.  1.
         25    2    1    2    0    0 -0.31418884330E+02  0.32843577411E+03 -0.69861681005E+03  0.78266870633E+03  0.12509057747E+03 0.  0.
          5    1    3    3  502    0  0.44758695218E+02  0.16309713414E+03 -0.37357279413E+03  0.41009525830E+03  0.41800000000E+01 0.  1.
         -5    1    3    3    0  502 -0.76177579548E+02  0.16533863997E+03 -0.32504401592E+03  0.37257344803E+03  0.41800000000E+01 0.  1.
        -11    1    1    2    0    0 -0.49061972071E+01 -0.22474336544E+03 -0.13491105035E+04  0.13677107888E+04  0.00000000000E+00 0.  1.
         11    1    1    2    0    0  0.36325081537E+02 -0.10369240867E+03 -0.41540481609E+03  0.42968917649E+03  0.00000000000E+00 0. -1.
</event>
<event>
 7    1  0.2690635E-009  0.1080986E+03  0.7561462E-02  0.1264132E+00
         -3   -1    0    0    0  501 -0.00000000000E+00  0.00000000000E+00  0.58149854540E+03  0.58149854540E+03  0.00000000000E+00 0.  1.
          3   -1    0    0  501    0  0.00000000000E+00 -0.00000000000E+00 -0.30125238577E+02  0.30125238577E+02  0.00000000000E+00 0. -1.
         25    2    1    2    0    0  0.15409095308E+02  0.40808721768E+01  0.47971623382E+03  0.49601167108E+03  0.12508324875E+03 0.  0.
          5    1    3    3  502    0 -0.27949329384E+02 -0.49509838856E+02  0.22199925794E+03  0.22920194607E+03  0.41800000000E+01 0.  1.
         -5    1    3    3    0  502  0.43358424691E+02  0.53590711033E+02  0.25771697588E+03  0.26680972500E+03  0.41800000000E+01 0.  1.
        -11    1    1    2    0    0  0.14890834111E+02 -0.40267042768E+02  0.40776293066E+02  0.59210453047E+02  0.00000000000E+00 0.  1.
         11    1    1    2    0    0 -0.30299929419E+02  0.36186170591E+02  0.30880779938E+02  0.56401659855E+02  0.00000000000E+00 0. -1.
</event>
<event>
 7    1  0.2690635E-009  0.1079768E+03  0.7561462E-02  0.1264363E+00
         -2   -1    0    0    0  501 -0.00000000000E+00  0.00000000000E+00  0.11219206941E+02  0.11219206941E+02  0.00000000000E+00 0.  1.
          2   -1    0    0  501    0  0.00000000000E+00 -0.00000000000E+00 -0.11062534571E+04  0.11062534571E+04  0.00000000000E+00 0. -1.
         25    2    1    2    0    0 -0.78428719593E+01 -0.20397612460E+02 -0.70982936908E+03  0.72109769985E+03  0.12508631534E+03 0.  0.
          5    1    3    3  502    0 -0.34607650238E+02  0.44076518326E+02 -0.27532290020E+03  0.28099928950E+03  0.41800000000E+01 0. -1.
         -5    1    3    3    0  502  0.26764778279E+02 -0.64474130786E+02 -0.43450646888E+03  0.44009841035E+03  0.41800000000E+01 0. -1.
        -11    1    1    2    0    0 -0.33767584693E+02  0.32109862677E+02 -0.25381369922E+03  0.25805558891E+03  0.00000000000E+00 0. -1.
         11    1    1    2    0    0  0.41610456652E+02 -0.11712250217E+02 -0.13139118188E+03  0.13831937530E+03  0.00000000000E+00 0.  1.
</event>
<event>
 7    1  0.2690635E-009  0.1517583E+03  0.7561462E-02  0.1198329E+00
         -2   -1    0    0    0  501 -0.00000000000E+00  0.00000000000E+00  0.10247351458E+03  0.10247351458E+03  0.00000000000E+00 0.  1.
          2   -1    0    0  501    0  0.00000000000E+00 -0.00000000000E+00 -0.45463715529E+03  0.45463715529E+03  0.00000000000E+00 0. -1.
         25    2    1    2    0    0  0.30252566524E+02  0.10309343181E+03 -0.37339452188E+03  0.40818419381E+03  0.12508954251E+03 0.  0.
          5    1    3    3  502    0  0.87819143848E+01 -0.26494186223E+02 -0.11343587562E+03  0.11689411534E+03  0.41800000000E+01 0.  1.
         -5    1    3    3    0  502  0.21470652139E+02  0.12958761804E+03 -0.25995864626E+03  0.29129007847E+03  0.41800000000E+01 0.  1.
        -11    1    1    2    0    0 -0.52132950300E+02 -0.16686049225E+02  0.23954532868E+02  0.59750216658E+02  0.00000000000E+00 0.  1.
         11    1    1    2    0    0  0.21880383776E+02 -0.86407382590E+02 -0.27236517006E+01  0.89176259390E+02  0.00000000000E+00 0. -1.
</event>
<event>
 7    1  0.2690635E-009  0.1396457E+03  0.7561462E-02  0.1213807E+00
         -2   -1    0    0    0  501 -0.00000000000E+00  0.00000000000E+00  0.34928769479E+02  0.34928769479E+02  0.00000000000E+00 0. -1.
          2   -1    0    0  501    0  0.00000000000E+00 -0.00000000000E+00 -0.71511699818E+03  0.71511699818E+03  0.00000000000E+00 0.  1.
         25    2    1    2    0    0  0.10525678703E+03 -0.33615882895E+02 -0.44312824595E+03  0.47351761636E+03  0.12508905562E+03 0.  0.
          5    1    3    3  502    0  0.61915120287E+02  0.42165364912E+02 -0.25989216164E+03  0.27050472861E+03  0.41800000000E+01 0.  1.
         -5    1    3    3    0  502  0.43341666746E+02 -0.75781247808E+02 -0.18323608431E+03  0.20301288774E+03  0.41800000000E+01 0.  1.
        -11    1    1    2    0    0 -0.62214840805E+02  0.39091289719E+02 -0.61902597883E+02  0.96076776450E+02  0.00000000000E+00 0. -1.
         11    1    1    2    0    0 -0.43041946228E+02 -0.54754068237E+01 -0.17515738486E+03  0.18045137485E+03  0.00000000000E+00 0.  1.
</event>
<event>
 7    1  0.2690635E-009  0.6404314E+02  0.7561462E-02  0.1381607E+00
          4   -1    0    0  501    0  0.00000000000E+00  0.00000000000E+00  0.27092305401E+03  0.27092305401E+03  0.00000000000E+00 0. -1.
         -4   -1    0    0    0  501 -0.00000000000E+00 -0.00000000000E+00 -0.58556006946E+02  0.58556006946E+02  0.00000000000E+00 0.  1.
         25    2    1    2    0    0 -0.38005067389E+02  0.39660758074E+02  0.16052832507E+03  0.21079904756E+03  0.12509809921E+03 0.  0.
          5    1    3    3  502    0 -0.27039660572E+01  0.71140237576E+01 -0.21135968841E+02  0.22849996615E+02  0.41800000000E+01 0. -1.
         -5    1    3    3    0  502 -0.35301101332E+02  0.32546734317E+02  0.18166429391E+03  0.18794905095E+03  0.41800000000E+01 0. -1.
        -11    1    1    2    0    0  0.30193409181E+02  0.59562053107E+00  0.68154959114E+02  0.74545926607E+02  0.00000000000E+00 0. -1.
         11    1    1    2    0    0  0.78116582083E+01 -0.40256378605E+02 -0.16316237123E+02  0.44134086784E+02  0.00000000000E+00 0.  1.
</event>
<event>
 7    1  0.2690635E-009  0.8903622E+02  0.7561462E-02  0.1305203E+00
          2   -1    0    0  501    0  0.00000000000E+00  0.00000000000E+00  0.24369675189E+03  0.24369675189E+03  0.00000000000E+00 0. -1.
         -2   -1    0    0    0  501 -0.00000000000E+00 -0.00000000000E+00 -0.77587763762E+02  0.77587763762E+02  0.00000000000E+00 0.  1.
         25    2    1    2    0    0 -0.13634144422E+02  0.18279084040E+01  0.18921380107E+03  0.22724269130E+03  0.12509255410E+03 0.  0.
          5    1    3    3  502    0 -0.50320003759E+02  0.96193673532E+00  0.20451701015E+02  0.54486443956E+02  0.41800000000E+01 0. -1.
         -5    1    3    3    0  502  0.36685859337E+02  0.86597166868E+00  0.16876210006E+03  0.17275624735E+03  0.41800000000E+01 0. -1.
        -11    1    1    2    0    0  0.52125922994E+02 -0.11911095013E+01 -0.82993579058E+01  0.52795927224E+02  0.00000000000E+00 0. -1.
         11    1    1    2    0    0 -0.38491778572E+02 -0.63679890271E+00 -0.14805455039E+02  0.41245897122E+02  0.00000000000E+00 0.  1.
</event>
<event>
 7    1  0.2690635E-009  0.7413056E+02  0.7561462E-02  0.1346585E+00
          3   -1    0    0  501    0  0.00000000000E+00  0.00000000000E+00  0.26509865530E+03  0.26509865530E+03  0.00000000000E+00 0. -1.
         -3   -1    0    0    0  501 -0.00000000000E+00 -0.00000000000E+00 -0.48644302932E+02  0.48644302932E+02  0.00000000000E+00 0.  1.
         25    2    1    2    0    0 -0.22732842520E+02 -0.15120177292E+01  0.17003681107E+03  0.21231699715E+03  0.12508765659E+03 0.  0.
          5    1    3    3  502    0  0.17990218818E+02  0.39548056382E+02  0.13972303981E+02  0.45830060171E+02  0.41800000000E+01 0.  1.
         -5    1    3    3    0  502 -0.40723061338E+02 -0.41060074111E+02  0.15606450709E+03  0.16648693698E+03  0.41800000000E+01 0.  1.
        -11    1    1    2    0    0  0.57741273521E+01  0.20427279262E+02 -0.20707178752E+02  0.29654705134E+02  0.00000000000E+00 0.  1.
         11    1    1    2    0    0  0.16958715168E+02 -0.18915261533E+02  0.67124720056E+02  0.71771255956E+02  0.00000000000E+00 0. -1.
</event>
<event>
 7    1  0.2690635E-009  0.7888537E+02  0.7561462E-02  0.1332245E+00
         -4   -1    0    0    0  501 -0.00000000000E+00  0.00000000000E+00  0.54704009601E+02  0.54704009601E+02  0.00000000000E+00 0.  1.
          4   -1    0    0  501    0  0.00000000000E+00 -0.00000000000E+00 -0.24698721626E+03  0.24698721626E+03  0.00000000000E+00 0. -1.
         25    2    1    2    0    0  0.33150133321E+02 -0.41701761952E+01 -0.76310732262E+02  0.15028950187E+03  0.12508910747E+03 0.  0.
          5    1    3    3  502    0  0.30198036990E+02 -0.29614219872E+02 -0.10399336394E+03  0.11234329353E+03  0.41800000000E+01 0. -1.
         -5    1    3    3    0  502  0.29520963314E+01  0.25444043676E+02  0.27682631679E+02  0.37946208348E+02  0.41800000000E+01 0. -1.
        -11    1    1    2    0    0 -0.33455295877E+02 -0.35999349344E+02 -0.32941303904E+02  0.59163666877E+02  0.00000000000E+00 0.  1.
         11    1    1    2    0    0  0.30516255576E+00  0.40169525539E+02 -0.83031170495E+02  0.92238057113E+02  0.00000000000E+00 0. -1.
</event>
<event>
 7    1  0.2690635E-009  0.9456578E+02  0.7561462E-02  0.1292157E+00
         -2   -1    0    0    0  501 -0.00000000000E+00  0.00000000000E+00  0.97991944422E+02  0.97991944422E+02  0.00000000000E+00 0.  1.
          2   -1    0    0  501    0  0.00000000000E+00 -0.00000000000E+00 -0.14222557704E+03  0.14222557704E+03  0.00000000000E+00 0. -1.
         25    2    1    2    0    0  0.32691203614E+02  0.24693780405E+02 -0.48745315443E+02  0.14036373624E+03  0.12508946834E+03 0.  0.
          5    1    3    3  502    0 -0.43418744640E+02 -0.14019726145E+02 -0.21695129275E+02  0.50694093754E+02  0.41800000000E+01 0.  1.
         -5    1    3    3    0  502  0.76109948254E+02  0.38713506549E+02 -0.27050186169E+02  0.89669642490E+02  0.41800000000E+01 0.  1.
        -11    1    1    2    0    0 -0.13571420983E+02 -0.33962838829E+02  0.42657065582E+02  0.56189706645E+02  0.00000000000E+00 0.  1.
         11    1    1    2    0    0 -0.19119782631E+02  0.92690584249E+01 -0.38145382756E+02  0.43664078572E+02  0.00000000000E+00 0. -1.
</event>
<event>
 7    1  0.2690635E-009  0.1789347E+03  0.7561462E-02  0.1168838E+00
          1   -1    0    0  501    0  0.00000000000E+00  0.00000000000E+00  0.68853763329E+02  0.68853763329E+02  0.00000000000E+00 0. -1.
         -1   -1    0    0    0  501 -0.00000000000E+00 -0.00000000000E+00 -0.64606286801E+03  0.64606286801E+03  0.00000000000E+00 0.  1.
         25    2    1    2    0    0  0.93254234796E+02  0.15040334814E+03 -0.23399027222E+03  0.31893094502E+03  0.12509188925E+03 0.  0.
          5    1    3    3  502    0  0.45171417240E+01  0.17216581457E+02 -0.12245907648E+03  0.12381644907E+03  0.41800000000E+01 0.  1.
         -5    1    3    3    0  502  0.88737093072E+02  0.13318676668E+03 -0.11153119574E+03  0.19511449595E+03  0.41800000000E+01 0.  1.
        -11    1    1    2    0    0 -0.48659100563E+02 -0.10562399387E+03 -0.29309695804E+03  0.31532517020E+03  0.00000000000E+00 0.  1.
         11    1    1    2    0    0 -0.44595134233E+02 -0.44779354275E+02 -0.50121874425E+02  0.80660516130E+02  0.00000000000E+00 0. -1.
</event>
<event>
 7    1  0.2690635E-009  0.1269081E+03  0.7561462E-02  0.1232117E+00
         -3   -1    0    0    0  501 -0.00000000000E+00  0.00000000000E+00  0.34188743252E+02  0.34188743252E+02  0.00000000000E+00 0.  1.
          3   -1    0    0  501    0  0.00000000000E+00 -0.00000000000E+00 -0.62545814339E+03  0.62545814339E+03  0.00000000000E+00 0. -1.
         25    2    1    2    0    0 -0.21494761051E+02  0.55508231570E+02 -0.41044356394E+03  0.43319290258E+03  0.12509589577E+03 0.  0.
          5    1    3    3  502    0  0.34894451336E+02 -0.12108289076E+02 -0.22278612965E+03  0.22586581273E+03  0.41800000000E+01 0. -1.
         -5    1    3    3    0  502 -0.56389212387E+02  0.67616520646E+02 -0.18765743429E+03  0.20732708984E+03  0.41800000000E+01 0. -1.
        -11    1    1    2    0    0 -0.47044771083E+02 -0.27237488950E+02 -0.11544235701E+03  0.12760105440E+03  0.00000000000E+00 0. -1.
         11    1    1    2    0    0  0.68539532133E+02 -0.28270742619E+02 -0.65383479182E+02  0.98852929664E+02  0.00000000000E+00 0.  1.
</event>
<event>
 7    1  0.2690635E-009  0.9370785E+02  0.7561462E-02  0.1294113E+00
         -2   -1    0    0    0  501 -0.00000000000E+00  0.00000000000E+00  0.43203173487E+02  0.43203173487E+02  0.00000000000E+00 0.  1.
          2   -1    0    0  501    0  0.00000000000E+00 -0.00000000000E+00 -0.28078793918E+03  0.28078793918E+03  0.00000000000E+00 0. -1.
         25    2    1    2    0    0 -0.15363953832E+02  0.54775344186E+00 -0.13026715061E+03  0.18125524647E+03  0.12509029831E+03 0.  0.
          5    1    3    3  502    0 -0.35299006319E+02 -0.55769938244E+02 -0.69445058227E+02  0.95897832984E+02  0.41800000000E+01 0.  1.
         -5    1    3    3    0  502  0.19935052487E+02  0.56317691685E+02 -0.60822092384E+02  0.85357413483E+02  0.41800000000E+01 0.  1.
        -11    1    1    2    0    0 -0.16681098946E+02  0.17859176026E+02  0.46067641880E+01  0.24868283147E+02  0.00000000000E+00 0.  1.
         11    1    1    2    0    0  0.32045052778E+02 -0.18406929468E+02 -0.11192437927E+03  0.11786758306E+03  0.00000000000E+00 0. -1.
</event>
<event>
 7    1  0.2690635E-009  0.1013239E+03  0.7561462E-02  0.1277536E+00
         -1   -1    0    0    0  501 -0.00000000000E+00  0.00000000000E+00  0.39041526277E+02  0.39041526277E+02  0.00000000000E+00 0.  1.
          1   -1    0    0  501    0  0.00000000000E+00 -0.00000000000E+00 -0.36168330440E+03  0.36168330440E+03  0.00000000000E+00 0. -1.
         25    2    1    2    0    0  0.73757190932E+01  0.55543675321E+01 -0.10500075103E+03  0.16356500642E+03  0.12507238454E+03 0.  0.
          5    1    3    3  502    0 -0.80657301866E+01 -0.55911300529E+02 -0.26355065549E+02  0.62475526492E+02  0.41800000000E+01 0.  1.
         -5    1    3    3    0  502  0.15441449280E+02  0.61465668062E+02 -0.78645685484E+02  0.10108947992E+03  0.41800000000E+01 0.  1.
        -11    1    1    2    0    0 -0.91152236945E+01 -0.43530194977E+02 -0.58189735476E+02  0.73239405326E+02  0.00000000000E+00 0.  1.
         11    1    1    2    0    0  0.17395046013E+01  0.37975827445E+02 -0.15945129161E+03  0.16392041893E+03  0.00000000000E+00 0. -1.
</event>
<event>
 7    1  0.2690635E-009  0.1399052E+03  0.7561462E-02  0.1213457E+00
         -2   -1    0    0    0  501 -0.00000000000E+00  0.00000000000E+00  0.35262122119E+02  0.35262122119E+02  0.00000000000E+00 0.  1.
          2   -1    0    0  501    0  0.00000000000E+00 -0.00000000000E+00 -0.61284815282E+03  0.61284815282E+03  0.00000000000E+00 0. -1.
         25    2    1    2    0    0 -0.83128377005E+02 -0.57191850664E+02 -0.35604798566E+03  0.39063939572E+03  0.12509090514E+03 0.  0.
          5    1    3    3  502    0 -0.65935034194E+01 -0.79957189348E+02 -0.16436007434E+03  0.18294352367E+03  0.41800000000E+01 0.  1.
         -5    1    3    3    0  502 -0.76534873586E+02  0.22765338684E+02 -0.19168791132E+03  0.20769587205E+03  0.41800000000E+01 0.  1.
        -11    1    1    2    0    0  0.14347824815E+01  0.34770483375E+02 -0.23271029881E+02  0.41863897891E+02  0.00000000000E+00 0.  1.
         11    1    1    2    0    0  0.81693594524E+02  0.22421367288E+02 -0.19826701516E+03  0.21560698133E+03  0.00000000000E+00 0. -1.
</event>
<event>
 7    1  0.2690635E-009  0.1047259E+03  0.7561462E-02  0.1270661E+00
          1   -1    0    0  501    0  0.00000000000E+00  0.00000000000E+00  0.30124055552E+03  0.30124055552E+03  0.00000000000E+00 0. -1.
         -1   -1    0    0    0  501 -0.00000000000E+00 -0.00000000000E+00 -0.96841957199E+02  0.96841957199E+02  0.00000000000E+00 0.  1.
         25    2    1    2    0    0  0.44099591719E+02  0.56584778322E+02  0.23791285072E+03  0.27820254657E+03  0.12509005257E+03 0.  0.
          5    1    3    3  502    0  0.58278884760E+02  0.29028147110E+02  0.37269396396E+02  0.75136822139E+02  0.41800000000E+01 0. -1.
         -5    1    3    3    0  502 -0.14179293040E+02  0.27556631212E+02  0.20064345433E+03  0.20306572443E+03  0.41800000000E+01 0. -1.
        -11    1    1    2    0    0 -0.38092699157E+02  0.15119118164E+02 -0.23467930465E+02  0.47226954417E+02  0.00000000000E+00 0.  1.
         11    1    1    2    0    0 -0.60068925619E+01 -0.71703896486E+02 -0.10046321934E+02  0.72653011733E+02  0.00000000000E+00 0. -1.
</event>
<event>
 7    1  0.2690635E-009  0.3363924E+03  0.7561462E-02  0.1068343E+00
         -2   -1    0    0    0  501 -0.00000000000E+00  0.00000000000E+00  0.10921619078E+03  0.10921619078E+03  0.00000000000E+00 0. -1.
          2   -1    0    0  501    0  0.00000000000E+00 -0.00000000000E+00 -0.13930854496E+04  0.13930854496E+04  0.00000000000E+00 0.  1.
         25    2    1    2    0    0 -0.20870683602E+03  0.25583730538E+03 -0.99019994031E+03  0.10512636435E+04  0.12509219044E+03 0.  0.
          5    1    3    3  502    0 -0.18321616560E+03  0.17877472605E+03 -0.59418826136E+03  0.64699747167E+03  0.41800000000E+01 0. -1.
         -5    1    3    3    0  502 -0.25490670412E+02  0.77062579333E+02 -0.39601167895E+03  0.40426617181E+03  0.41800000000E+01 0. -1.
        -11    1    1    2    0    0  0.44316154532E+02 -0.21542503547E+02 -0.79631581388E+02  0.93643952105E+02  0.00000000000E+00 0.  1.
         11    1    1    2    0    0  0.16439068148E+03 -0.23429480184E+03 -0.21403773707E+03  0.35739404474E+03  0.00000000000E+00 0. -1.
</event>
<event>
 7    1  0.2690635E-009  0.1694758E+03  0.7561462E-02  0.1178396E+00
         -4   -1    0    0    0  501 -0.00000000000E+00  0.00000000000E+00  0.15858459186E+03  0.15858459186E+03  0.00000000000E+00 0.  1.
          4   -1    0    0  501    0  0.00000000000E+00 -0.00000000000E+00 -0.19296625362E+03  0.19296625362E+03  0.00000000000E+00 0. -1.
         25    2    1    2    0    0  0.19144541690E+02  0.12710768394E+03 -0.75272095823E+01  0.17951892886E+03  0.12509000816E+03 0.  0.
          5    1    3    3  502    0  0.67720234214E+02  0.70240073612E+02  0.20053411552E+02  0.99696087075E+02  0.41800000000E+01 0. -1.
         -5    1    3    3    0  502 -0.48575692524E+02  0.56867610325E+02 -0.27580621134E+02  0.79822841784E+02  0.41800000000E+01 0. -1.
        -11    1    1    2    0    0  0.96791501552E+01  0.16925495202E+02  0.79824993154E+01  0.21068427347E+02  0.00000000000E+00 0.  1.
         11    1    1    2    0    0 -0.28823691846E+02 -0.14403317914E+03 -0.34836951498E+02  0.15096348928E+03  0.00000000000E+00 0. -1.
</event>
<event>
 7    1  0.2690635E-009  0.9848003E+02  0.7561462E-02  0.1283525E+00
         -1   -1    0    0    0  501 -0.00000000000E+00  0.00000000000E+00  0.16247984968E+02  0.16247984968E+02  0.00000000000E+00 0.  1.
          1   -1    0    0  501    0  0.00000000000E+00 -0.00000000000E+00 -0.10000927910E+04  0.10000927910E+04  0.00000000000E+00 0. -1.
         25    2    1    2    0    0 -0.35837613353E+02 -0.19182118614E+02 -0.75336639116E+03  0.76476154764E+03  0.12508803782E+03 0.  0.
          5    1    3    3  502    0 -0.11958525453E+02  0.48573952038E+02 -0.17903409065E+03  0.18593846606E+03  0.41800000000E+01 0. -1.
         -5    1    3    3    0  502 -0.23879087899E+02 -0.67756070651E+02 -0.57433230051E+03  0.57882308157E+03  0.41800000000E+01 0. -1.
        -11    1    1    2    0    0  0.52864487049E+02  0.58767414160E+01 -0.22213669827E+03  0.22841607387E+03  0.00000000000E+00 0. -1.
         11    1    1    2    0    0 -0.17026873696E+02  0.13305377198E+02 -0.83417166374E+01  0.23163154506E+02  0.00000000000E+00 0.  1.
</event>
<event>
 7    1  0.2690635E-009  0.1429843E+03  0.7561462E-02  0.1209369E+00
          1   -1    0    0  501    0  0.00000000000E+00  0.00000000000E+00  0.32318806759E+02  0.32318806759E+02  0.00000000000E+00 0. -1.
         -1   -1    0    0    0  501 -0.00000000000E+00 -0.00000000000E+00 -0.10388910376E+04  0.10388910376E+04  0.00000000000E+00 0.  1.
         25    2    1    2    0    0  0.49263767879E+02 -0.12105662437E+03 -0.72789375856E+03  0.75003865934E+03  0.12508813540E+03 0.  0.
          5    1    3    3  502    0 -0.14109468942E+02 -0.31603595964E+02 -0.44888117039E+03  0.45023287521E+03  0.41800000000E+01 0.  1.
         -5    1    3    3    0  502  0.63373236821E+02 -0.89453028408E+02 -0.27901258817E+03  0.29980578413E+03  0.41800000000E+01 0.  1.
        -11    1    1    2    0    0 -0.34284396760E+02  0.20948343484E+02 -0.23256513851E+02  0.46423252713E+02  0.00000000000E+00 0. -1.
         11    1    1    2    0    0 -0.14979371119E+02  0.10010828089E+03 -0.25542195844E+03  0.27474793233E+03  0.00000000000E+00 0.  1.
</event>
<event>
 7    1  0.2690635E-009  0.1228329E+03  0.7561462E-02  0.1238495E+00
          2   -1    0    0  501    0  0.00000000000E+00  0.00000000000E+00  0.94648517174E+03  0.94648517174E+03  0.00000000000E+00 0. -1.
         -2   -1    0    0    0  501 -0.00000000000E+00 -0.00000000000E+00 -0.22500034331E+02  0.22500034331E+02  0.00000000000E+00 0.  1.
         25    2    1    2    0    0  0.70609048837E+02  0.41138462227E+02  0.68019666590E+03  0.69641210723E+03  0.12507720797E+03 0.  0.
          5    1    3    3  502    0  0.48536585259E+02 -0.39946522289E+02  0.35253053366E+03  0.35811558792E+03  0.41800000000E+01 0.  1.
         -5    1    3    3    0  502  0.22072463578E+02  0.81084984516E+02  0.32766613224E+03  0.33829651932E+03  0.41800000000E+01 0.  1.
        -11    1    1    2    0    0 -0.95371436159E+01 -0.35996455034E+02  0.23770634309E+02  0.44178557455E+02  0.00000000000E+00 0.  1.
         11    1    1    2    0    0 -0.61071905221E+02 -0.51420071934E+01  0.22001783720E+03  0.22839454138E+03  0.00000000000E+00 0. -1.
</event>
<event>
 7    1  0.2690635E-009  0.1240305E+03  0.7561462E-02  0.1236592E+00
         -2   -1    0    0    0  501 -0.00000000000E+00  0.00000000000E+00  0.29993257379E+02  0.29993257379E+02  0.00000000000E+00 0.  1.
          2   -1    0    0  501    0  0.00000000000E+00 -0.00000000000E+00 -0.81237878810E+03  0.81237878810E+03  0.00000000000E+00 0. -1.
         25    2    1    2    0    0 -0.91964066773E+02  0.52935606669E+02 -0.51753770778E+03  0.54291018660E+03  0.12508646494E+03 0.  0.
          5    1    3    3  502    0 -0.21925673163E+02  0.28580421992E+02 -0.41347582482E+03  0.41506301423E+03  0.41800000000E+01 0.  1.
         -5    1    3    3    0  502 -0.70038393610E+02  0.24355184677E+02 -0.10406188295E+03  0.12784717237E+03  0.41800000000E+01 0.  1.
        -11    1    1    2    0    0  0.32344338142E+02  0.23941604480E+02 -0.10357469504E+03  0.11111738877E+03  0.00000000000E+00 0.  1.
         11    1    1    2    0    0  0.59619728631E+02 -0.76877211149E+02 -0.16127312791E+03  0.18834447011E+03  0.00000000000E+00 0. -1.
</event>
<event>
 7    1  0.2690635E-009  0.1102188E+03  0.7561462E-02  0.1260165E+00
         -1   -1    0    0    0  501 -0.00000000000E+00  0.00000000000E+00  0.37657752694E+02  0.37657752694E+02  0.00000000000E+00 0.  1.
          1   -1    0    0  501    0  0.00000000000E+00 -0.00000000000E+00 -0.39405870661E+03  0.39405870661E+03  0.00000000000E+00 0. -1.
         25    2    1    2    0    0  0.54059809174E+02 -0.21877197614E+01 -0.17058156785E+03  0.21833920274E+03  0.12508671823E+03 0.  0.
          5    1    3    3  502    0  0.84867337286E+02 -0.26181868650E+02 -0.14904182069E+03  0.17354795274E+03  0.41800000000E+01 0.  1.
         -5    1    3    3    0  502 -0.30807528112E+02  0.23994148889E+02 -0.21539747158E+02  0.44791250004E+02  0.41800000000E+01 0.  1.
        -11    1    1    2    0    0 -0.49166386815E+02  0.34185686915E+02 -0.16332985273E+03  0.17396159224E+03  0.00000000000E+00 0. -1.
         11    1    1    2    0    0 -0.48934223586E+01 -0.31997967153E+02 -0.22489533337E+02  0.39415664323E+02  0.00000000000E+00 0.  1.
</event>
<event>
 7    1  0.2690635E-009  0.7076139E+02  0.7561462E-02  0.1357523E+00
          2   -1    0    0  501    0  0.00000000000E+00  0.00000000000E+00  0.32221446630E+03  0.32221446630E+03  0.00000000000E+00 0. -1.
         -2   -1    0    0    0  501 -0.00000000000E+00 -0.00000000000E+00 -0.70452636272E+02  0.70452636272E+02  0.00000000000E+00 0.  1.
         25    2    1    2    0    0  0.36721943076E+02 -0.46086000194E+02  0.12290366908E+02  0.13881772163E+03  0.12508751418E+03 0.  0.
          5    1    3    3  502    0  0.37073859054E+02 -0.16453038388E+02 -0.53073078674E+02  0.66928301766E+02  0.41800000000E+01 0. -1.
         -5    1    3    3    0  502 -0.35191597763E+00 -0.29632961806E+02  0.65363445582E+02  0.71889419866E+02  0.41800000000E+01 0. -1.
        -11    1    1    2    0    0  0.54853109447E+00  0.30362440132E+02  0.39480898101E+02  0.49808834276E+02  0.00000000000E+00 0.  1.
         11    1    1    2    0    0 -0.37270474171E+02  0.15723560063E+02  0.19999056502E+03  0.20404054666E+03  0.00000000000E+00 0. -1.
</event>
<event>
 7    1  0.2690635E-009  0.1309790E+03  0.7561462E-02  0.1226010E+00
         -2   -1    0    0    0  501 -0.00000000000E+00  0.00000000000E+00  0.54610992430E+02  0.54610992430E+02  0.00000000000E+00 0.  1.
          2   -1    0    0  501    0  0.00000000000E+00 -0.00000000000E+00 -0.35593464074E+03  0.35593464074E+03  0.00000000000E+00 0. -1.
         25    2    1    2    0    0 -0.15861341198E+02  0.81800834261E+02 -0.20626615659E+03  0.25521741279E+03  0.12508893560E+03 0.  0.
          5    1    3    3  502    0 -0.30893820854E+02  0.10613347018E+03 -0.19500766498E+03  0.22419679628E+03  0.41800000000E+01 0.  1.
         -5    1    3    3    0  502  0.15032479656E+02 -0.24332635924E+02 -0.11258491607E+02  0.31020616514E+02  0.41800000000E+01 0.  1.
        -11    1    1    2    0    0 -0.18761716555E+02  0.12119866330E+02 -0.22450582098E+02  0.31668940691E+02  0.00000000000E+00 0.  1.
         11    1    1    2    0    0  0.34623057753E+02 -0.93920700590E+02 -0.72606909626E+02  0.12365927969E+03  0.00000000000E+00 0. -1.
</event>
<event>
 7    1  0.2690635E-009  0.1502862E+03  0.7561462E-02  0.1200122E+00
          1   -1    0    0  501    0  0.00000000000E+00  0.00000000000E+00  0.49324416587E+02  0.49324416587E+02  0.00000000000E+00 0. -1.
         -1   -1    0    0    0  501 -0.00000000000E+00 -0.00000000000E+00 -0.51675095572E+03  0.51675095572E+03  0.00000000000E+00 0.  1.
         25    2    1    2    0    0 -0.35764810845E+02 -0.10062616844E+03 -0.16625791829E+03  0.23387076454E+03  0.12509632944E+03 0.  0.
          5    1    3    3  502    0  0.46671477216E+02 -0.33486543383E+02 -0.67120040626E+02  0.88442906030E+02  0.41800000000E+01 0.  1.
         -5    1    3    3    0  502 -0.82436288061E+02 -0.67139625059E+02 -0.99137877667E+02  0.14542785851E+03  0.41800000000E+01 0.  1.
        -11    1    1    2    0    0  0.31186436220E+00  0.10112170352E+03 -0.25244859844E+03  0.27194850806E+03  0.00000000000E+00 0.  1.
         11    1    1    2    0    0  0.35452946483E+02 -0.49553507586E+00 -0.48720022396E+02  0.60256099704E+02  0.00000000000E+00 0. -1.
</event>
<event>
 7    1  0.2690635E-009  0.1738436E+03  0.7561462E-02  0.1173898E+00
          1   -1    0    0  501    0  0.00000000000E+00  0.00000000000E+00  0.61929957264E+02  0.61929957264E+02  0.00000000000E+00 0. -1.
         -1   -1    0    0    0  501 -0.00000000000E+00 -0.00000000000E+00 -0.52649871869E+03  0.52649871869E+03  0.00000000000E+00 0.  1.
         25    2    1    2    0    0 -0.86228192581E+02 -0.11097936203E+03 -0.29810233712E+03  0.35251305001E+03  0.12509487216E+03 0.  0.
          5    1    3    3  502    0 -0.80314727045E+02 -0.13780672186E+03 -0.24136669519E+03  0.28933804091E+03  0.41800000000E+01 0. -1.
         -5    1    3    3    0  502 -0.59134655362E+01  0.26827359830E+02 -0.56735641926E+02  0.63175009100E+02  0.41800000000E+01 0. -1.
        -11    1    1    2    0    0  0.97529344018E+02  0.76185036985E+02 -0.15333290750E+03  0.19704596755E+03  0.00000000000E+00 0.  1.
         11    1    1    2    0    0 -0.11301151437E+02  0.34794325050E+02 -0.13133516802E+02  0.38869658386E+02  0.00000000000E+00 0. -1.
</event>
<event>
 7    1  0.2690635E-009  0.1567576E+03  0.7561462E-02  0.1192407E+00
         -2   -1    0    0    0  501 -0.00000000000E+00  0.00000000000E+00  0.27710605253E+02  0.27710605253E+02  0.00000000000E+00 0.  1.
          2   -1    0    0  501    0  0.00000000000E+00 -0.00000000000E+00 -0.10805738947E+04  0.10805738947E+04  0.00000000000E+00 0. -1.
         25    2    1    2    0    0  0.64841358352E+02  0.85404026285E+02 -0.72346479664E+03  0.74198829336E+03  0.12508823307E+03 0.  0.
          5    1    3    3  502    0 -0.37519637693E+02  0.28316648365E+02 -0.22798751131E+03  0.23282038893E+03  0.41800000000E+01 0. -1.
         -5    1    3    3    0  502  0.10236099604E+03  0.57087377920E+02 -0.49547728533E+03  0.50916790444E+03  0.41800000000E+01 0. -1.
        -11    1    1    2    0    0 -0.38997101794E+02 -0.10793186219E+03 -0.18355771681E+03  0.21647978248E+03  0.00000000000E+00 0.  1.
         11    1    1    2    0    0 -0.25844256558E+02  0.22527835907E+02 -0.14584077598E+03  0.14981642409E+03  0.00000000000E+00 0. -1.
</event>
<event>
 7    1  0.2690635E-009  0.6795128E+02  0.7561462E-02  0.1367202E+00
          1   -1    0    0  501    0  0.00000000000E+00  0.00000000000E+00  0.49769098460E+03  0.49769098460E+03  0.00000000000E+00 0. -1.
         -1   -1    0    0    0  501 -0.00000000000E+00 -0.00000000000E+00 -0.28876369277E+02  0.28876369277E+02  0.00000000000E+00 0.  1.
         25    2    1    2    0    0  0.19279094585E+02 -0.22168392062E+02  0.35414794442E+03  0.37673975513E+03  0.12509578516E+03 0.  0.
          5    1    3    3  502    0  0.45561361001E+01 -0.45007124045E+02  0.37520026432E+02  0.58920491973E+02  0.41800000000E+01 0.  1.
         -5    1    3    3    0  502  0.14722958485E+02  0.22838731982E+02  0.31662791799E+03  0.31781926316E+03  0.41800000000E+01 0.  1.
        -11    1    1    2    0    0 -0.38413396374E+02  0.81718609115E+01  0.73894878364E+01  0.39962142864E+02  0.00000000000E+00 0.  1.
         11    1    1    2    0    0  0.19134301789E+02  0.13996531151E+02  0.10727718306E+03  0.10986545588E+03  0.00000000000E+00 0. -1.
</event>
<event>
 7    1  0.2690635E-009  0.1735232E+03  0.7561462E-02  0.1174223E+00
          2   -1    0    0  501    0  0.00000000000E+00  0.00000000000E+00  0.90428072962E+03  0.90428072962E+03  0.00000000000E+00 0. -1.
         -2   -1    0    0    0  501 -0.00000000000E+00 -0.00000000000E+00 -0.74911295738E+02  0.74911295738E+02  0.00000000000E+00 0.  1.
         25    2    1    2    0    0  0.42608379558E+02 -0.13863054970E+03  0.77373001098E+03  0.79708219589E+03  0.12509194139E+03 0.  0.
          5    1    3    3  502    0 -0.29270288973E+02  0.34192645399E+01  0.17607246578E+03  0.17857050931E+03  0.41800000000E+01 0.  1.
         -5    1    3    3    0  502  0.71878668531E+02 -0.14204981424E+03  0.59765754520E+03  0.61851168659E+03  0.41800000000E+01 0.  1.
        -11    1    1    2    0    0 -0.29087168374E+02  0.13324803762E+02 -0.17423079991E+02  0.36430447097E+02  0.00000000000E+00 0.  1.
         11    1    1    2    0    0 -0.13521211184E+02  0.12530574594E+03  0.73062502890E+02  0.14567938236E+03  0.00000000000E+00 0. -1.
</event>
<event>
 7    1  0.2936046E-009  0.2083152E+03  0.7561462E-02  0.1142907E+00
          1   -1    0    0  501    0  0.00000000000E+00  0.00000000000E+00  0.66687228412E+03  0.66687228412E+03  0.00000000000E+00 0. -1.
         -1   -1    0    0    0  501 -0.00000000000E+00 -0.00000000000E+00 -0.85130042643E+02  0.85130042643E+02  0.00000000000E+00 0.  1.
         25    2    1    2    0    0 -0.10409493556E+03  0.17036615790E+03  0.18949162227E+03  0.30234971698E+03  0.12509153881E+03 0.  0.
          5    1    3    3  502    0 -0.86366536645E+02  0.60393813044E+02  0.15147004729E+03  0.18457312625E+03  0.41800000000E+01 0. -1.
         -5    1    3    3    0  502 -0.17728398912E+02  0.10997234485E+03  0.38021574980E+02  0.11777659073E+03  0.41800000000E+01 0. -1.
        -11    1    1    2    0    0  0.45743446793E+02 -0.78608134498E+02  0.87997577821E+02  0.12655147347E+03  0.00000000000E+00 0.  1.
         11    1    1    2    0    0  0.58351488764E+02 -0.91758023398E+02  0.30425304138E+03  0.32310113632E+03  0.00000000000E+00 0. -1.
</event>
<event>
 7    1  0.2690635E-009  0.2249759E+03  0.7561462E-02  0.1130227E+00
         -1   -1    0    0    0  501 -0.00000000000E+00  0.00000000000E+00  0.21784483431E+03  0.21784483431E+03  0.00000000000E+00 0.  1.
          1   -1    0    0  501    0  0.00000000000E+00 -0.00000000000E+00 -0.25161121719E+03  0.25161121719E+03  0.00000000000E+00 0. -1.
         25    2    1    2    0    0 -0.18940276220E+03  0.74403018158E+02  0.28554829440E+01  0.23888214841E+03  0.12508921460E+03 0.  0.
          5    1    3    3  502    0 -0.18231731644E+03  0.96197889888E+02  0.23805209012E+02  0.20755191704E+03  0.41800000000E+01 0.  1.
         -5    1    3    3    0  502 -0.70854457583E+01 -0.21794871730E+02 -0.20949726068E+02  0.31330231369E+02  0.41800000000E+01 0.  1.
        -11    1    1    2    0    0  0.17498686456E+03 -0.34914258566E+02 -0.59485306017E+01  0.17853513165E+03  0.00000000000E+00 0.  1.
         11    1    1    2    0    0  0.14415897642E+02 -0.39488759593E+02 -0.30673335223E+02  0.52038771437E+02  0.00000000000E+00 0. -1.
</event>
<event>
 7    1  0.2690635E-009  0.1090628E+03  0.7561462E-02  0.1262315E+00
          4   -1    0    0  501    0  0.00000000000E+00  0.00000000000E+00  0.22929479797E+03  0.22929479797E+03  0.00000000000E+00 0. -1.
         -4   -1    0    0    0  501 -0.00000000000E+00 -0.00000000000E+00 -0.68925915491E+02  0.68925915491E+02  0.00000000000E+00 0.  1.
         25    2    1    2    0    0 -0.26494256936E+02  0.44478798374E+02  0.49925213503E+02  0.14429072552E+03  0.12508787860E+03 0.  0.
          5    1    3    3  502    0 -0.29120768424E+01  0.74809150419E+02  0.68365824141E+02  0.10147042667E+03  0.41800000000E+01 0. -1.
         -5    1    3    3    0  502 -0.23582180094E+02 -0.30330352045E+02 -0.18440610639E+02  0.42820298853E+02  0.41800000000E+01 0. -1.
        -11    1    1    2    0    0  0.47782622770E+02  0.74630715024E+01  0.34123245199E+02  0.59188447673E+02  0.00000000000E+00 0.  1.
         11    1    1    2    0    0 -0.21288365834E+02 -0.51941869877E+02  0.76320423775E+02  0.94741540263E+02  0.00000000000E+00 0. -1.
</event>
<event>
 7    1  0.2690635E-009  0.6648996E+02  0.7561462E-02  0.1372453E+00
          2   -1    0    0  501    0  0.00000000000E+00  0.00000000000E+00  0.11865083982E+03  0.11865083982E+03  0.00000000000E+00 0. -1.
         -2   -1    0    0    0  501 -0.00000000000E+00 -0.00000000000E+00 -0.12058019115E+03  0.12058019115E+03  0.00000000000E+00 0.  1.
         25    2    1    2    0    0  0.54276663350E+01  0.34715711732E+02  0.32545532491E+02  0.13394354066E+03  0.12508804978E+03 0.  0.
          5    1    3    3  502    0 -0.12889177609E+02 -0.46805309708E+01  0.73022783122E+02  0.74416648168E+02  0.41800000000E+01 0.  1.
         -5    1    3    3    0  502  0.18316843944E+02  0.39396242703E+02 -0.40477250632E+02  0.59526892493E+02  0.41800000000E+01 0.  1.
        -11    1    1    2    0    0  0.10541777286E+02  0.17480404582E+02 -0.45257646646E+02  0.49648244607E+02  0.00000000000E+00 0.  1.
         11    1    1    2    0    0 -0.15969443621E+02 -0.52196116314E+02  0.10782762820E+02  0.55639245699E+02  0.00000000000E+00 0. -1.
</event>
<event>
 7    1  0.2690635E-009  0.7935684E+02  0.7561462E-02  0.1330887E+00
          1   -1    0    0  501    0  0.00000000000E+00  0.00000000000E+00  0.24701503737E+03  0.24701503737E+03  0.00000000000E+00 0.  1.
         -1   -1    0    0    0  501 -0.00000000000E+00 -0.00000000000E+00 -0.53786191616E+02  0.53786191616E+02  0.00000000000E+00 0. -1.
         25    2    1    2    0    0 -0.93379216764E+01  0.34153011132E+02  0.13124591921E+03  0.18473432281E+03  0.12509058224E+03 0.  0.
          5    1    3    3  502    0 -0.22547781932E+02  0.59506718347E+02  0.14058229186E+03  0.15437067462E+03  0.41800000000E+01 0. -1.
         -5    1    3    3    0  502  0.13209860255E+02 -0.25353707215E+02 -0.93363726483E+01  0.30363648195E+02  0.41800000000E+01 0. -1.
        -11    1    1    2    0    0 -0.23595148728E+02 -0.13827924562E+02  0.71210808713E+02  0.76281857730E+02  0.00000000000E+00 0.  1.
         11    1    1    2    0    0  0.32933070404E+02 -0.20325086570E+02 -0.92278821665E+01  0.39785048443E+02  0.00000000000E+00 0. -1.
</event>
<event>
 7    1  0.2690635E-009  0.1271573E+03  0.7561462E-02  0.1231736E+00
          1   -1    0    0  501    0  0.00000000000E+00  0.00000000000E+00  0.41589161242E+03  0.41589161242E+03  0.00000000000E+00 0. -1.
         -1   -1    0    0    0  501 -0.00000000000E+00 -0.00000000000E+00 -0.39593077510E+02  0.39593077510E+02  0.00000000000E+00 0.  1.
         25    2    1    2    0    0  0.12039939315E+02  0.70171518004E+02  0.20581607012E+03  0.25115762220E+03  0.12510353470E+03 0.  0.
          5    1    3    3  502    0 -0.10916905810E+02 -0.34134555921E+02  0.65364411517E+02  0.74661405246E+02  0.41800000000E+01 0. -1.
         -5    1    3    3    0  502  0.22956845125E+02  0.10430607392E+03  0.14045165860E+03  0.17649621696E+03  0.41800000000E+01 0. -1.
        -11    1    1    2    0    0  0.89119552437E+01  0.18340714643E+02  0.44408323451E+02  0.48866184132E+02  0.00000000000E+00 0. -1.
         11    1    1    2    0    0 -0.20951894558E+02 -0.88512232648E+02  0.12607414134E+03  0.15546088360E+03  0.00000000000E+00 0.  1.
</event>
<event>
 7    1  0.2690635E-009  0.1504031E+03  0.7561462E-02  0.1199979E+00
         -2   -1    0    0    0  501 -0.00000000000E+00  0.00000000000E+00  0.21217419002E+03  0.21217419002E+03  0.00000000000E+00 0. -1.
          2   -1    0    0  501    0  0.00000000000E+00 -0.00000000000E+00 -0.11475908393E+03  0.11475908393E+03  0.00000000000E+00 0.  1.
         25    2    1    2    0    0 -0.96263857878E+02 -0.44543719717E+02  0.95079361287E+02  0.18957370481E+03  0.12508889364E+03 0.  0.
          5    1    3    3  502    0  0.24934898906E+02 -0.33539109079E+02  0.28894430076E+02  0.50980207049E+02  0.41800000000E+01 0.  1.
         -5    1    3    3    0  502 -0.12119875678E+03 -0.11004610638E+02  0.66184931210E+02  0.13859349776E+03  0.41800000000E+01 0.  1.
        -11    1    1    2    0    0  0.57962510183E+02  0.70123832803E+02 -0.27648383008E+01  0.91020046388E+02  0.00000000000E+00 0.  1.
         11    1    1    2    0    0  0.38301347695E+02 -0.25580113086E+02  0.51005831055E+01  0.46339522751E+02  0.00000000000E+00 0. -1.
</event>
<event>
 7    1  0.2690635E-009  0.1057517E+03  0.7561462E-02  0.1268646E+00
         -2   -1    0    0    0  501 -0.00000000000E+00  0.00000000000E+00  0.53296988647E+03  0.53296988647E+03  0.00000000000E+00 0. -1.
          2   -1    0    0  501    0  0.00000000000E+00 -0.00000000000E+00 -0.28276113052E+02  0.28276113052E+02  0.00000000000E+00 0.  1.
         25    2    1    2    0    0 -0.22684345647E+02 -0.51906093220E+02  0.31153453884E+03  0.34045705027E+03  0.12509361350E+03 0.  0.
          5    1    3    3  502    0 -0.58894350594E+02  0.14501253313E+02  0.15680416901E+03  0.16817803275E+03  0.41800000000E+01 0.  1.
         -5    1    3    3    0  502  0.36210004946E+02 -0.66407346533E+02  0.15473036982E+03  0.17227901752E+03  0.41800000000E+01 0.  1.
        -11    1    1    2    0    0  0.37733085126E+02  0.29197152208E+02  0.18682349047E+03  0.19281928327E+03  0.00000000000E+00 0. -1.
         11    1    1    2    0    0 -0.15048739479E+02  0.22708941012E+02  0.63357441149E+01  0.27969665984E+02  0.00000000000E+00 0.  1.
</event>
<event>
 7    1  0.2690635E-009  0.1125737E+03  0.7561462E-02  0.1255877E+00
          2   -1    0    0  501    0  0.00000000000E+00  0.00000000000E+00  0.12991009354E+04  0.12991009354E+04  0.00000000000E+00 0. -1.
         -2   -1    0    0    0  501 -0.00000000000E+00 -0.00000000000E+00 -0.15051114762E+02  0.15051114762E+02  0.00000000000E+00 0.  1.
         25    2    1    2    0    0 -0.65585141171E+02 -0.24783428717E+02  0.95474928016E+03  0.96545805498E+03  0.12508972337E+03 0.  0.
          5    1    3    3  502    0 -0.61141127061E+02 -0.60082594158E+02  0.37901235308E+03  0.38860776076E+03  0.41800000000E+01 0.  1.
         -5    1    3    3    0  502 -0.44440141100E+01  0.35299165441E+02  0.57573692708E+03  0.57685029422E+03  0.41800000000E+01 0.  1.
        -11    1    1    2    0    0 -0.17384758978E+02  0.22754269326E+01  0.15739147356E+02  0.23561158120E+02  0.00000000000E+00 0.  1.
         11    1    1    2    0    0  0.82969900150E+02  0.22508001785E+02  0.31356139315E+03  0.32513283708E+03  0.00000000000E+00 0. -1.
</event>
<event>
 7    1  0.2690635E-009  0.4098077E+02  0.7561462E-02  0.1501116E+00
         -1   -1    0    0    0  501 -0.00000000000E+00  0.00000000000E+00  0.10628188175E+03  0.10628188175E+03  0.00000000000E+00 0. -1.
          1   -1    0    0  501    0  0.00000000000E+00 -0.00000000000E+00 -0.16412744908E+03  0.16412744908E+03  0.00000000000E+00 0.  1.
         25    2    1    2    0    0  0.38728137714E+01  0.34201236285E+01 -0.10951730958E+03  0.16634104521E+03  0.12509438953E+03 0.  0.
          5    1    3    3  502    0 -0.69439797157E+01  0.85567825762E+01 -0.13624654104E+03  0.13675536453E+03  0.41800000000E+01 0. -1.
         -5    1    3    3    0  502  0.10816793487E+02 -0.51366589477E+01  0.26729231465E+02  0.29585680678E+02  0.41800000000E+01 0. -1.
        -11    1    1    2    0    0 -0.58067578621E+01  0.26692993651E+02  0.65430758820E+02  0.70904291455E+02  0.00000000000E+00 0. -1.
         11    1    1    2    0    0  0.19339440907E+01 -0.30113117280E+02 -0.13759016574E+02  0.33163994167E+02  0.00000000000E+00 0.  1.
</event>
<event>
 7    1  0.2690635E-009  0.1198245E+03  0.7561462E-02  0.1243387E+00
         -2   -1    0    0    0  501 -0.00000000000E+00  0.00000000000E+00  0.19331116690E+03  0.19331116690E+03  0.00000000000E+00 0. -1.
          2   -1    0    0  501    0  0.00000000000E+00 -0.00000000000E+00 -0.93034595450E+02  0.93034595450E+02  0.00000000000E+00 0.  1.
         25    2    1    2    0    0  0.45984673142E+01 -0.77828483034E+02  0.46168783298E+02  0.15445350443E+03  0.12508361126E+03 0.  0.
          5    1    3    3  502    0  0.54500323693E+02 -0.39964654809E+02 -0.12117366009E+02  0.68787803248E+02  0.41800000000E+01 0.  1.
         -5    1    3    3    0  502 -0.49901856379E+02 -0.37863828225E+02  0.58286149306E+02  0.85665701181E+02  0.41800000000E+01 0.  1.
        -11    1    1    2    0    0 -0.37770781130E+02  0.61526622303E+02  0.77602153092E+01  0.72611143090E+02  0.00000000000E+00 0.  1.
         11    1    1    2    0    0  0.33172313815E+02  0.16301860731E+02  0.46347572848E+02  0.59281114835E+02  0.00000000000E+00 0. -1.
</event>
<event>
 7    1  0.2690635E-009  0.6677754E+02  0.7561462E-02  0.1371407E+00
         -1   -1    0    0    0  501 -0.00000000000E+00  0.00000000000E+00  0.34703414790E+02  0.34703414790E+02  0.00000000000E+00 0.  1.
          1   -1    0    0  501    0  0.00000000000E+00 -0.00000000000E+00 -0.35660134481E+03  0.35660134481E+03  0.00000000000E+00 0. -1.
         25    2    1    2    0    0 -0.18917879346E+02 -0.21635941946E+02 -0.17212744359E+03  0.21472232732E+03  0.12510723748E+03 0.  0.
          5    1    3    3  502    0  0.19173744999E+02 -0.18402273880E+02  0.99080029190E+01  0.28669096656E+02  0.41800000000E+01 0. -1.
         -5    1    3    3    0  502 -0.38091624346E+02 -0.32336680664E+01 -0.18203544651E+03  0.18605323066E+03  0.41800000000E+01 0. -1.
        -11    1    1    2    0    0  0.41740843787E+02  0.15870063682E+02 -0.28336245404E+02  0.52887614475E+02  0.00000000000E+00 0.  1.
         11    1    1    2    0    0 -0.22822964441E+02  0.57658782648E+01 -0.12143424103E+03  0.12369481781E+03  0.00000000000E+00 0. -1.
</event>
<event>
 7    1  0.2690635E-009  0.1949036E+03  0.7561462E-02  0.1154111E+00
         -2   -1    0    0    0  501 -0.00000000000E+00  0.00000000000E+00  0.98706887264E+02  0.98706887264E+02  0.00000000000E+00 0. -1.
          2   -1    0    0  501    0  0.00000000000E+00 -0.00000000000E+00 -0.38802890544E+03  0.38802890544E+03  0.00000000000E+00 0.  1.
         25    2    1    2    0    0  0.87986646972E+02 -0.13575493671E+03 -0.13336414722E+03  0.24413407951E+03  0.12507757644E+03 0.  0.
          5    1    3    3  502    0  0.41908942169E+02 -0.14990549293E+03 -0.95148481292E+02  0.18247937455E+03  0.41800000000E+01 0.  1.
         -5    1    3    3    0  502  0.46077704804E+02  0.14150556222E+02 -0.38215665925E+02  0.61654704958E+02  0.41800000000E+01 0.  1.
        -11    1    1    2    0    0 -0.69833932526E+01  0.94598714930E+02 -0.75394851622E+02  0.12116958488E+03  0.00000000000E+00 0.  1.
         11    1    1    2    0    0 -0.81003253720E+02  0.41156221776E+02 -0.80563019339E+02  0.12143212832E+03  0.00000000000E+00 0. -1.
</event>
<event>
 7    1  0.2690635E-009  0.1197518E+03  0.7561462E-02  0.1243507E+00
         -2   -1    0    0    0  501 -0.00000000000E+00  0.00000000000E+00  0.77572737328E+02  0.77572737328E+02  0.00000000000E+00 0. -1.
          2   -1    0    0  501    0  0.00000000000E+00 -0.00000000000E+00 -0.24164707773E+03  0.24164707773E+03  0.00000000000E+00 0.  1.
         25    2    1    2    0    0  0.37176187979E+02 -0.76207653849E+02 -0.82296185437E+02  0.17207892657E+03  0.12509524122E+03 0.  0.
          5    1    3    3  502    0  0.35804028405E+02 -0.10970551438E+03 -0.51786901159E+02  0.12655664292E+03  0.41800000000E+01 0. -1.
         -5    1    3    3    0  502  0.13721595739E+01  0.33497860530E+02 -0.30509284278E+02  0.45522283654E+02  0.41800000000E+01 0. -1.
        -11    1    1    2    0    0 -0.35995041835E+02  0.39213371418E+02 -0.94115951715E+02  0.10812559319E+03  0.00000000000E+00 0.  1.
         11    1    1    2    0    0 -0.11811461445E+01  0.36994282431E+02  0.12337796749E+02  0.39015295301E+02  0.00000000000E+00 0. -1.
</event>
<event>
 7    1  0.2690635E-009  0.1266578E+03  0.7561462E-02  0.1232501E+00
         -1   -1    0    0    0  501 -0.00000000000E+00  0.00000000000E+00  0.44246887904E+02  0.44246887904E+02  0.00000000000E+00 0.  1.
          1   -1    0    0  501    0  0.00000000000E+00 -0.00000000000E+00 -0.79596560112E+03  0.79596560112E+03  0.00000000000E+00 0. -1.
         25    2    1    2    0    0  0.85302392731E+02  0.89341481916E+02 -0.57155302948E+03  0.59797819132E+03  0.12508658279E+03 0.  0.
          5    1    3    3  502    0  0.15882571893E+02  0.20871714277E+02 -0.10595185357E+02  0.28593966139E+02  0.41800000000E+01 0.  1.
         -5    1    3    3    0  502  0.69419820838E+02  0.68469767639E+02 -0.56095784412E+03  0.56938422518E+03  0.41800000000E+01 0.  1.
        -11    1    1    2    0    0 -0.23317754341E+02 -0.51517200309E+02 -0.15563339849E+03  0.16558832785E+03  0.00000000000E+00 0.  1.
         11    1    1    2    0    0 -0.61984638391E+02 -0.37824281607E+02 -0.24532285253E+02  0.76645969856E+02  0.00000000000E+00 0. -1.
</event>
<event>
 7    1  0.2690635E-009  0.2161932E+03  0.7561462E-02  0.1136753E+00
          1   -1    0    0  501    0  0.00000000000E+00  0.00000000000E+00  0.34906844032E+03  0.34906844032E+03  0.00000000000E+00 0. -1.
         -1   -1    0    0    0  501 -0.00000000000E+00 -0.00000000000E+00 -0.18344810999E+03  0.18344810999E+03  0.00000000000E+00 0.  1.
         25    2    1    2    0    0 -0.16792161478E+03  0.11423356141E+03  0.19488212701E+03  0.30801516751E+03  0.12508926702E+03 0.  0.
          5    1    3    3  502    0 -0.12593158284E+03  0.12526333609E+03  0.10070061413E+03  0.20422476101E+03  0.41800000000E+01 0. -1.
         -5    1    3    3    0  502 -0.41990031944E+02 -0.11029774679E+02  0.94181512882E+02  0.10379040650E+03  0.41800000000E+01 0. -1.
        -11    1    1    2    0    0  0.34627891286E+02 -0.55551458023E+02 -0.42836895067E+02  0.78230779891E+02  0.00000000000E+00 0.  1.
         11    1    1    2    0    0  0.13329372350E+03 -0.58682103384E+02  0.13575098383E+02  0.14627060292E+03  0.00000000000E+00 0. -1.
</event>
<event>
 7    1  0.2690635E-009  0.1585063E+03  0.7561462E-02  0.1190394E+00
         -1   -1    0    0    0  501 -0.00000000000E+00  0.00000000000E+00  0.11979370122E+03  0.11979370122E+03  0.00000000000E+00 0.  1.
          1   -1    0    0  501    0  0.00000000000E+00 -0.00000000000E+00 -0.23252032764E+03  0.23252032764E+03  0.00000000000E+00 0. -1.
         25    2    1    2    0    0  0.10215299448E+03 -0.61676969683E+02 -0.11303938235E+03  0.20655547946E+03  0.12509189127E+03 0.  0.
          5    1    3    3  502    0 -0.26163094552E+02  0.44780510872E+01 -0.28660745124E+02  0.39287035637E+02  0.41800000000E+01 0. -1.
         -5    1    3    3    0  502  0.12831608903E+03 -0.66155020770E+02 -0.84378637226E+02  0.16726844382E+03  0.41800000000E+01 0. -1.
        -11    1    1    2    0    0  0.14877051547E+02  0.50982560234E+01  0.11286780895E+01  0.15766825661E+02  0.00000000000E+00 0. -1.
         11    1    1    2    0    0 -0.11703004602E+03  0.56578713660E+02 -0.81592216166E+00  0.12999172374E+03  0.00000000000E+00 0.  1.
</event>
<event>
 7    1  0.2690635E-009  0.8817038E+02  0.7561462E-02  0.1307344E+00
         -2   -1    0    0    0  501 -0.00000000000E+00  0.00000000000E+00  0.65928551783E+02  0.65928551783E+02  0.00000000000E+00 0.  1.
          2   -1    0    0  501    0  0.00000000000E+00 -0.00000000000E+00 -0.20168238177E+03  0.20168238177E+03  0.00000000000E+00 0. -1.
         25    2    1    2    0    0  0.26860991384E+02  0.23533537426E+01 -0.10927639712E+03  0.16827481540E+03  0.12509209167E+03 0.  0.
          5    1    3    3  502    0 -0.27986843709E+02 -0.37448389615E+02 -0.83231751120E+02  0.95554393411E+02  0.41800000000E+01 0.  1.
         -5    1    3    3    0  502  0.54847835093E+02  0.39801743357E+02 -0.26044645999E+02  0.72720421986E+02  0.41800000000E+01 0.  1.
        -11    1    1    2    0    0 -0.41999174980E+02 -0.11846988407E+02  0.21130810700E+02  0.48484976995E+02  0.00000000000E+00 0.  1.
         11    1    1    2    0    0  0.15138183596E+02  0.94936346649E+01 -0.47608243572E+02  0.50851141165E+02  0.00000000000E+00 0. -1.
</event>
<event>
 7    1  0.2690635E-009  0.1844743E+03  0.7561462E-02  0.1163542E+00
         -2   -1    0    0    0  501 -0.00000000000E+00  0.00000000000E+00  0.63055524894E+02  0.63055524894E+02  0.00000000000E+00 0.  1.
          2   -1    0    0  501    0  0.00000000000E+00 -0.00000000000E+00 -0.83167440256E+03  0.83167440256E+03  0.00000000000E+00 0. -1.
         25    2    1    2    0    0  0.15863952258E+03  0.78346890516E+02 -0.21017194159E+03  0.30187201535E+03  0.12509890184E+03 0.  0.
          5    1    3    3  502    0  0.20320793048E+02  0.32418752654E+02 -0.12979331976E+03  0.13537979321E+03  0.41800000000E+01 0.  1.
         -5    1    3    3    0  502  0.13831872953E+03  0.45928137862E+02 -0.80378621827E+02  0.16649222214E+03  0.41800000000E+01 0.  1.
        -11    1    1    2    0    0 -0.76652662329E+01  0.77140450203E+01 -0.36347136303E+01  0.11466208622E+02  0.00000000000E+00 0.  1.
         11    1    1    2    0    0 -0.15097425635E+03 -0.86060935537E+02 -0.55481222245E+03  0.58139170349E+03  0.00000000000E+00 0. -1.
</event>
<event>
 7    1  0.2690635E-009  0.1203701E+03  0.7561462E-02  0.1242488E+00
          2   -1    0    0  501    0  0.00000000000E+00  0.00000000000E+00  0.17196232243E+03  0.17196232243E+03  0.00000000000E+00 0. -1.
         -2   -1    0    0    0  501 -0.00000000000E+00 -0.00000000000E+00 -0.94745891205E+02  0.94745891205E+02  0.00000000000E+00 0.  1.
         25    2    1    2    0    0 -0.66843704606E+02 -0.21871390110E+01  0.28970089891E+02  0.14477398671E+03  0.12508947477E+03 0.  0.
          5    1    3    3  502    0 -0.97986206112E+02  0.73800026151E+00 -0.52569921772E+01  0.98218886165E+02  0.41800000000E+01 0. -1.
         -5    1    3    3    0  502  0.31142501506E+02 -0.29251392725E+01  0.34227082069E+02  0.46555100545E+02  0.41800000000E+01 0. -1.
        -11    1    1    2    0    0  0.78200877701E+02  0.27873002947E+02  0.42506998897E+02  0.93269108078E+02  0.00000000000E+00 0. -1.
         11    1    1    2    0    0 -0.11357173095E+02 -0.25685863936E+02  0.57393424364E+01  0.28665118846E+02  0.00000000000E+00 0.  1.
</event>
<event>
 7    1  0.2690635E-009  0.1349174E+03  0.7561462E-02  0.1220336E+00
          2   -1    0    0  501    0  0.00000000000E+00  0.00000000000E+00  0.60736408897E+03  0.60736408897E+03  0.00000000000E+00 0.  1.
         -2   -1    0    0    0  501 -0.00000000000E+00 -0.00000000000E+00 -0.38378920451E+02  0.38378920451E+02  0.00000000000E+00 0. -1.
         25    2    1    2    0    0  0.10577186446E+03 -0.12135467881E+01  0.28731871859E+03  0.33074049047E+03  0.12509222988E+03 0.  0.
          5    1    3    3  502    0  0.63879891155E+02 -0.51266535202E+02  0.22852013737E+03  0.24279172908E+03  0.41800000000E+01 0. -1.
         -5    1    3    3    0  502  0.41891973303E+02  0.50052988414E+02  0.58798581224E+02  0.87948761392E+02  0.41800000000E+01 0. -1.
        -11    1    1    2    0    0 -0.81868547303E+02  0.27991352479E+02  0.11171494478E+03  0.14130181789E+03  0.00000000000E+00 0. -1.
         11    1    1    2    0    0 -0.23903317155E+02 -0.26777805691E+02  0.16995150515E+03  0.17370070107E+03  0.00000000000E+00 0.  1.
</event>
<event>
 7    1  0.2690635E-009  0.1633065E+03  0.7561462E-02  0.1185014E+00
          4   -1    0    0  501    0  0.00000000000E+00  0.00000000000E+00  0.10077710420E+04  0.10077710420E+04  0.00000000000E+00 0. -1.
         -4   -1    0    0    0  501 -0.00000000000E+00 -0.00000000000E+00 -0.49156215414E+02  0.49156215414E+02  0.00000000000E+00 0.  1.
         25    2    1    2    0    0 -0.28310845141E+02 -0.14752042384E+03  0.78658993791E+03  0.81051530633E+03  0.12509017535E+03 0.  0.
          5    1    3    3  502    0 -0.23138927226E+02 -0.57957014884E+02  0.60196251120E+03  0.60520307569E+03  0.41800000000E+01 0.  1.
         -5    1    3    3    0  502 -0.51719179152E+01 -0.89563408953E+02  0.18462742671E+03  0.20531223064E+03  0.41800000000E+01 0. -1.
        -11    1    1    2    0    0  0.12576428010E+02 -0.99294767111E+01  0.28930861491E+02  0.33071979014E+02  0.00000000000E+00 0.  1.
         11    1    1    2    0    0  0.15734417131E+02  0.15744990055E+03  0.14309402716E+03  0.21333997205E+03  0.00000000000E+00 0. -1.
</event>
<event>
 7    1  0.2690635E-009  0.1283265E+03  0.7561462E-02  0.1229960E+00
          1   -1    0    0  501    0  0.00000000000E+00  0.00000000000E+00  0.40588523535E+03  0.40588523535E+03  0.00000000000E+00 0. -1.
         -1   -1    0    0    0  501 -0.00000000000E+00 -0.00000000000E+00 -0.11787634443E+03  0.11787634443E+03  0.00000000000E+00 0.  1.
         25    2    1    2    0    0  0.54128782121E+02 -0.77503254916E+02 -0.47005218768E+02  0.16368866254E+03  0.12509119904E+03 0.  0.
          5    1    3    3  502    0  0.16702328132E+02 -0.88105622404E+02 -0.73846944286E+02  0.11624290105E+03  0.41800000000E+01 0.  1.
         -5    1    3    3    0  502  0.37426453989E+02  0.10602367487E+02  0.26841725518E+02  0.47445761490E+02  0.41800000000E+01 0.  1.
        -11    1    1    2    0    0 -0.19261835720E+02 -0.17830638480E+02  0.11213641198E+03  0.11516737765E+03  0.00000000000E+00 0. -1.
         11    1    1    2    0    0 -0.34866946401E+02  0.95333893396E+02  0.22287769771E+03  0.24490553958E+03  0.00000000000E+00 0.  1.
</event>
<event>
 7    1  0.2690635E-009  0.1224021E+03  0.7561462E-02  0.1239186E+00
          2   -1    0    0  501    0  0.00000000000E+00  0.00000000000E+00  0.15425746056E+03  0.15425746056E+03  0.00000000000E+00 0. -1.
         -2   -1    0    0    0  501 -0.00000000000E+00 -0.00000000000E+00 -0.12640760249E+03  0.12640760249E+03  0.00000000000E+00 0.  1.
         25    2    1    2    0    0 -0.15133987212E+02  0.72557836202E+02  0.79282593243E+01  0.14561288505E+03  0.12508628156E+03 0.  0.
          5    1    3    3  502    0 -0.44914505094E+02  0.79000301159E+02 -0.30903552327E+02  0.96077376616E+02  0.41800000000E+01 0.  1.
         -5    1    3    3    0  502  0.29780517881E+02 -0.64424649568E+01  0.38831811651E+02  0.49535508437E+02  0.41800000000E+01 0.  1.
        -11    1    1    2    0    0 -0.26283928979E+02 -0.77056802352E+02 -0.12357935676E+02  0.82348735785E+02  0.00000000000E+00 0.  1.
         11    1    1    2    0    0  0.41417916191E+02  0.44989661496E+01  0.32279534423E+02  0.52703442208E+02  0.00000000000E+00 0. -1.
</event>
<event>
 7    1  0.2690635E-009  0.2182292E+03  0.7561462E-02  0.1135210E+00
          1   -1    0    0  501    0  0.00000000000E+00  0.00000000000E+00  0.19647897245E+04  0.19647897245E+04  0.00000000000E+00 0.  1.
         -1   -1    0    0    0  501 -0.00000000000E+00 -0.00000000000E+00 -0.26198002405E+02  0.26198002405E+02  0.00000000000E+00 0. -1.
         25    2    1    2    0    0 -0.19664447152E+03 -0.42926573310E+02  0.10440571994E+04  0.10706142262E+04  0.12509055520E+03 0.  0.
          5    1    3    3  502    0 -0.56517252964E+02  0.28242076058E+02  0.14965509721E+03  0.16249903158E+03  0.41800000000E+01 0.  1.
         -5    1    3    3    0  502 -0.14012721856E+03 -0.71168649368E+02  0.89440210216E+03  0.90811519467E+03  0.41800000000E+01 0.  1.
        -11    1    1    2    0    0  0.12795710670E+03 -0.11231909053E+02  0.56620094003E+03  0.58058822019E+03  0.00000000000E+00 0.  1.
         11    1    1    2    0    0  0.68687364824E+02  0.54158482363E+02  0.32833358266E+03  0.33978528043E+03  0.00000000000E+00 0. -1.
</event>
<event>
 7    1  0.2690635E-009  0.1229588E+03  0.7561462E-02  0.1238294E+00
         -2   -1    0    0    0  501 -0.00000000000E+00  0.00000000000E+00  0.17357874426E+03  0.17357874426E+03  0.00000000000E+00 0.  1.
          2   -1    0    0  501    0  0.00000000000E+00 -0.00000000000E+00 -0.92937003079E+02  0.92937003079E+02  0.00000000000E+00 0. -1.
         25    2    1    2    0    0 -0.60117616532E+02 -0.88202802179E+00  0.27040158998E+02  0.14140143643E+03  0.12509312625E+03 0.  0.
          5    1    3    3  502    0 -0.62258171880E+02  0.54338222494E+02  0.22769689515E+02  0.85817559685E+02  0.41800000000E+01 0.  1.
         -5    1    3    3    0  502  0.21405553477E+01 -0.55220250516E+02  0.42704694827E+01  0.55583876743E+02  0.41800000000E+01 0.  1.
        -11    1    1    2    0    0 -0.16946572585E+02 -0.21623578365E+02 -0.18613712175E+01  0.27535979490E+02  0.00000000000E+00 0. -1.
         11    1    1    2    0    0  0.77064189117E+02  0.22505606386E+02  0.55462953405E+02  0.97578331424E+02  0.00000000000E+00 0.  1.
</event>
<event>
 7    1  0.2690635E-009  0.1209280E+03  0.7561462E-02  0.1241574E+00
         -1   -1    0    0    0  501 -0.00000000000E+00  0.00000000000E+00  0.19103663518E+02  0.19103663518E+02  0.00000000000E+00 0.  1.
          1   -1    0    0  501    0  0.00000000000E+00 -0.00000000000E+00 -0.13639100347E+04  0.13639100347E+04  0.00000000000E+00 0. -1.
         25    2    1    2    0    0  0.31736885875E+02  0.82998133724E+02 -0.10692636651E+04  0.10802148784E+04  0.12507389032E+03 0.  0.
          5    1    3    3  502    0 -0.26817817241E+02  0.10018116406E+02 -0.64885111397E+03  0.64949580328E+03  0.41800000000E+01 0.  1.
         -5    1    3    3    0  502  0.58554703116E+02  0.72980017317E+02 -0.42041255108E+03  0.43071907514E+03  0.41800000000E+01 0.  1.
        -11    1    1    2    0    0  0.95771207010E+01 -0.76910380050E+02 -0.12967663273E+03  0.15107268739E+03  0.00000000000E+00 0.  1.
         11    1    1    2    0    0 -0.41314006576E+02 -0.60877536740E+01 -0.14586607339E+03  0.15172613239E+03  0.00000000000E+00 0. -1.
</event>
<event>
 7    1  0.2690635E-009  0.1147524E+03  0.7561462E-02  0.1252014E+00
          1   -1    0    0  501    0  0.00000000000E+00  0.00000000000E+00  0.68057090076E+03  0.68057090076E+03  0.00000000000E+00 0. -1.
         -1   -1    0    0    0  501 -0.00000000000E+00 -0.00000000000E+00 -0.22084238997E+02  0.22084238997E+02  0.00000000000E+00 0.  1.
         25    2    1    2    0    0  0.13514671085E+02  0.43078118371E+02  0.26534610385E+03  0.29680599077E+03  0.12508745226E+03 0.  0.
          5    1    3    3  502    0 -0.41321899361E+02  0.61384903549E+02  0.13149371417E+03  0.15094262160E+03  0.41800000000E+01 0.  1.
         -5    1    3    3    0  502  0.54836570447E+02 -0.18306785178E+02  0.13385238968E+03  0.14586336917E+03  0.41800000000E+01 0.  1.
        -11    1    1    2    0    0  0.36777560526E+02 -0.14131292592E+02  0.11051271702E+03  0.11732579858E+03  0.00000000000E+00 0.  1.
         11    1    1    2    0    0 -0.50292231611E+02 -0.28946825779E+02  0.28262784090E+03  0.28852335041E+03  0.00000000000E+00 0. -1.
</event>
<event>
 7    1  0.2690635E-009  0.2269278E+03  0.7561462E-02  0.1128821E+00
         -2   -1    0    0    0  501 -0.00000000000E+00  0.00000000000E+00  0.19781046274E+03  0.19781046274E+03  0.00000000000E+00 0.  1.
          2   -1    0    0  501    0  0.00000000000E+00 -0.00000000000E+00 -0.28322050043E+03  0.28322050043E+03  0.00000000000E+00 0. -1.
         25    2    1    2    0    0  0.19449561538E+03  0.75262976902E+02 -0.66843828265E+02  0.25220589523E+03  0.12508659447E+03 0.  0.
          5    1    3    3  502    0 -0.12770494744E+02  0.82957453165E+01  0.12717932565E+02  0.20276171608E+02  0.41800000000E+01 0.  1.
         -5    1    3    3    0  502  0.20726611013E+03  0.66967231586E+02 -0.79561760829E+02  0.23192972362E+03  0.41800000000E+01 0.  1.
        -11    1    1    2    0    0 -0.10381739378E+03 -0.23379716567E+01 -0.38529103614E+02  0.11076104544E+03  0.00000000000E+00 0. -1.
         11    1    1    2    0    0 -0.90678221607E+02 -0.72925005246E+02  0.19962894182E+02  0.11806402250E+03  0.00000000000E+00 0.  1.
</event>
<event>
 7    1  0.2690635E-009  0.1485094E+03  0.7561462E-02  0.1202317E+00
         -1   -1    0    0    0  501 -0.00000000000E+00  0.00000000000E+00  0.14713695523E+03  0.14713695523E+03  0.00000000000E+00 0.  1.
          1   -1    0    0  501    0  0.00000000000E+00 -0.00000000000E+00 -0.19579363731E+03  0.19579363731E+03  0.00000000000E+00 0. -1.
         25    2    1    2    0    0 -0.12795122484E+03 -0.17613981524E+02 -0.12048495572E+02  0.18020689052E+03  0.12509032282E+03 0.  0.
          5    1    3    3  502    0 -0.87171722625E+02  0.34641123144E+02 -0.47168442013E+02  0.10507735703E+03  0.41800000000E+01 0. -1.
         -5    1    3    3    0  502 -0.40779502212E+02 -0.52255104668E+02  0.35119946441E+02  0.75129533490E+02  0.41800000000E+01 0. -1.
        -11    1    1    2    0    0  0.80707563401E+02 -0.11031402561E+02  0.19732221181E+02  0.83813860342E+02  0.00000000000E+00 0. -1.
         11    1    1    2    0    0  0.47243661435E+02  0.28645384085E+02 -0.56340407686E+02  0.78909841676E+02  0.00000000000E+00 0.  1.
</event>
<event>
 7    1  0.2690635E-009  0.1102360E+03  0.7561462E-02  0.1260133E+00
         -1   -1    0    0    0  501 -0.00000000000E+00  0.00000000000E+00  0.17258349130E+02  0.17258349130E+02  0.00000000000E+00 0.  1.
          1   -1    0    0  501    0  0.00000000000E+00 -0.00000000000E+00 -0.19360860711E+04  0.19360860711E+04  0.00000000000E+00 0. -1.
         25    2    1    2    0    0  0.50954461974E+02 -0.72205576098E+02 -0.16262836003E+04  0.16334797232E+04  0.12509058724E+03 0.  0.
          5    1    3    3  502    0 -0.83352550010E+00 -0.10427863448E+02 -0.96537788394E+01  0.14835866902E+02  0.41800000000E+01 0. -1.
         -5    1    3    3    0  502  0.51787987474E+02 -0.61777712650E+02 -0.16166298215E+04  0.16186438563E+04  0.41800000000E+01 0. -1.
        -11    1    1    2    0    0 -0.23450933401E+02  0.91779139067E+02 -0.19847805701E+03  0.21992475022E+03  0.00000000000E+00 0.  1.
         11    1    1    2    0    0 -0.27503528573E+02 -0.19573562969E+02 -0.94066064621E+02  0.99939946791E+02  0.00000000000E+00 0. -1.
</event>
<event>
 7    1  0.2690635E-009  0.1095068E+03  0.7561462E-02  0.1261486E+00
         -3   -1    0    0    0  501 -0.00000000000E+00  0.00000000000E+00  0.21360430199E+02  0.21360430199E+02  0.00000000000E+00 0.  1.
          3   -1    0    0  501    0  0.00000000000E+00 -0.00000000000E+00 -0.10205325416E+04  0.10205325416E+04  0.00000000000E+00 0. -1.
         25    2    1    2    0    0 -0.17911865187E+02 -0.99145831855E+02 -0.52955501099E+03  0.55337752086E+03  0.12508972793E+03 0.  0.
          5    1    3    3  502    0  0.15560436036E+02 -0.72033561851E+02 -0.48741648011E+03  0.49297389250E+03  0.41800000000E+01 0.  1.
         -5    1    3    3    0  502 -0.33472301223E+02 -0.27112270004E+02 -0.42138530880E+02  0.60403628356E+02  0.41800000000E+01 0.  1.
        -11    1    1    2    0    0  0.20569912468E+02  0.80421880541E+02 -0.45975093495E+03  0.46718489098E+03  0.00000000000E+00 0. -1.
         11    1    1    2    0    0 -0.26580472820E+01  0.18723951314E+02 -0.98661654830E+01  0.21330559990E+02  0.00000000000E+00 0.  1.
</event>
<event>
 7    1  0.2690635E-009  0.9074173E+02  0.7561462E-02  0.1301065E+00
          4   -1    0    0  501    0  0.00000000000E+00  0.00000000000E+00  0.30621560469E+02  0.30621560469E+02  0.00000000000E+00 0. -1.
         -4   -1    0    0    0  501 -0.00000000000E+00 -0.00000000000E+00 -0.47232419834E+03  0.47232419834E+03  0.00000000000E+00 0.  1.
         25    2    1    2    0    0  0.93018591084E+01 -0.39151149604E+02 -0.18025799270E+03  0.22306726857E+03  0.12508687092E+03 0.  0.
          5    1    3    3  502    0  0.14898709443E+02  0.21406132556E+02 -0.15474787821E+03  0.15698589829E+03  0.41800000000E+01 0.  1.
         -5    1    3    3    0  502 -0.55968503351E+01 -0.60557282160E+02 -0.25510114494E+02  0.66081370278E+02  0.41800000000E+01 0.  1.
        -11    1    1    2    0    0 -0.44100148123E+02  0.39658097607E+02 -0.11545151727E+03  0.12979460933E+03  0.00000000000E+00 0. -1.
         11    1    1    2    0    0  0.34798289014E+02 -0.50694800377E+00 -0.14599312790E+03  0.15008388090E+03  0.00000000000E+00 0.  1.
</event>
<event>
 7    1  0.2690635E-009  0.1065677E+03  0.7561462E-02  0.1267061E+00
         -2   -1    0    0    0  501 -0.00000000000E+00  0.00000000000E+00  0.44961167695E+02  0.44961167695E+02  0.00000000000E+00 0. -1.
          2   -1    0    0  501    0  0.00000000000E+00 -0.00000000000E+00 -0.32917790722E+03  0.32917790722E+03  0.00000000000E+00 0.  1.
         25    2    1    2    0    0 -0.48800577226E+02 -0.23326945470E+02 -0.16309785994E+03  0.21253884191E+03  0.12508478996E+03 0.  0.
          5    1    3    3  502    0 -0.50554457555E+02  0.44969350179E+02 -0.78514286277E+02  0.10373023274E+03  0.41800000000E+01 0.  1.
         -5    1    3    3    0  502  0.17538803289E+01 -0.68296295649E+02 -0.84583573663E+02  0.10880860917E+03  0.41800000000E+01 0.  1.
        -11    1    1    2    0    0  0.37479389129E+02  0.41228419697E+02 -0.12777760725E+03  0.13939728876E+03  0.00000000000E+00 0.  1.
         11    1    1    2    0    0  0.11321188097E+02 -0.17901474227E+02  0.66587276576E+01  0.22202944252E+02  0.00000000000E+00 0. -1.
</event>
<event>
 7    1  0.2690635E-009  0.1286856E+03  0.7561462E-02  0.1229419E+00
          1   -1    0    0  501    0  0.00000000000E+00  0.00000000000E+00  0.23641662783E+03  0.23641662783E+03  0.00000000000E+00 0. -1.
         -1   -1    0    0    0  501 -0.00000000000E+00 -0.00000000000E+00 -0.19875808169E+03  0.19875808169E+03  0.00000000000E+00 0.  1.
         25    2    1    2    0    0 -0.46553574512E+02 -0.10868105279E+03 -0.12767160351E+03  0.21430411149E+03  0.12508959718E+03 0.  0.
          5    1    3    3  502    0 -0.19826080120E+01 -0.85574966362E+02 -0.13841063411E+03  0.16279429240E+03  0.41800000000E+01 0.  1.
         -5    1    3    3    0  502 -0.44570966500E+02 -0.23106086428E+02  0.10739030599E+02  0.51509819093E+02  0.41800000000E+01 0.  1.
        -11    1    1    2    0    0  0.34785486948E+02  0.46847596242E+02  0.18653915874E+02  0.61259251981E+02  0.00000000000E+00 0.  1.
         11    1    1    2    0    0  0.11768087564E+02  0.61833456548E+02  0.14667623378E+03  0.15961134605E+03  0.00000000000E+00 0. -1.
</event>
<event>
 7    1  0.2690635E-009  0.1219901E+03  0.7561462E-02  0.1239850E+00
         -1   -1    0    0    0  501 -0.00000000000E+00  0.00000000000E+00  0.28011343194E+02  0.28011343194E+02  0.00000000000E+00 0.  1.
          1   -1    0    0  501    0  0.00000000000E+00 -0.00000000000E+00 -0.76847450283E+03  0.76847450283E+03  0.00000000000E+00 0. -1.
         25    2    1    2    0    0 -0.21042308444E+02 -0.65151985577E+02 -0.59742827797E+03  0.61421099798E+03  0.12508813992E+03 0.  0.
          5    1    3    3  502    0 -0.39998211663E+02  0.25162084033E+02 -0.26372715150E+03  0.26795982954E+03  0.41800000000E+01 0. -1.
         -5    1    3    3    0  502  0.18955903219E+02 -0.90314069610E+02 -0.33370112647E+03  0.34625116843E+03  0.41800000000E+01 0. -1.
        -11    1    1    2    0    0 -0.27481311606E+02  0.68698794790E+01 -0.75816531048E+02  0.80935555301E+02  0.00000000000E+00 0. -1.
         11    1    1    2    0    0  0.48523620050E+02  0.58282106098E+02 -0.67218350611E+02  0.10133929274E+03  0.00000000000E+00 0.  1.
</event>
<event>
 7    1  0.2690635E-009  0.2130123E+03  0.7561462E-02  0.1139203E+00
         -2   -1    0    0    0  501 -0.00000000000E+00  0.00000000000E+00  0.17831457949E+03  0.17831457949E+03  0.00000000000E+00 0.  1.
          2   -1    0    0  501    0  0.00000000000E+00 -0.00000000000E+00 -0.47813768703E+03  0.47813768703E+03  0.00000000000E+00 0. -1.
         25    2    1    2    0    0  0.87811746809E+02 -0.17072386163E+03  0.62519406010E+02  0.23751386607E+03  0.12508645266E+03 0.  0.
          5    1    3    3  502    0 -0.10792128210E+02  0.62279617220E+01 -0.15568024687E+02  0.20373839382E+02  0.41800000000E+01 0.  1.
         -5    1    3    3    0  502  0.98603875019E+02 -0.17695182335E+03  0.78087430697E+02  0.21714002669E+03  0.41800000000E+01 0.  1.
        -11    1    1    2    0    0 -0.90213273235E+02  0.83231551274E+02 -0.20945187714E+03  0.24276740851E+03  0.00000000000E+00 0.  1.
         11    1    1    2    0    0  0.24015264261E+01  0.87492310358E+02 -0.15289063641E+03  0.17617099194E+03  0.00000000000E+00 0. -1.
</event>
<event>
 7    1  0.2690635E-009  0.1612579E+03  0.7561462E-02  0.1187284E+00
          2   -1    0    0  501    0  0.00000000000E+00  0.00000000000E+00  0.12565613740E+04  0.12565613740E+04  0.00000000000E+00 0. -1.
         -2   -1    0    0    0  501 -0.00000000000E+00 -0.00000000000E+00 -0.51442381829E+02  0.51442381829E+02  0.00000000000E+00 0.  1.
         25    2    1    2    0    0 -0.10034071578E+03  0.11279556231E+03  0.10649415564E+04  0.10828385971E+04  0.12509120961E+03 0.  0.
          5    1    3    3  502    0 -0.58844039526E+02  0.54797646988E+02  0.89334523804E+03  0.89696632592E+03  0.41800000000E+01 0. -1.
         -5    1    3    3    0  502 -0.41496676253E+02  0.57997915323E+02  0.17159631832E+03  0.18587227115E+03  0.41800000000E+01 0.  1.
        -11    1    1    2    0    0 -0.68067635538E+01 -0.41056167196E+02  0.11910620409E+02  0.43287455151E+02  0.00000000000E+00 0.  1.
         11    1    1    2    0    0  0.10714747933E+03 -0.71739395116E+02  0.12826681542E+03  0.18187770363E+03  0.00000000000E+00 0. -1.
</event>
<event>
 7    1  0.2690635E-009  0.1016827E+03  0.7561462E-02  0.1276797E+00
         -2   -1    0    0    0  501 -0.00000000000E+00  0.00000000000E+00  0.53048656853E+02  0.53048656853E+02  0.00000000000E+00 0. -1.
          2   -1    0    0  501    0  0.00000000000E+00 -0.00000000000E+00 -0.28553199256E+03  0.28553199256E+03  0.00000000000E+00 0.  1.
         25    2    1    2    0    0  0.36880685020E+02  0.40487499160E+02 -0.16016384364E+03  0.21048237596E+03  0.12510376199E+03 0.  0.
          5    1    3    3  502    0  0.76644415237E+00 -0.23705055868E+02 -0.12758210479E+03  0.12983521468E+03  0.41800000000E+01 0. -1.
         -5    1    3    3    0  502  0.36114240868E+02  0.64192555029E+02 -0.32581738854E+02  0.80647161272E+02  0.41800000000E+01 0. -1.
        -11    1    1    2    0    0  0.27414069678E+02 -0.29520756945E+02 -0.31673046183E+02  0.51246347786E+02  0.00000000000E+00 0.  1.
         11    1    1    2    0    0 -0.64294754698E+02 -0.10966742215E+02 -0.40646445886E+02  0.76851925673E+02  0.00000000000E+00 0. -1.
</event>
<event>
 7    1  0.2690635E-009  0.1055501E+03  0.7561462E-02  0.1269039E+00
         -1   -1    0    0    0  501 -0.00000000000E+00  0.00000000000E+00  0.78663126689E+01  0.78663126689E+01  0.00000000000E+00 0.  1.
          1   -1    0    0  501    0  0.00000000000E+00 -0.00000000000E+00 -0.16874017734E+04  0.16874017734E+04  0.00000000000E+00 0. -1.
         25    2    1    2    0    0 -0.26841508475E+02 -0.79105046162E+01 -0.11764571700E+04  0.11834194843E+04  0.12508860988E+03 0.  0.
          5    1    3    3  502    0 -0.25153390002E+02  0.51427678196E+02 -0.82198068554E+03  0.82398253557E+03  0.41800000000E+01 0.  1.
         -5    1    3    3    0  502 -0.16881184732E+01 -0.59338182812E+02 -0.35447648448E+03  0.35943694876E+03  0.41800000000E+01 0.  1.
        -11    1    1    2    0    0  0.41822347502E+02  0.40564336388E+02 -0.29665210231E+03  0.30231944023E+03  0.00000000000E+00 0.  1.
         11    1    1    2    0    0 -0.14980839027E+02 -0.32653831772E+02 -0.20642618840E+03  0.20952916152E+03  0.00000000000E+00 0. -1.
</event>
<event>
 7    1  0.2690635E-009  0.8463565E+02  0.7561462E-02  0.1316388E+00
          1   -1    0    0  501    0  0.00000000000E+00  0.00000000000E+00  0.69222274709E+03  0.69222274709E+03  0.00000000000E+00 0.  1.
         -1   -1    0    0    0  501 -0.00000000000E+00 -0.00000000000E+00 -0.19684080571E+02  0.19684080571E+02  0.00000000000E+00 0. -1.
         25    2    1    2    0    0  0.20798895143E+02 -0.41500299927E+02  0.39772496395E+03  0.41951133079E+03  0.12509892396E+03 0.  0.
          5    1    3    3  502    0  0.33014028252E+02 -0.47426763841E+02  0.40080888418E+03  0.40497463875E+03  0.41800000000E+01 0.  1.
         -5    1    3    3    0  502 -0.12215133109E+02  0.59264639137E+01 -0.30839202322E+01  0.14536692038E+02  0.41800000000E+01 0.  1.
        -11    1    1    2    0    0  0.22383977025E+02  0.48467949563E+02  0.11649829041E+03  0.12814849289E+03  0.00000000000E+00 0. -1.
         11    1    1    2    0    0 -0.43182872168E+02 -0.69676496355E+01  0.15831541216E+03  0.16424700398E+03  0.00000000000E+00 0.  1.
</event>
<event>
 7    1  0.2690635E-009  0.9277813E+02  0.7561462E-02  0.1296260E+00
          2   -1    0    0  501    0  0.00000000000E+00  0.00000000000E+00  0.14083739361E+04  0.14083739361E+04  0.00000000000E+00 0. -1.
         -2   -1    0    0    0  501 -0.00000000000E+00 -0.00000000000E+00 -0.28125906763E+02  0.28125906763E+02  0.00000000000E+00 0.  1.
         25    2    1    2    0    0 -0.47994925784E+02  0.44222432869E+02  0.12747408067E+04  0.12825249096E+04  0.12508750132E+03 0.  0.
          5    1    3    3  502    0 -0.71007432599E+02  0.38695926488E+01  0.10771889524E+04  0.10795418198E+04  0.41800000000E+01 0.  1.
         -5    1    3    3    0  502  0.23012506816E+02  0.40352840220E+02  0.19755185432E+03  0.20298308976E+03  0.41800000000E+01 0.  1.
        -11    1    1    2    0    0  0.41209020785E+02 -0.27258207343E+02  0.12056648742E+03  0.13029762526E+03  0.00000000000E+00 0. -1.
         11    1    1    2    0    0  0.67859049989E+01 -0.16964225526E+02 -0.15059264836E+02  0.23677307950E+02  0.00000000000E+00 0.  1.
</event>
