<event>
 7    1  0.7800420E-006  0.2141350E+03  0.7546771E-02  0.1141783E+00
         -2   -1    0    0    0  501 -0.00000000000E+00  0.00000000000E+00  0.32979290369E+02  0.32979290369E+02  0.00000000000E+00 0.  1.
          2   -1    0    0  501    0  0.00000000000E+00 -0.00000000000E+00 -0.13215935675E+04  0.13215935675E+04  0.00000000000E+00 0. -1.
         23    2    1    2    0    0 -0.15635355361E+03  0.76050992595E+02 -0.78802852664E+03  0.81660439408E+03  0.12499436160E+03 0.  0.
          5    1    3    3  502    0 -0.95816134491E+02 -0.15031793209E+02 -0.26466711930E+03  0.28191747103E+03  0.47000000000E+01 0.  1.
         -5    1    3    3    0  502 -0.60537419116E+02  0.91082785804E+02 -0.52336140734E+03  0.53468692305E+03  0.47000000000E+01 0.  1.
        -11    1    1    2    0    0  0.16484624333E+03 -0.57390088231E+02 -0.42026018090E+03  0.45506760576E+03  0.00000000000E+00 0.  1.
         11    1    1    2    0    0 -0.84926897263E+01 -0.18660904364E+02 -0.80325569561E+02  0.82900857992E+02  0.00000000000E+00 0. -1.
<mgrwt>
<rscale>  0 0.20972643E+03</rscale>
<asrwt>0</asrwt>
<pdfrwt beam="2">  1        2 0.20332212E+00 0.21413495E+03</pdfrwt>
<pdfrwt beam="1">  1       -2 0.50737361E-02 0.21413495E+03</pdfrwt>
<totfact> 0.32585823E+03</totfact>
</mgrwt>
</event>
<event>
 7    1  0.7800420E-006  0.1263721E+03  0.7546771E-02  0.1247845E+00
          2   -1    0    0  501    0  0.00000000000E+00  0.00000000000E+00  0.24509312579E+02  0.24509312579E+02  0.00000000000E+00 0. -1.
         -2   -1    0    0    0  501 -0.00000000000E+00 -0.00000000000E+00 -0.50608008233E+03  0.50608008233E+03  0.00000000000E+00 0.  1.
         23    2    1    2    0    0  0.26911648359E+01 -0.18354721120E+02 -0.23313873155E+03  0.26518593674E+03  0.12500309893E+03 0.  0.
          5    1    3    3  502    0  0.11218191023E+02 -0.68319566249E+02 -0.17297939246E+03  0.18637964255E+03  0.47000000000E+01 0.  1.
         -5    1    3    3    0  502 -0.85270261867E+01  0.49964845129E+02 -0.60159339088E+02  0.78806294190E+02  0.47000000000E+01 0.  1.
        -11    1    1    2    0    0  0.15031567819E+02  0.41920937478E+02 -0.21992892910E+03  0.22439261771E+03  0.00000000000E+00 0.  1.
         11    1    1    2    0    0 -0.17722732655E+02 -0.23566216358E+02 -0.28503109109E+02  0.41010840458E+02  0.00000000000E+00 0. -1.
<mgrwt>
<rscale>  0 0.11716725E+03</rscale>
<asrwt>0</asrwt>
<pdfrwt beam="1">  1        2 0.37706633E-02 0.12637212E+03</pdfrwt>
<pdfrwt beam="2">  1       -2 0.77858477E-01 0.12637212E+03</pdfrwt>
<totfact> 0.32907768E+03</totfact>
</mgrwt>
</event>
<event>
 7    1  0.7800420E-006  0.1394925E+03  0.7546771E-02  0.1225330E+00
          1   -1    0    0  501    0  0.00000000000E+00  0.00000000000E+00  0.23540363747E+02  0.23540363747E+02  0.00000000000E+00 0. -1.
         -1   -1    0    0    0  501 -0.00000000000E+00 -0.00000000000E+00 -0.72661499041E+03  0.72661499041E+03  0.00000000000E+00 0.  1.
         23    2    1    2    0    0  0.14871742314E+02  0.60104514449E+02 -0.27732436450E+03  0.31043026350E+03  0.12499769588E+03 0.  0.
          5    1    3    3  502    0  0.43617142795E+02  0.38013456847E+02 -0.26585203597E+03  0.27211555097E+03  0.47000000000E+01 0. -1.
         -5    1    3    3    0  502 -0.28745400481E+02  0.22091057602E+02 -0.11472328528E+02  0.38314712535E+02  0.47000000000E+01 0. -1.
        -11    1    1    2    0    0  0.34995761721E+02 -0.34563948682E+02 -0.26408069378E+03  0.26862237940E+03  0.00000000000E+00 0. -1.
         11    1    1    2    0    0 -0.49867504035E+02 -0.25540565767E+02 -0.16166956838E+03  0.17110271126E+03  0.00000000000E+00 0.  1.
<mgrwt>
<rscale>  0 0.13144322E+03</rscale>
<asrwt>0</asrwt>
<pdfrwt beam="1">  1        1 0.36215947E-02 0.13949246E+03</pdfrwt>
<pdfrwt beam="2">  1       -1 0.11178691E+00 0.13949246E+03</pdfrwt>
<totfact> 0.19858970E+03</totfact>
</mgrwt>
</event>
<event>
 7    1  0.7800420E-006  0.1376402E+03  0.7546771E-02  0.1236101E+00
          2   -1    0    0  501    0  0.00000000000E+00  0.00000000000E+00  0.71952521126E+03  0.71952521126E+03  0.00000000000E+00 0. -1.
         -2   -1    0    0    0  501 -0.00000000000E+00 -0.00000000000E+00 -0.19131079425E+02  0.19131079425E+02  0.00000000000E+00 0.  1.
         23    2    1    2    0    0 -0.57519388163E+02 -0.33943222949E+01  0.49405105941E+03  0.51286573336E+03  0.12499923885E+03 0.  0.
          5    1    3    3  502    0 -0.12808135140E+02 -0.28923037892E+01 -0.25974659700E+01  0.14186281276E+02  0.47000000000E+01 0.  1.
         -5    1    3    3    0  502 -0.44711253022E+02 -0.50201850572E+00  0.49664852538E+03  0.49867945209E+03  0.47000000000E+01 0.  1.
        -11    1    1    2    0    0  0.10949359567E+02 -0.25753177337E+02  0.12173511331E+03  0.12491017745E+03  0.00000000000E+00 0. -1.
         11    1    1    2    0    0  0.46570028596E+02  0.29147499632E+02  0.84607959118E+02  0.10088037988E+03  0.00000000000E+00 0.  1.
<mgrwt>
<rscale>  0 0.12434234E+03</rscale>
<asrwt>0</asrwt>
<pdfrwt beam="1">  1        2 0.11069616E+00 0.13764015E+03</pdfrwt>
<pdfrwt beam="2">  1       -2 0.29432436E-02 0.13764015E+03</pdfrwt>
<totfact> 0.16795764E+04</totfact>
</mgrwt>
</event>
<event>
 7    1  0.7800420E-006  0.1624969E+03  0.7546771E-02  0.1193993E+00
         -4   -1    0    0    0  501 -0.00000000000E+00  0.00000000000E+00  0.81988904620E+02  0.81988904620E+02  0.00000000000E+00 0.  1.
          4   -1    0    0  501    0  0.00000000000E+00 -0.00000000000E+00 -0.27419720030E+03  0.27419720030E+03  0.00000000000E+00 0. -1.
         23    2    1    2    0    0 -0.10352966051E+03  0.79081202452E+01 -0.87047389097E+02  0.18434337753E+03  0.12499721564E+03 0.  0.
          5    1    3    3  502    0 -0.12045695877E+03  0.34196882280E+02 -0.87310889907E+02  0.15272389195E+03  0.47000000000E+01 0.  1.
         -5    1    3    3    0  502  0.16927298263E+02 -0.26288762035E+02  0.26350081042E+00  0.31619485582E+02  0.47000000000E+01 0.  1.
        -11    1    1    2    0    0  0.87780931875E+02  0.22720655296E+02 -0.10315855641E+03  0.13734412233E+03  0.00000000000E+00 0.  1.
         11    1    1    2    0    0  0.15748728636E+02 -0.30628775541E+02 -0.20023501695E+01  0.34498605059E+02  0.00000000000E+00 0. -1.
<mgrwt>
<rscale>  0 0.15539798E+03</rscale>
<asrwt>0</asrwt>
<pdfrwt beam="2">  1        4 0.42184184E-01 0.16249687E+03</pdfrwt>
<pdfrwt beam="1">  1       -4 0.12613678E-01 0.16249687E+03</pdfrwt>
<totfact> 0.47896745E+02</totfact>
</mgrwt>
</event>
<event>
 7    1  0.7800420E-006  0.1814835E+03  0.7546771E-02  0.1171884E+00
          2   -1    0    0  501    0  0.00000000000E+00  0.00000000000E+00  0.15424659417E+03  0.15424659417E+03  0.00000000000E+00 0. -1.
         -2   -1    0    0    0  501 -0.00000000000E+00 -0.00000000000E+00 -0.19051762994E+03  0.19051762994E+03  0.00000000000E+00 0.  1.
         23    2    1    2    0    0 -0.81385926645E+02  0.10335436926E+03 -0.37392998198E+01  0.18152198236E+03  0.12502181016E+03 0.  0.
          5    1    3    3  502    0 -0.68724517160E+02  0.54027967455E+02 -0.59506899559E+02  0.10585481388E+03  0.47000000000E+01 0.  1.
         -5    1    3    3    0  502 -0.12661409485E+02  0.49326401807E+02  0.55767599739E+02  0.75667168482E+02  0.47000000000E+01 0.  1.
        -11    1    1    2    0    0  0.32899176260E+02 -0.99687770538E+02 -0.43163274335E+00  0.10497711036E+03  0.00000000000E+00 0. -1.
         11    1    1    2    0    0  0.48486750384E+02 -0.36665987244E+01 -0.32100103212E+02  0.58265131385E+02  0.00000000000E+00 0.  1.
<mgrwt>
<rscale>  0 0.17584741E+03</rscale>
<asrwt>0</asrwt>
<pdfrwt beam="1">  1        2 0.23730245E-01 0.18148346E+03</pdfrwt>
<pdfrwt beam="2">  1       -2 0.29310405E-01 0.18148346E+03</pdfrwt>
<totfact> 0.23898689E+03</totfact>
</mgrwt>
</event>
<event>
 7    1  0.7800420E-006  0.1734022E+03  0.7546771E-02  0.1180247E+00
         -3   -1    0    0    0  501 -0.00000000000E+00  0.00000000000E+00  0.99400715016E+02  0.99400715016E+02  0.00000000000E+00 0.  1.
          3   -1    0    0  501    0  0.00000000000E+00 -0.00000000000E+00 -0.26647971286E+03  0.26647971286E+03  0.00000000000E+00 0. -1.
         23    2    1    2    0    0 -0.53481160050E+02  0.10763051359E+03 -0.97399504871E+02  0.19888435104E+03  0.12499503832E+03 0.  0.
          5    1    3    3  502    0 -0.26648178584E+00 -0.49823138206E+01  0.23959148750E+02  0.24920378657E+02  0.47000000000E+01 0. -1.
         -5    1    3    3    0  502 -0.53214678264E+02  0.11261282741E+03 -0.12135865362E+03  0.17396397239E+03  0.47000000000E+01 0. -1.
        -11    1    1    2    0    0  0.61095148113E+02 -0.94633855237E+02 -0.19135828257E+02  0.11425569396E+03  0.00000000000E+00 0.  1.
         11    1    1    2    0    0 -0.76139880629E+01 -0.12996658351E+02 -0.50543664715E+02  0.52740382871E+02  0.00000000000E+00 0. -1.
<mgrwt>
<rscale>  0 0.16771947E+03</rscale>
<asrwt>0</asrwt>
<pdfrwt beam="2">  1        3 0.40996878E-01 0.17340220E+03</pdfrwt>
<pdfrwt beam="1">  1       -3 0.15292418E-01 0.17340220E+03</pdfrwt>
<totfact> 0.50983285E+02</totfact>
</mgrwt>
</event>
<event>
 6    1  0.7800420E-006  0.1479817E+03  0.7546771E-02  0.1223237E+00
          1   -1    0    0  501    0  0.00000000000E+00  0.00000000000E+00  0.56612785923E+03  0.56612785923E+03  0.00000000000E+00 0. -1.
         -1   -1    0    0    0  501 -0.00000000000E+00 -0.00000000000E+00 -0.83187417129E+02  0.83187417129E+02  0.00000000000E+00 0.  1.
          5    1    1    2  502    0  0.24406284788E+02 -0.70233630439E+02  0.27550717195E+03  0.28540273540E+03  0.47000000000E+01 0. -1.
         -5    1    1    2    0  502 -0.50653664921E+02  0.52843032355E+02  0.24864356881E+03  0.25923713883E+03  0.47000000000E+01 0.  1.
        -11    1    1    2    0    0  0.11719483649E+02  0.52051459933E+02 -0.40672557714E+02  0.67089177437E+02  0.00000000000E+00 0.  1.
         11    1    1    2    0    0  0.14527896484E+02 -0.34660861849E+02 -0.53774094944E+00  0.37586224680E+02  0.00000000000E+00 0. -1.
<mgrwt>
<rscale>  0 0.13288457E+03</rscale>
<asrwt>0</asrwt>
<pdfrwt beam="1">  1        1 0.87096591E-01 0.14798173E+03</pdfrwt>
<pdfrwt beam="2">  1       -1 0.12798065E-01 0.14798173E+03</pdfrwt>
<totfact> 0.15631284E+03</totfact>
</mgrwt>
</event>
<event>
 7    1  0.7800420E-006  0.1309902E+03  0.7546771E-02  0.1246134E+00
         -1   -1    0    0    0  501 -0.00000000000E+00  0.00000000000E+00  0.17563744670E+03  0.17563744670E+03  0.00000000000E+00 0.  1.
          1   -1    0    0  501    0  0.00000000000E+00 -0.00000000000E+00 -0.90128590869E+02  0.90128590869E+02  0.00000000000E+00 0. -1.
         23    2    1    2    0    0 -0.10108907897E+02  0.37827536614E+02  0.11479897070E+03  0.17417584285E+03  0.12500123204E+03 0.  0.
          5    1    3    3  502    0  0.20162609411E+02 -0.14130658132E+02  0.11093927276E+03  0.11373574002E+03  0.47000000000E+01 0. -1.
         -5    1    3    3    0  502 -0.30271517309E+02  0.51958194746E+02  0.38596979422E+01  0.60440102826E+02  0.47000000000E+01 0. -1.
        -11    1    1    2    0    0 -0.22808389886E+02 -0.40034815620E+02  0.20013738387E+01  0.46119568604E+02  0.00000000000E+00 0.  1.
         11    1    1    2    0    0  0.32917297783E+02  0.22072790066E+01 -0.31291488709E+02  0.45470626118E+02  0.00000000000E+00 0. -1.
<mgrwt>
<rscale>  0 0.11817742E+03</rscale>
<asrwt>0</asrwt>
<pdfrwt beam="2">  1        1 0.13865937E-01 0.13099015E+03</pdfrwt>
<pdfrwt beam="1">  1       -1 0.27021145E-01 0.13099015E+03</pdfrwt>
<totfact> 0.48129709E+03</totfact>
</mgrwt>
</event>
<event>
 7    1  0.7800420E-006  0.1317837E+03  0.7546771E-02  0.1238230E+00
          3   -1    0    0  501    0  0.00000000000E+00  0.00000000000E+00  0.15917987159E+03  0.15917987159E+03  0.00000000000E+00 0. -1.
         -3   -1    0    0    0  501 -0.00000000000E+00 -0.00000000000E+00 -0.90227996893E+02  0.90227996893E+02  0.00000000000E+00 0.  1.
         23    2    1    2    0    0 -0.34511080883E+02 -0.23480806640E+02  0.70363624464E+02  0.14939208213E+03  0.12499836627E+03 0.  0.
          5    1    3    3  502    0  0.49664471965E+00  0.39832735347E+02  0.65401607536E+02  0.76722576400E+02  0.47000000000E+01 0.  1.
         -5    1    3    3    0  502 -0.35007725603E+02 -0.63313541987E+02  0.49620169278E+01  0.72669505728E+02  0.47000000000E+01 0.  1.
        -11    1    1    2    0    0  0.47141110813E+02  0.37389984926E+02 -0.28876768330E+02  0.66739516411E+02  0.00000000000E+00 0.  1.
         11    1    1    2    0    0 -0.12630029930E+02 -0.13909178286E+02  0.27465018559E+02  0.33276269940E+02  0.00000000000E+00 0. -1.
<mgrwt>
<rscale>  0 0.12299932E+03</rscale>
<asrwt>0</asrwt>
<pdfrwt beam="1">  1        3 0.24489211E-01 0.13178374E+03</pdfrwt>
<pdfrwt beam="2">  1       -3 0.13881230E-01 0.13178374E+03</pdfrwt>
<totfact> 0.15126835E+03</totfact>
</mgrwt>
</event>
<event>
 7    1  0.7800420E-006  0.1322698E+03  0.7546771E-02  0.1237156E+00
          2   -1    0    0  501    0  0.00000000000E+00  0.00000000000E+00  0.30544922067E+03  0.30544922067E+03  0.00000000000E+00 0. -1.
         -2   -1    0    0    0  501 -0.00000000000E+00 -0.00000000000E+00 -0.49127480597E+02  0.49127480597E+02  0.00000000000E+00 0.  1.
         23    2    1    2    0    0  0.37641207539E+02  0.21290437671E+02  0.19723354675E+03  0.23747919831E+03  0.12500061770E+03 0.  0.
          5    1    3    3  502    0  0.43621497067E+02  0.15980345486E+02  0.72308651718E+01  0.47250204860E+02  0.47000000000E+01 0.  1.
         -5    1    3    3    0  502 -0.59802895270E+01  0.53100921850E+01  0.19000268158E+03  0.19022899345E+03  0.47000000000E+01 0.  1.
        -11    1    1    2    0    0  0.10742157981E+01 -0.43761378755E+02  0.10309217849E+01  0.43786699006E+02  0.00000000000E+00 0.  1.
         11    1    1    2    0    0 -0.38715423338E+02  0.22470941084E+02  0.58057271536E+02  0.73310803949E+02  0.00000000000E+00 0. -1.
<mgrwt>
<rscale>  0 0.12367418E+03</rscale>
<asrwt>0</asrwt>
<pdfrwt beam="1">  1        2 0.46992187E-01 0.13226979E+03</pdfrwt>
<pdfrwt beam="2">  1       -2 0.75580741E-02 0.13226979E+03</pdfrwt>
<totfact> 0.10459683E+04</totfact>
</mgrwt>
</event>
<event>
 7    1  0.7800420E-006  0.1481264E+03  0.7546771E-02  0.1212164E+00
         -2   -1    0    0    0  501 -0.00000000000E+00  0.00000000000E+00  0.14357816386E+03  0.14357816386E+03  0.00000000000E+00 0.  1.
          2   -1    0    0  501    0  0.00000000000E+00 -0.00000000000E+00 -0.36284774109E+03  0.36284774109E+03  0.00000000000E+00 0. -1.
         23    2    1    2    0    0 -0.73723226662E+02 -0.29713779825E+02 -0.31756101369E+03  0.35040893789E+03  0.12499361374E+03 0.  0.
          5    1    3    3  502    0 -0.76458820174E+02  0.13249715933E+02 -0.28716040336E+03  0.29749738388E+03  0.47000000000E+01 0. -1.
         -5    1    3    3    0  502  0.27355935119E+01 -0.42963495758E+02 -0.30400610324E+02  0.52911554010E+02  0.47000000000E+01 0. -1.
        -11    1    1    2    0    0  0.28365272948E+02  0.19046776410E+02  0.10362966634E+03  0.10911680048E+03  0.00000000000E+00 0.  1.
         11    1    1    2    0    0  0.45357953715E+02  0.10667003416E+02 -0.53382298884E+01  0.46900166582E+02  0.00000000000E+00 0. -1.
<mgrwt>
<rscale>  0 0.14086899E+03</rscale>
<asrwt>0</asrwt>
<pdfrwt beam="2">  1        2 0.55822730E-01 0.14812639E+03</pdfrwt>
<pdfrwt beam="1">  1       -2 0.22088948E-01 0.14812639E+03</pdfrwt>
<totfact> 0.15490007E+03</totfact>
</mgrwt>
</event>
<event>
 7    1  0.7800420E-006  0.1478712E+03  0.7546771E-02  0.1212795E+00
         -1   -1    0    0    0  501 -0.00000000000E+00  0.00000000000E+00  0.28613646531E+02  0.28613646531E+02  0.00000000000E+00 0.  1.
          1   -1    0    0  501    0  0.00000000000E+00 -0.00000000000E+00 -0.68539414025E+03  0.68539414025E+03  0.00000000000E+00 0. -1.
         23    2    1    2    0    0 -0.70230601692E+02  0.36144534990E+02 -0.46253307368E+03  0.48559525219E+03  0.12500855923E+03 0.  0.
          5    1    3    3  502    0 -0.10623570773E+03  0.25700301889E+02 -0.36321123209E+03  0.37932969858E+03  0.47000000000E+01 0.  1.
         -5    1    3    3    0  502  0.36005106040E+02  0.10444233101E+02 -0.99321841591E+02  0.10626555361E+03  0.47000000000E+01 0.  1.
        -11    1    1    2    0    0  0.70040407396E+02  0.53450632874E+00 -0.17150069175E+03  0.18525234583E+03  0.00000000000E+00 0.  1.
         11    1    1    2    0    0  0.19019429584E+00 -0.36679041319E+02 -0.22746728295E+02  0.43160188763E+02  0.00000000000E+00 0. -1.
<mgrwt>
<rscale>  0 0.14039755E+03</rscale>
<asrwt>0</asrwt>
<pdfrwt beam="2">  1        1 0.10544525E+00 0.14787124E+03</pdfrwt>
<pdfrwt beam="1">  1       -1 0.44020994E-02 0.14787124E+03</pdfrwt>
<totfact> 0.60114168E+03</totfact>
</mgrwt>
</event>
<event>
 7    1  0.7800420E-006  0.1267525E+03  0.7546771E-02  0.1255272E+00
         -2   -1    0    0    0  501 -0.00000000000E+00  0.00000000000E+00  0.63780503393E+02  0.63780503393E+02  0.00000000000E+00 0. -1.
          2   -1    0    0  501    0  0.00000000000E+00 -0.00000000000E+00 -0.26740721944E+03  0.26740721944E+03  0.00000000000E+00 0.  1.
         23    2    1    2    0    0  0.81639062819E+01  0.19352219013E+02 -0.21597643672E+03  0.25042368280E+03  0.12500016776E+03 0.  0.
          5    1    3    3  502    0  0.57185560851E+02  0.42971672503E+02 -0.13291315507E+03  0.15101241604E+03  0.47000000000E+01 0.  1.
         -5    1    3    3    0  502 -0.49021654569E+02 -0.23619453490E+02 -0.83063281657E+02  0.99411266763E+02  0.47000000000E+01 0.  1.
        -11    1    1    2    0    0 -0.12425313533E+02  0.27754938812E+02 -0.41027827964E+01  0.30684814999E+02  0.00000000000E+00 0.  1.
         11    1    1    2    0    0  0.42614072513E+01 -0.47107157825E+02  0.16452503467E+02  0.50079225039E+02  0.00000000000E+00 0. -1.
<mgrwt>
<rscale>  0 0.11291134E+03</rscale>
<asrwt>0</asrwt>
<pdfrwt beam="2">  1        2 0.41139571E-01 0.12675251E+03</pdfrwt>
<pdfrwt beam="1">  1       -2 0.98123853E-02 0.12675251E+03</pdfrwt>
<totfact> 0.80059889E+03</totfact>
</mgrwt>
</event>
<event>
 7    1  0.7800420E-006  0.1718283E+03  0.7546771E-02  0.1182371E+00
         -2   -1    0    0    0  501 -0.00000000000E+00  0.00000000000E+00  0.34235990702E+02  0.34235990702E+02  0.00000000000E+00 0.  1.
          2   -1    0    0  501    0  0.00000000000E+00 -0.00000000000E+00 -0.93802477170E+03  0.93802477170E+03  0.00000000000E+00 0. -1.
         23    2    1    2    0    0  0.11598246088E+03 -0.21420383905E+02 -0.69497517317E+03  0.71590185219E+03  0.12495681879E+03 0.  0.
          5    1    3    3  502    0  0.99599080548E+02 -0.45302206059E+02 -0.29204494970E+03  0.31190480818E+03  0.47000000000E+01 0. -1.
         -5    1    3    3    0  502  0.16383380329E+02  0.23881822153E+02 -0.40293022347E+03  0.40399704400E+03  0.47000000000E+01 0. -1.
        -11    1    1    2    0    0 -0.88612625494E+02  0.16371149420E+02 -0.20998390592E+03  0.22850263166E+03  0.00000000000E+00 0.  1.
         11    1    1    2    0    0 -0.27369835382E+02  0.50492344851E+01  0.11702980858E+01  0.27856278563E+02  0.00000000000E+00 0. -1.
<mgrwt>
<rscale>  0 0.16573387E+03</rscale>
<asrwt>0</asrwt>
<pdfrwt beam="2">  1        2 0.14431151E+00 0.17182832E+03</pdfrwt>
<pdfrwt beam="1">  1       -2 0.52670754E-02 0.17182832E+03</pdfrwt>
<totfact> 0.51049353E+03</totfact>
</mgrwt>
</event>
<event>
 7    1  0.7800420E-006  0.1347538E+03  0.7546771E-02  0.1233164E+00
          4   -1    0    0  501    0  0.00000000000E+00  0.00000000000E+00  0.40972334357E+02  0.40972334357E+02  0.00000000000E+00 0. -1.
         -4   -1    0    0    0  501 -0.00000000000E+00 -0.00000000000E+00 -0.37311677391E+03  0.37311677391E+03  0.00000000000E+00 0.  1.
         23    2    1    2    0    0 -0.48174724815E+02  0.14626702731E+02 -0.13190208046E+03  0.18856498889E+03  0.12499540656E+03 0.  0.
          5    1    3    3  502    0 -0.17355093883E+02  0.69324388984E+02 -0.75006509303E+02  0.10370697484E+03  0.47000000000E+01 0. -1.
         -5    1    3    3    0  502 -0.30819630931E+02 -0.54697686254E+02 -0.56895571155E+02  0.84858014055E+02  0.47000000000E+01 0. -1.
        -11    1    1    2    0    0  0.67923344780E+02  0.11233141449E+00 -0.91100475247E+02  0.11363489770E+03  0.00000000000E+00 0. -1.
         11    1    1    2    0    0 -0.19748619965E+02 -0.14739034145E+02 -0.10914188385E+03  0.11188922168E+03  0.00000000000E+00 0.  1.
<mgrwt>
<rscale>  0 0.12622727E+03</rscale>
<asrwt>0</asrwt>
<pdfrwt beam="1">  1        4 0.63034361E-02 0.13475384E+03</pdfrwt>
<pdfrwt beam="2">  1       -4 0.57402580E-01 0.13475384E+03</pdfrwt>
<totfact> 0.78830383E+02</totfact>
</mgrwt>
</event>
<event>
 7    1  0.7800420E-006  0.1851272E+03  0.7546771E-02  0.1166815E+00
         -2   -1    0    0    0  501 -0.00000000000E+00  0.00000000000E+00  0.34111709335E+02  0.34111709335E+02  0.00000000000E+00 0.  1.
          2   -1    0    0  501    0  0.00000000000E+00 -0.00000000000E+00 -0.93052734869E+03  0.93052734869E+03  0.00000000000E+00 0. -1.
         23    2    1    2    0    0 -0.18508789572E+02  0.13529196620E+03 -0.51832612875E+03  0.55039444651E+03  0.12500231833E+03 0.  0.
          5    1    3    3  502    0  0.12490845529E+02  0.93927510730E+02 -0.14371641630E+03  0.17220597205E+03  0.47000000000E+01 0. -1.
         -5    1    3    3    0  502 -0.30999635101E+02  0.41364455471E+02 -0.37460971245E+03  0.37818847446E+03  0.47000000000E+01 0. -1.
        -11    1    1    2    0    0 -0.37830124731E+02 -0.51828176346E+02 -0.10354058165E+03  0.12181104322E+03  0.00000000000E+00 0.  1.
         11    1    1    2    0    0  0.56338914303E+02 -0.83463789855E+02 -0.27454892895E+03  0.29243356830E+03  0.00000000000E+00 0. -1.
<mgrwt>
<rscale>  0 0.18102451E+03</rscale>
<asrwt>0</asrwt>
<pdfrwt beam="2">  1        2 0.14315805E+00 0.18512718E+03</pdfrwt>
<pdfrwt beam="1">  1       -2 0.52479555E-02 0.18512718E+03</pdfrwt>
<totfact> 0.52023781E+03</totfact>
</mgrwt>
</event>
<event>
 7    1  0.7800420E-006  0.1566256E+03  0.7546771E-02  0.1199807E+00
          1   -1    0    0  501    0  0.00000000000E+00  0.00000000000E+00  0.11172634481E+03  0.11172634481E+03  0.00000000000E+00 0. -1.
         -1   -1    0    0    0  501 -0.00000000000E+00 -0.00000000000E+00 -0.18896127571E+03  0.18896127571E+03  0.00000000000E+00 0.  1.
         23    2    1    2    0    0 -0.94323405092E+02 -0.28074779438E+01 -0.34905531930E+02  0.16046799888E+03  0.12500718309E+03 0.  0.
          5    1    3    3  502    0 -0.85872804126E+02  0.27554798173E+02  0.24047199169E+02  0.93454604909E+02  0.47000000000E+01 0. -1.
         -5    1    3    3    0  502 -0.84506009653E+01 -0.30362276117E+02 -0.58952731098E+02  0.67013393972E+02  0.47000000000E+01 0. -1.
        -11    1    1    2    0    0  0.26046695977E+02 -0.32122298894E+02  0.15502766433E+02  0.44165690582E+02  0.00000000000E+00 0. -1.
         11    1    1    2    0    0  0.68276709115E+02  0.34929776837E+02 -0.57832165401E+02  0.96053931061E+02  0.00000000000E+00 0.  1.
<mgrwt>
<rscale>  0 0.15054348E+03</rscale>
<asrwt>0</asrwt>
<pdfrwt beam="1">  1        1 0.17188668E-01 0.15662561E+03</pdfrwt>
<pdfrwt beam="2">  1       -1 0.29070965E-01 0.15662561E+03</pdfrwt>
<totfact> 0.32592384E+03</totfact>
</mgrwt>
</event>
<event>
 7    1  0.7800420E-006  0.1926947E+03  0.7546771E-02  0.1160827E+00
          2   -1    0    0  501    0  0.00000000000E+00  0.00000000000E+00  0.10505794250E+04  0.10505794250E+04  0.00000000000E+00 0.  1.
         -2   -1    0    0    0  501 -0.00000000000E+00 -0.00000000000E+00 -0.38120386466E+02  0.38120386466E+02  0.00000000000E+00 0. -1.
         23    2    1    2    0    0 -0.10396935895E+03 -0.10342378369E+03  0.75252755378E+03  0.77680690102E+03  0.12500054254E+03 0.  0.
          5    1    3    3  502    0 -0.68677437446E+02  0.12646364619E+02  0.31989036719E+03  0.32745756667E+03  0.47000000000E+01 0. -1.
         -5    1    3    3    0  502 -0.35291921499E+02 -0.11607014831E+03  0.43263718659E+03  0.44934933434E+03  0.47000000000E+01 0. -1.
        -11    1    1    2    0    0  0.68996248104E+02  0.75451249677E+02  0.24366568889E+03  0.26424674316E+03  0.00000000000E+00 0.  1.
         11    1    1    2    0    0  0.34973110841E+02  0.27972534012E+02  0.16265795846E+02  0.47646167269E+02  0.00000000000E+00 0. -1.
<mgrwt>
<rscale>  0 0.18740030E+03</rscale>
<asrwt>0</asrwt>
<pdfrwt beam="1">  1        2 0.16162758E+00 0.19269469E+03</pdfrwt>
<pdfrwt beam="2">  1       -2 0.58646757E-02 0.19269469E+03</pdfrwt>
<totfact> 0.37165316E+03</totfact>
</mgrwt>
</event>
<event>
 7    1  0.7800420E-006  0.1951474E+03  0.7546771E-02  0.1160677E+00
         -1   -1    0    0    0  501 -0.00000000000E+00  0.00000000000E+00  0.32244710534E+03  0.32244710534E+03  0.00000000000E+00 0. -1.
          1   -1    0    0  501    0  0.00000000000E+00 -0.00000000000E+00 -0.13833093060E+03  0.13833093060E+03  0.00000000000E+00 0.  1.
         23    2    1    2    0    0 -0.13842345812E+03 -0.57413367487E+02 -0.21330919444E+02  0.19630972793E+03  0.12500061052E+03 0.  0.
          5    1    3    3  502    0 -0.20900558329E+02  0.52905643858E+01  0.42983790156E+02  0.48316866891E+02  0.47000000000E+01 0.  1.
         -5    1    3    3    0  502 -0.11752289979E+03 -0.62703931873E+02 -0.64314709599E+02  0.14799286104E+03  0.47000000000E+01 0.  1.
        -11    1    1    2    0    0  0.36323090250E+02 -0.17065040733E+02  0.47471809412E+02  0.62162329343E+02  0.00000000000E+00 0.  1.
         11    1    1    2    0    0  0.10210036787E+03  0.74478408220E+02  0.15797528476E+03  0.20230597867E+03  0.00000000000E+00 0. -1.
<mgrwt>
<rscale>  0 0.18756445E+03</rscale>
<asrwt>0</asrwt>
<pdfrwt beam="2">  1        1 0.21281682E-01 0.19514738E+03</pdfrwt>
<pdfrwt beam="1">  1       -1 0.49607247E-01 0.19514738E+03</pdfrwt>
<totfact> 0.97823364E+02</totfact>
</mgrwt>
</event>
<event>
 7    1  0.7800420E-006  0.1575709E+03  0.7546771E-02  0.1199593E+00
         -2   -1    0    0    0  501 -0.00000000000E+00  0.00000000000E+00  0.32311390255E+02  0.32311390255E+02  0.00000000000E+00 0.  1.
          2   -1    0    0  501    0  0.00000000000E+00 -0.00000000000E+00 -0.65183828511E+03  0.65183828511E+03  0.00000000000E+00 0. -1.
         23    2    1    2    0    0 -0.44759422960E+02 -0.84814531273E+02 -0.31204831062E+03  0.34957506280E+03  0.12502666000E+03 0.  0.
          5    1    3    3  502    0 -0.28734679000E+02 -0.46924046653E+02 -0.30194427223E+03  0.30695273490E+03  0.47000000000E+01 0. -1.
         -5    1    3    3    0  502 -0.16024743960E+02 -0.37890484620E+02 -0.10104038394E+02  0.42622327900E+02  0.47000000000E+01 0. -1.
        -11    1    1    2    0    0  0.31685034554E+02  0.60381538368E+02 -0.29735272634E+03  0.30507132847E+03  0.00000000000E+00 0. -1.
         11    1    1    2    0    0  0.13074388406E+02  0.24432992905E+02 -0.10125857891E+02  0.29503284097E+02  0.00000000000E+00 0.  1.
<mgrwt>
<rscale>  0 0.15071848E+03</rscale>
<asrwt>0</asrwt>
<pdfrwt beam="2">  1        2 0.10028281E+00 0.15757086E+03</pdfrwt>
<pdfrwt beam="1">  1       -2 0.49709834E-02 0.15757086E+03</pdfrwt>
<totfact> 0.87388728E+03</totfact>
</mgrwt>
</event>
<event>
 7    1  0.7800420E-006  0.2823875E+03  0.7546771E-02  0.1096181E+00
         -2   -1    0    0    0  501 -0.00000000000E+00  0.00000000000E+00  0.84587086036E+02  0.84587086036E+02  0.00000000000E+00 0. -1.
          2   -1    0    0  501    0  0.00000000000E+00 -0.00000000000E+00 -0.10624923089E+04  0.10624923089E+04  0.00000000000E+00 0.  1.
         23    2    1    2    0    0 -0.24549593834E+03  0.62042694940E+02 -0.72282548164E+03  0.77602795569E+03  0.12500063746E+03 0.  0.
          5    1    3    3  502    0 -0.22784895040E+03  0.11256712498E+02 -0.59683398062E+03  0.63896380820E+03  0.47000000000E+01 0. -1.
         -5    1    3    3    0  502 -0.17646987940E+02  0.50785982443E+02 -0.12599150102E+03  0.13706414748E+03  0.47000000000E+01 0. -1.
        -11    1    1    2    0    0  0.16406767104E+03 -0.39396803586E+02 -0.10478136020E+03  0.19861883661E+03  0.00000000000E+00 0. -1.
         11    1    1    2    0    0  0.81428267300E+02 -0.22645891355E+02 -0.15029838098E+03  0.17243260259E+03  0.00000000000E+00 0.  1.
<mgrwt>
<rscale>  0 0.27910094E+03</rscale>
<asrwt>0</asrwt>
<pdfrwt beam="2">  1        2 0.16346035E+00 0.28238752E+03</pdfrwt>
<pdfrwt beam="1">  1       -2 0.13013399E-01 0.28238752E+03</pdfrwt>
<totfact> 0.10428095E+03</totfact>
</mgrwt>
</event>
<event>
 7    1  0.7800420E-006  0.1633628E+03  0.7546771E-02  0.1192381E+00
          4   -1    0    0  501    0  0.00000000000E+00  0.00000000000E+00  0.32161012137E+03  0.32161012137E+03  0.00000000000E+00 0. -1.
         -4   -1    0    0    0  501 -0.00000000000E+00 -0.00000000000E+00 -0.70882988703E+02  0.70882988703E+02  0.00000000000E+00 0.  1.
         23    2    1    2    0    0  0.10577113272E+02 -0.10464314790E+03  0.13833854113E+03  0.21406764674E+03  0.12500136676E+03 0.  0.
          5    1    3    3  502    0  0.57095210820E+02 -0.16853627521E+02  0.29427412575E+02  0.66573046123E+02  0.47000000000E+01 0.  1.
         -5    1    3    3    0  502 -0.46518097548E+02 -0.87789520378E+02  0.10891112855E+03  0.14749460061E+03  0.47000000000E+01 0.  1.
        -11    1    1    2    0    0 -0.21754906238E+01  0.34563088202E+02 -0.10948079009E+02  0.36320796515E+02  0.00000000000E+00 0.  1.
         11    1    1    2    0    0 -0.84016226481E+01  0.70080059697E+02  0.12333667055E+03  0.14210466682E+03  0.00000000000E+00 0. -1.
<mgrwt>
<rscale>  0 0.15677980E+03</rscale>
<asrwt>0</asrwt>
<pdfrwt beam="1">  1        4 0.49478479E-01 0.16336280E+03</pdfrwt>
<pdfrwt beam="2">  1       -4 0.10905075E-01 0.16336280E+03</pdfrwt>
<totfact> 0.44606760E+02</totfact>
</mgrwt>
</event>
<event>
 7    1  0.7800420E-006  0.1674017E+03  0.7546771E-02  0.1187339E+00
          1   -1    0    0  501    0  0.00000000000E+00  0.00000000000E+00  0.73764752143E+03  0.73764752143E+03  0.00000000000E+00 0. -1.
         -1   -1    0    0    0  501 -0.00000000000E+00 -0.00000000000E+00 -0.58375966413E+02  0.58375966413E+02  0.00000000000E+00 0.  1.
         23    2    1    2    0    0  0.36193066723E+02 -0.10530300903E+03  0.61674698533E+03  0.63906193750E+03  0.12499861699E+03 0.  0.
          5    1    3    3  502    0  0.21873552822E+01 -0.48787574164E+02  0.56093031290E+02  0.74522010676E+02  0.47000000000E+01 0. -1.
         -5    1    3    3    0  502  0.34005711441E+02 -0.56515434867E+02  0.56065395404E+03  0.56453992682E+03  0.47000000000E+01 0. -1.
        -11    1    1    2    0    0 -0.37900840067E+02  0.62874327671E+02  0.82157538184E+02  0.11017947104E+03  0.00000000000E+00 0. -1.
         11    1    1    2    0    0  0.17077733438E+01  0.42428681360E+02 -0.19632968504E+02  0.46782079304E+02  0.00000000000E+00 0.  1.
<mgrwt>
<rscale>  0 0.16120870E+03</rscale>
<asrwt>0</asrwt>
<pdfrwt beam="1">  1        1 0.11348423E+00 0.16740166E+03</pdfrwt>
<pdfrwt beam="2">  1       -1 0.89809184E-02 0.16740166E+03</pdfrwt>
<totfact> 0.18642671E+03</totfact>
</mgrwt>
</event>
<event>
 7    1  0.7800420E-006  0.1856507E+03  0.7546771E-02  0.1167956E+00
         -2   -1    0    0    0  501 -0.00000000000E+00  0.00000000000E+00  0.98951248596E+02  0.98951248596E+02  0.00000000000E+00 0.  1.
          2   -1    0    0  501    0  0.00000000000E+00 -0.00000000000E+00 -0.31404058817E+03  0.31404058817E+03  0.00000000000E+00 0. -1.
         23    2    1    2    0    0  0.13305308517E+03 -0.33735985647E+02 -0.14290622015E+03  0.23428268418E+03  0.12499979260E+03 0.  0.
          5    1    3    3  502    0  0.15384527906E+01  0.35137727523E+02 -0.16023048523E+02  0.38933980229E+02  0.47000000000E+01 0. -1.
         -5    1    3    3    0  502  0.13151463238E+03 -0.68873713170E+02 -0.12688317162E+03  0.19534870395E+03  0.47000000000E+01 0. -1.
        -11    1    1    2    0    0 -0.89563162487E+02  0.78116784073E+01  0.77212842584E+00  0.89906499078E+02  0.00000000000E+00 0.  1.
         11    1    1    2    0    0 -0.43489922679E+02  0.25924307240E+02 -0.72955247852E+02  0.88802653506E+02  0.00000000000E+00 0. -1.
<mgrwt>
<rscale>  0 0.17984168E+03</rscale>
<asrwt>0</asrwt>
<pdfrwt beam="2">  1        2 0.48313936E-01 0.18565072E+03</pdfrwt>
<pdfrwt beam="1">  1       -2 0.15223269E-01 0.18565072E+03</pdfrwt>
<totfact> 0.34065315E+03</totfact>
</mgrwt>
</event>
<event>
 7    1  0.7800420E-006  0.1540329E+03  0.7546771E-02  0.1204255E+00
         -2   -1    0    0    0  501 -0.00000000000E+00  0.00000000000E+00  0.81916749761E+02  0.81916749761E+02  0.00000000000E+00 0.  1.
          2   -1    0    0  501    0  0.00000000000E+00 -0.00000000000E+00 -0.25405903808E+03  0.25405903808E+03  0.00000000000E+00 0. -1.
         23    2    1    2    0    0 -0.53825629487E+02 -0.72138636232E+02 -0.12999294035E+03  0.20155471631E+03  0.12499983161E+03 0.  0.
          5    1    3    3  502    0  0.24461949513E+02  0.18096792086E+02 -0.10521420054E+02  0.32537226952E+02  0.47000000000E+01 0.  1.
         -5    1    3    3    0  502 -0.78287579000E+02 -0.90235428317E+02 -0.11947152029E+03  0.16901748936E+03  0.47000000000E+01 0.  1.
        -11    1    1    2    0    0  0.58331825344E+02  0.13726714047E+02  0.36824502960E+01  0.60038195898E+02  0.00000000000E+00 0.  1.
         11    1    1    2    0    0 -0.45061958575E+01  0.58411922185E+02 -0.45831798274E+02  0.74382875633E+02  0.00000000000E+00 0. -1.
<mgrwt>
<rscale>  0 0.14696316E+03</rscale>
<asrwt>0</asrwt>
<pdfrwt beam="2">  1        2 0.39086005E-01 0.15403292E+03</pdfrwt>
<pdfrwt beam="1">  1       -2 0.12602577E-01 0.15403292E+03</pdfrwt>
<totfact> 0.57562656E+03</totfact>
</mgrwt>
</event>
<event>
 7    1  0.7800420E-006  0.1644556E+03  0.7546771E-02  0.1191204E+00
         -1   -1    0    0    0  501 -0.00000000000E+00  0.00000000000E+00  0.37839270479E+02  0.37839270479E+02  0.00000000000E+00 0. -1.
          1   -1    0    0  501    0  0.00000000000E+00 -0.00000000000E+00 -0.61166239731E+03  0.61166239731E+03  0.00000000000E+00 0.  1.
         23    2    1    2    0    0  0.31302981284E+02 -0.10217956881E+03 -0.29372118059E+03  0.33662706182E+03  0.12500042360E+03 0.  0.
          5    1    3    3  502    0  0.24849140408E+02 -0.33945154390E+02 -0.25351918992E+03  0.25702883680E+03  0.47000000000E+01 0. -1.
         -5    1    3    3    0  502  0.64538408756E+01 -0.68234414415E+02 -0.40201990672E+02  0.79598225022E+02  0.47000000000E+01 0. -1.
        -11    1    1    2    0    0 -0.60678094893E+02  0.80987593579E+02 -0.18112295557E+03  0.20747613489E+03  0.00000000000E+00 0. -1.
         11    1    1    2    0    0  0.29375113609E+02  0.21191975226E+02 -0.98978990663E+02  0.10539847108E+03  0.00000000000E+00 0.  1.
<mgrwt>
<rscale>  0 0.15779933E+03</rscale>
<asrwt>0</asrwt>
<pdfrwt beam="2">  1        1 0.94101904E-01 0.16445561E+03</pdfrwt>
<pdfrwt beam="1">  1       -1 0.58214264E-02 0.16445561E+03</pdfrwt>
<totfact> 0.46781416E+03</totfact>
</mgrwt>
</event>
<event>
 7    1  0.7800420E-006  0.1254852E+03  0.7546771E-02  0.1250014E+00
         -1   -1    0    0    0  501 -0.00000000000E+00  0.00000000000E+00  0.23282515334E+03  0.23282515334E+03  0.00000000000E+00 0.  1.
          1   -1    0    0  501    0  0.00000000000E+00 -0.00000000000E+00 -0.54298507730E+02  0.54298507730E+02  0.00000000000E+00 0. -1.
         23    2    1    2    0    0 -0.87829301655E+01  0.68024454937E+01  0.64680214186E+02  0.14117388329E+03  0.12499248813E+03 0.  0.
          5    1    3    3  502    0 -0.62829175346E+01 -0.58931840586E+02  0.28090673986E+02  0.65754185058E+02  0.47000000000E+01 0. -1.
         -5    1    3    3    0  502 -0.25000126310E+01  0.65734286080E+02  0.36589540200E+02  0.75419698234E+02  0.47000000000E+01 0. -1.
        -11    1    1    2    0    0 -0.17673186964E+02  0.30265923438E+02  0.85253690004E+02  0.92176782968E+02  0.00000000000E+00 0.  1.
         11    1    1    2    0    0  0.26456117130E+02 -0.37068368932E+02  0.28592741418E+02  0.53772994808E+02  0.00000000000E+00 0. -1.
<mgrwt>
<rscale>  0 0.11590236E+03</rscale>
<asrwt>0</asrwt>
<pdfrwt beam="2">  1        1 0.83536167E-02 0.12548520E+03</pdfrwt>
<pdfrwt beam="1">  1       -1 0.35819254E-01 0.12548520E+03</pdfrwt>
<totfact> 0.58176166E+03</totfact>
</mgrwt>
</event>
<event>
 7    1  0.7800420E-006  0.1661084E+03  0.7546771E-02  0.1189780E+00
          2   -1    0    0  501    0  0.00000000000E+00  0.00000000000E+00  0.17263969551E+04  0.17263969551E+04  0.00000000000E+00 0. -1.
         -2   -1    0    0    0  501 -0.00000000000E+00 -0.00000000000E+00 -0.26403663928E+02  0.26403663928E+02  0.00000000000E+00 0.  1.
         23    2    1    2    0    0 -0.69792266650E+02  0.84267833017E+02  0.14984535814E+04  0.15076322988E+04  0.12497993662E+03 0.  0.
          5    1    3    3  502    0 -0.78965058605E+02  0.11089948453E+03  0.11584460032E+04  0.11664276267E+04  0.47000000000E+01 0.  1.
         -5    1    3    3    0  502  0.91727919544E+01 -0.26631651508E+02  0.34000757821E+03  0.34120467203E+03  0.47000000000E+01 0.  1.
        -11    1    1    2    0    0  0.62528676452E+02 -0.64441768066E+02  0.75333432096E+02  0.11720794701E+03  0.00000000000E+00 0.  1.
         11    1    1    2    0    0  0.72635901985E+01 -0.19826064951E+02  0.12620627769E+03  0.12796037325E+03  0.00000000000E+00 0. -1.
<mgrwt>
<rscale>  0 0.15904432E+03</rscale>
<asrwt>0</asrwt>
<pdfrwt beam="1">  1        2 0.26559944E+00 0.16610844E+03</pdfrwt>
<pdfrwt beam="2">  1       -2 0.40621035E-02 0.16610844E+03</pdfrwt>
<totfact> 0.27789405E+03</totfact>
</mgrwt>
</event>
<event>
 7    1  0.7800420E-006  0.1462716E+03  0.7546771E-02  0.1214630E+00
          2   -1    0    0  501    0  0.00000000000E+00  0.00000000000E+00  0.83122877665E+03  0.83122877665E+03  0.00000000000E+00 0.  1.
         -2   -1    0    0    0  501 -0.00000000000E+00 -0.00000000000E+00 -0.23930714921E+02  0.23930714921E+02  0.00000000000E+00 0. -1.
         23    2    1    2    0    0 -0.39847039550E+01 -0.75803606997E+02  0.58283467676E+03  0.60090900360E+03  0.12503321747E+03 0.  0.
          5    1    3    3  502    0 -0.23760232616E+01 -0.34480384930E+02  0.28579921906E+02  0.45093728695E+02  0.47000000000E+01 0. -1.
         -5    1    3    3    0  502 -0.16086806934E+01 -0.41323222067E+02  0.55425475486E+03  0.55581527490E+03  0.47000000000E+01 0. -1.
        -11    1    1    2    0    0 -0.32785903216E+02  0.71217568135E+02  0.18024659531E+03  0.19655964128E+03  0.00000000000E+00 0.  1.
         11    1    1    2    0    0  0.36770607171E+02  0.45860388624E+01  0.44216789657E+02  0.57690846689E+02  0.00000000000E+00 0. -1.
<mgrwt>
<rscale>  0 0.13903782E+03</rscale>
<asrwt>0</asrwt>
<pdfrwt beam="1">  1        2 0.12788133E+00 0.14627156E+03</pdfrwt>
<pdfrwt beam="2">  1       -2 0.36816491E-02 0.14627156E+03</pdfrwt>
<totfact> 0.10145587E+04</totfact>
</mgrwt>
</event>
<event>
 7    1  0.7800420E-006  0.1377702E+03  0.7546771E-02  0.1227805E+00
          1   -1    0    0  501    0  0.00000000000E+00  0.00000000000E+00  0.11595475377E+03  0.11595475377E+03  0.00000000000E+00 0. -1.
         -1   -1    0    0    0  501 -0.00000000000E+00 -0.00000000000E+00 -0.13723817327E+03  0.13723817327E+03  0.00000000000E+00 0.  1.
         23    2    1    2    0    0  0.21577498608E+02  0.53762145791E+02  0.15616878568E+02  0.13865248037E+03  0.12499866659E+03 0.  0.
          5    1    3    3  502    0 -0.37287558486E+02 -0.76295779195E+01 -0.23436779390E+02  0.44943799408E+02  0.47000000000E+01 0.  1.
         -5    1    3    3    0  502  0.58865057093E+02  0.61391723711E+02  0.39053657959E+02  0.93708680957E+02  0.47000000000E+01 0.  1.
        -11    1    1    2    0    0 -0.52730505627E+02 -0.52005089305E+02 -0.12901721277E+02  0.75176392233E+02  0.00000000000E+00 0. -1.
         11    1    1    2    0    0  0.31153007019E+02 -0.17570564867E+01 -0.23998576789E+02  0.39364054437E+02  0.00000000000E+00 0.  1.
<mgrwt>
<rscale>  0 0.12976500E+03</rscale>
<asrwt>0</asrwt>
<pdfrwt beam="1">  1        1 0.17839193E-01 0.13777018E+03</pdfrwt>
<pdfrwt beam="2">  1       -1 0.21113565E-01 0.13777018E+03</pdfrwt>
<totfact> 0.52208425E+03</totfact>
</mgrwt>
</event>
<event>
 7    1  0.7800420E-006  0.1558888E+03  0.7546771E-02  0.1201752E+00
          2   -1    0    0  501    0  0.00000000000E+00  0.00000000000E+00  0.61073174744E+03  0.61073174744E+03  0.00000000000E+00 0. -1.
         -2   -1    0    0    0  501 -0.00000000000E+00 -0.00000000000E+00 -0.87184860745E+02  0.87184860745E+02  0.00000000000E+00 0.  1.
         23    2    1    2    0    0 -0.89596038555E+02 -0.25451495392E+02  0.54439520683E+03  0.56627507380E+03  0.12500435692E+03 0.  0.
          5    1    3    3  502    0  0.20295399774E+02  0.23642339190E+02  0.68948824474E+02  0.75808270332E+02  0.47000000000E+01 0. -1.
         -5    1    3    3    0  502 -0.10989143833E+03 -0.49093834582E+02  0.47544638235E+03  0.49046680347E+03  0.47000000000E+01 0. -1.
        -11    1    1    2    0    0  0.78846334368E+02  0.53627806962E+02 -0.30273314447E+02  0.10004578797E+03  0.00000000000E+00 0. -1.
         11    1    1    2    0    0  0.10749704187E+02 -0.28176311570E+02  0.94249943164E+01  0.31595746417E+02  0.00000000000E+00 0.  1.
<mgrwt>
<rscale>  0 0.14896370E+03</rscale>
<asrwt>0</asrwt>
<pdfrwt beam="1">  1        2 0.93958728E-01 0.15588880E+03</pdfrwt>
<pdfrwt beam="2">  1       -2 0.13413056E-01 0.15588880E+03</pdfrwt>
<totfact> 0.20109012E+03</totfact>
</mgrwt>
</event>
<event>
 7    1  0.7800420E-006  0.1479664E+03  0.7546771E-02  0.1209479E+00
          1   -1    0    0  501    0  0.00000000000E+00  0.00000000000E+00  0.83482811508E+02  0.83482811508E+02  0.00000000000E+00 0. -1.
         -1   -1    0    0    0  501 -0.00000000000E+00 -0.00000000000E+00 -0.25423082036E+03  0.25423082036E+03  0.00000000000E+00 0.  1.
         23    2    1    2    0    0 -0.72541239039E+02 -0.31720623277E+02 -0.37916943267E+02  0.15274729547E+03  0.12500244952E+03 0.  0.
          5    1    3    3  502    0  0.15767940857E+02 -0.54014262792E+02 -0.97857670711E+01  0.57306367718E+02  0.47000000000E+01 0.  1.
         -5    1    3    3    0  502 -0.88309179896E+02  0.22293639515E+02 -0.28131176196E+02  0.95440927756E+02  0.47000000000E+01 0.  1.
        -11    1    1    2    0    0  0.81043674567E+02 -0.21956001260E+00 -0.48640125608E+02  0.94519771546E+02  0.00000000000E+00 0. -1.
         11    1    1    2    0    0 -0.85024355285E+01  0.31940183290E+02 -0.84190939981E+02  0.90446564851E+02  0.00000000000E+00 0.  1.
<mgrwt>
<rscale>  0 0.14290008E+03</rscale>
<asrwt>0</asrwt>
<pdfrwt beam="1">  1        1 0.12843510E-01 0.14796635E+03</pdfrwt>
<pdfrwt beam="2">  1       -1 0.39112433E-01 0.14796635E+03</pdfrwt>
<totfact> 0.28554135E+03</totfact>
</mgrwt>
</event>
<event>
 7    1  0.7800420E-006  0.1514886E+03  0.7546771E-02  0.1207789E+00
         -2   -1    0    0    0  501 -0.00000000000E+00  0.00000000000E+00  0.11248620197E+03  0.11248620197E+03  0.00000000000E+00 0.  1.
          2   -1    0    0  501    0  0.00000000000E+00 -0.00000000000E+00 -0.19807574833E+03  0.19807574833E+03  0.00000000000E+00 0. -1.
         23    2    1    2    0    0  0.40289489719E+02 -0.75486496171E+02 -0.10550936964E+03  0.18461050282E+03  0.12500942598E+03 0.  0.
          5    1    3    3  502    0  0.38808286970E+02 -0.32680986112E+02  0.17813282360E+02  0.53977152752E+02  0.47000000000E+01 0.  1.
         -5    1    3    3    0  502  0.14812027490E+01 -0.42805510059E+02 -0.12332265200E+03  0.13063335007E+03  0.47000000000E+01 0.  1.
        -11    1    1    2    0    0  0.57786014286E+00  0.62774305787E+02  0.44170863270E+02  0.76759446008E+02  0.00000000000E+00 0.  1.
         11    1    1    2    0    0 -0.40867349862E+02  0.12712190383E+02 -0.24251039989E+02  0.49192001480E+02  0.00000000000E+00 0. -1.
<mgrwt>
<rscale>  0 0.14419849E+03</rscale>
<asrwt>0</asrwt>
<pdfrwt beam="2">  1        2 0.30473192E-01 0.15148865E+03</pdfrwt>
<pdfrwt beam="1">  1       -2 0.17305570E-01 0.15148865E+03</pdfrwt>
<totfact> 0.44744322E+03</totfact>
</mgrwt>
</event>
<event>
 7    1  0.7800420E-006  0.2293119E+03  0.7546771E-02  0.1130151E+00
          1   -1    0    0  501    0  0.00000000000E+00  0.00000000000E+00  0.18625122080E+03  0.18625122080E+03  0.00000000000E+00 0. -1.
         -1   -1    0    0    0  501 -0.00000000000E+00 -0.00000000000E+00 -0.29040810259E+03  0.29040810259E+03  0.00000000000E+00 0.  1.
         23    2    1    2    0    0  0.18666190846E+03 -0.46001720031E+02  0.20107257328E+02  0.23019172413E+03  0.12500040697E+03 0.  0.
          5    1    3    3  502    0  0.12336187085E+03 -0.35154434885E+02  0.72283247382E+02  0.14731240044E+03  0.47000000000E+01 0. -1.
         -5    1    3    3    0  502  0.63300037608E+02 -0.10847285146E+02 -0.52175990054E+02  0.82879323684E+02  0.47000000000E+01 0. -1.
        -11    1    1    2    0    0 -0.36401397318E+02  0.31877765109E+02  0.37964802521E+01  0.48535212963E+02  0.00000000000E+00 0. -1.
         11    1    1    2    0    0 -0.15026051114E+03  0.14123954922E+02 -0.12806061937E+03  0.19793238630E+03  0.00000000000E+00 0.  1.
<mgrwt>
<rscale>  0 0.22508046E+03</rscale>
<asrwt>0</asrwt>
<pdfrwt beam="1">  1        1 0.28654034E-01 0.22931186E+03</pdfrwt>
<pdfrwt beam="2">  1       -1 0.44678170E-01 0.22931186E+03</pdfrwt>
<totfact> 0.81249035E+02</totfact>
</mgrwt>
</event>
<event>
 7    1  0.7800420E-006  0.1826223E+03  0.7546771E-02  0.1170484E+00
          1   -1    0    0  501    0  0.00000000000E+00  0.00000000000E+00  0.63399598660E+03  0.63399598660E+03  0.00000000000E+00 0. -1.
         -1   -1    0    0    0  501 -0.00000000000E+00 -0.00000000000E+00 -0.75791657844E+02  0.75791657844E+02  0.00000000000E+00 0.  1.
         23    2    1    2    0    0 -0.10058373088E+03 -0.87226670507E+02  0.50842224539E+03  0.54022596065E+03  0.12500131995E+03 0.  0.
          5    1    3    3  502    0  0.16667848410E+02 -0.12631166378E+02  0.20895519034E+03  0.21005172007E+03  0.47000000000E+01 0. -1.
         -5    1    3    3    0  502 -0.11725157929E+03 -0.74595504129E+02  0.29946705505E+03  0.33017424058E+03  0.47000000000E+01 0. -1.
        -11    1    1    2    0    0  0.53902884213E+02 -0.83251552467E+01  0.26761224229E+02  0.60753537005E+02  0.00000000000E+00 0.  1.
         11    1    1    2    0    0  0.46680846669E+02  0.95551825754E+02  0.23020859130E+02  0.10880814678E+03  0.00000000000E+00 0. -1.
<mgrwt>
<rscale>  0 0.17725721E+03</rscale>
<asrwt>0</asrwt>
<pdfrwt beam="1">  1        1 0.97537841E-01 0.18262231E+03</pdfrwt>
<pdfrwt beam="2">  1       -1 0.11660255E-01 0.18262231E+03</pdfrwt>
<totfact> 0.15518922E+03</totfact>
</mgrwt>
</event>
<event>
 7    1  0.7800420E-006  0.1489726E+03  0.7546771E-02  0.1210775E+00
          1   -1    0    0  501    0  0.00000000000E+00  0.00000000000E+00  0.28687526558E+03  0.28687526558E+03  0.00000000000E+00 0. -1.
         -1   -1    0    0    0  501 -0.00000000000E+00 -0.00000000000E+00 -0.74301940542E+02  0.74301940542E+02  0.00000000000E+00 0.  1.
         23    2    1    2    0    0 -0.76488696170E+02 -0.26784592873E+02  0.18113466713E+03  0.23452631717E+03  0.12499956302E+03 0.  0.
          5    1    3    3  502    0 -0.51454862676E+02  0.46142245856E+02  0.64641330809E+02  0.94748622124E+02  0.47000000000E+01 0. -1.
         -5    1    3    3    0  502 -0.25033833494E+02 -0.72926838729E+02  0.11649333632E+03  0.13977769505E+03  0.47000000000E+01 0. -1.
        -11    1    1    2    0    0  0.69221082184E+01  0.48966350990E+02  0.16393544036E+02  0.52099591145E+02  0.00000000000E+00 0. -1.
         11    1    1    2    0    0  0.69566587952E+02 -0.22181758116E+02  0.15045113871E+02  0.74551297801E+02  0.00000000000E+00 0.  1.
<mgrwt>
<rscale>  0 0.14191530E+03</rscale>
<asrwt>0</asrwt>
<pdfrwt beam="1">  1        1 0.44134656E-01 0.14897257E+03</pdfrwt>
<pdfrwt beam="2">  1       -1 0.11431068E-01 0.14897257E+03</pdfrwt>
<totfact> 0.44296610E+03</totfact>
</mgrwt>
</event>
<event>
 7    1  0.7800420E-006  0.2656537E+03  0.7546771E-02  0.1106054E+00
          2   -1    0    0  501    0  0.00000000000E+00  0.00000000000E+00  0.70565062607E+03  0.70565062607E+03  0.00000000000E+00 0. -1.
         -2   -1    0    0    0  501 -0.00000000000E+00 -0.00000000000E+00 -0.11212004771E+03  0.11212004771E+03  0.00000000000E+00 0.  1.
         23    2    1    2    0    0  0.21787095178E+03 -0.86483125650E+02  0.46632480108E+03  0.53668490731E+03  0.12499914794E+03 0.  0.
          5    1    3    3  502    0 -0.15510857430E+01 -0.38303165784E+02  0.96607354196E+02  0.10404138244E+03  0.47000000000E+01 0. -1.
         -5    1    3    3    0  502  0.21942203752E+03 -0.48179959866E+02  0.36971744688E+03  0.43264352487E+03  0.47000000000E+01 0. -1.
        -11    1    1    2    0    0 -0.15922949520E+03  0.26186596655E+02  0.55770375335E+02  0.17073401756E+03  0.00000000000E+00 0. -1.
         11    1    1    2    0    0 -0.58641456572E+02  0.60296528995E+02  0.71435401948E+02  0.11035174892E+03  0.00000000000E+00 0.  1.
<mgrwt>
<rscale>  0 0.26182187E+03</rscale>
<asrwt>0</asrwt>
<pdfrwt beam="1">  1        2 0.10856163E+00 0.26565366E+03</pdfrwt>
<pdfrwt beam="2">  1       -2 0.17249239E-01 0.26565366E+03</pdfrwt>
<totfact> 0.11257445E+03</totfact>
</mgrwt>
</event>
<event>
 7    1  0.7800420E-006  0.1726824E+03  0.7546771E-02  0.1181615E+00
          2   -1    0    0  501    0  0.00000000000E+00  0.00000000000E+00  0.35959980406E+03  0.35959980406E+03  0.00000000000E+00 0. -1.
         -2   -1    0    0    0  501 -0.00000000000E+00 -0.00000000000E+00 -0.73757301266E+02  0.73757301266E+02  0.00000000000E+00 0.  1.
         23    2    1    2    0    0 -0.23058319210E+01  0.11911892204E+03  0.18698630840E+03  0.25452521065E+03  0.12499827550E+03 0.  0.
          5    1    3    3  502    0 -0.68557298796E+01  0.12949658967E+03  0.19886000915E+03  0.23745265003E+03  0.47000000000E+01 0. -1.
         -5    1    3    3    0  502  0.45498979586E+01 -0.10377667627E+02 -0.11873700745E+02  0.17072560622E+02  0.47000000000E+01 0. -1.
        -11    1    1    2    0    0 -0.19082057634E+02  0.73637143882E+01  0.17601883972E+02  0.26984727764E+02  0.00000000000E+00 0.  1.
         11    1    1    2    0    0  0.21387889555E+02 -0.12648263643E+03  0.81254310421E+02  0.15184716691E+03  0.00000000000E+00 0. -1.
<mgrwt>
<rscale>  0 0.16643721E+03</rscale>
<asrwt>0</asrwt>
<pdfrwt beam="1">  1        2 0.55323046E-01 0.17268238E+03</pdfrwt>
<pdfrwt beam="2">  1       -2 0.11347277E-01 0.17268238E+03</pdfrwt>
<totfact> 0.47300221E+03</totfact>
</mgrwt>
</event>
<event>
 7    1  0.7800420E-006  0.1517196E+03  0.7546771E-02  0.1206801E+00
          1   -1    0    0  501    0  0.00000000000E+00  0.00000000000E+00  0.59165990004E+02  0.59165990004E+02  0.00000000000E+00 0. -1.
         -1   -1    0    0    0  501 -0.00000000000E+00 -0.00000000000E+00 -0.60485412549E+03  0.60485412549E+03  0.00000000000E+00 0.  1.
         23    2    1    2    0    0  0.83181070593E+02 -0.21768354906E+02 -0.61699190719E+02  0.16378529990E+03  0.12500353014E+03 0.  0.
          5    1    3    3  502    0  0.25183224342E+02  0.37390535939E+02  0.17964613363E+02  0.48755146389E+02  0.47000000000E+01 0. -1.
         -5    1    3    3    0  502  0.57997846251E+02 -0.59158890846E+02 -0.79663804082E+02  0.11503015351E+03  0.47000000000E+01 0. -1.
        -11    1    1    2    0    0 -0.78491451870E+02 -0.60723182227E+01 -0.44604710083E+03  0.45294127349E+03  0.00000000000E+00 0.  1.
         11    1    1    2    0    0 -0.46896187230E+01  0.27840673129E+02 -0.37941843934E+02  0.47293542108E+02  0.00000000000E+00 0. -1.
<mgrwt>
<rscale>  0 0.14496423E+03</rscale>
<asrwt>0</asrwt>
<pdfrwt beam="1">  1        1 0.91024602E-02 0.15171959E+03</pdfrwt>
<pdfrwt beam="2">  1       -1 0.93054479E-01 0.15171959E+03</pdfrwt>
<totfact> 0.85310637E+02</totfact>
</mgrwt>
</event>
<event>
 7    1  0.9344836E-006  0.1425424E+03  0.7546771E-02  0.1220222E+00
          1   -1    0    0  501    0  0.00000000000E+00  0.00000000000E+00  0.10630836697E+03  0.10630836697E+03  0.00000000000E+00 0. -1.
         -1   -1    0    0    0  501 -0.00000000000E+00 -0.00000000000E+00 -0.16531956165E+03  0.16531956165E+03  0.00000000000E+00 0.  1.
         23    2    1    2    0    0 -0.59784469152E+02  0.33457964762E+02  0.24860942702E+00  0.14254259484E+03  0.12499884551E+03 0.  0.
          5    1    3    3  502    0  0.25873530335E+02 -0.42501216385E+01 -0.33626571995E+02  0.42899177731E+02  0.47000000000E+01 0. -1.
         -5    1    3    3    0  502 -0.85657999486E+02  0.37708086400E+02  0.33875181422E+02  0.99643417105E+02  0.47000000000E+01 0. -1.
        -11    1    1    2    0    0  0.37663837169E+02  0.28805155323E+02 -0.33997541500E+02  0.58344960635E+02  0.00000000000E+00 0. -1.
         11    1    1    2    0    0  0.22120631982E+02 -0.62263120084E+02 -0.25262262608E+02  0.70740373155E+02  0.00000000000E+00 0.  1.
<mgrwt>
<rscale>  0 0.13499854E+03</rscale>
<asrwt>0</asrwt>
<pdfrwt beam="1">  1        1 0.16355133E-01 0.14254238E+03</pdfrwt>
<pdfrwt beam="2">  1       -1 0.25433779E-01 0.14254238E+03</pdfrwt>
<totfact> 0.43178198E+03</totfact>
</mgrwt>
</event>
<event>
 6    1  0.7800420E-006  0.1463371E+03  0.7546771E-02  0.1226736E+00
          1   -1    0    0  501    0  0.00000000000E+00  0.00000000000E+00  0.14919873200E+03  0.14919873200E+03  0.00000000000E+00 0. -1.
         -1   -1    0    0    0  501 -0.00000000000E+00 -0.00000000000E+00 -0.10400212136E+03  0.10400212136E+03  0.00000000000E+00 0.  1.
          5    1    1    2  502    0 -0.13421495583E+02  0.61891459209E+02  0.51240308461E+02  0.81598703898E+02  0.47000000000E+01 0.  1.
         -5    1    1    2    0  502  0.27808683895E+02 -0.71312559722E+02  0.11190402135E+02  0.77499155957E+02  0.47000000000E+01 0. -1.
        -11    1    1    2    0    0  0.23532227183E+02  0.37931043410E+02 -0.12897354632E+02  0.46463658131E+02  0.00000000000E+00 0.  1.
         11    1    1    2    0    0 -0.37919415495E+02 -0.28509942897E+02 -0.43367453237E+01  0.47639335380E+02  0.00000000000E+00 0. -1.
<mgrwt>
<rscale>  0 0.13048619E+03</rscale>
<asrwt>0</asrwt>
<pdfrwt beam="1">  1        1 0.22953651E-01 0.14633706E+03</pdfrwt>
<pdfrwt beam="2">  1       -1 0.16000326E-01 0.14633706E+03</pdfrwt>
<totfact> 0.59195466E+03</totfact>
</mgrwt>
</event>
<event>
 7    1  0.7800420E-006  0.1316899E+03  0.7546771E-02  0.1237853E+00
         -2   -1    0    0    0  501 -0.00000000000E+00  0.00000000000E+00  0.45766752597E+03  0.45766752597E+03  0.00000000000E+00 0.  1.
          2   -1    0    0  501    0  0.00000000000E+00 -0.00000000000E+00 -0.31990838352E+02  0.31990838352E+02  0.00000000000E+00 0. -1.
         23    2    1    2    0    0  0.25633554510E+02  0.32572864687E+02  0.17204853219E+03  0.21666313956E+03  0.12499659190E+03 0.  0.
          5    1    3    3  502    0  0.41777883637E+02  0.50226253283E+02  0.29138145461E+02  0.71688141286E+02  0.47000000000E+01 0.  1.
         -5    1    3    3    0  502 -0.16144329127E+02 -0.17653388596E+02  0.14291038672E+03  0.14497499828E+03  0.47000000000E+01 0.  1.
        -11    1    1    2    0    0 -0.53529946582E+02 -0.10377824645E+02  0.87606547615E+02  0.10318944525E+03  0.00000000000E+00 0. -1.
         11    1    1    2    0    0  0.27896392072E+02 -0.22195040042E+02  0.16602160782E+03  0.16980577952E+03  0.00000000000E+00 0.  1.
<mgrwt>
<rscale>  0 0.12323519E+03</rscale>
<asrwt>0</asrwt>
<pdfrwt beam="2">  1        2 0.49216678E-02 0.13168986E+03</pdfrwt>
<pdfrwt beam="1">  1       -2 0.70410384E-01 0.13168986E+03</pdfrwt>
<totfact> 0.28852554E+03</totfact>
</mgrwt>
</event>
<event>
 7    1  0.7800420E-006  0.1765935E+03  0.7546771E-02  0.1177634E+00
          2   -1    0    0  501    0  0.00000000000E+00  0.00000000000E+00  0.52986542381E+03  0.52986542381E+03  0.00000000000E+00 0.  1.
         -2   -1    0    0    0  501 -0.00000000000E+00 -0.00000000000E+00 -0.53123486823E+02  0.53123486823E+02  0.00000000000E+00 0. -1.
         23    2    1    2    0    0  0.50844795165E+02  0.11390932055E+03  0.31243853502E+03  0.35889149264E+03  0.12499895527E+03 0.  0.
          5    1    3    3  502    0  0.30508001876E+02 -0.11746612051E+02  0.16962015444E+02  0.37128439788E+02  0.47000000000E+01 0.  1.
         -5    1    3    3    0  502  0.20336793289E+02  0.12565593260E+03  0.29547651958E+03  0.32176305285E+03  0.47000000000E+01 0.  1.
        -11    1    1    2    0    0 -0.42321851134E+02 -0.53538630080E+02  0.14481305883E+03  0.16008855675E+03  0.00000000000E+00 0.  1.
         11    1    1    2    0    0 -0.85229440309E+01 -0.60370690466E+02  0.19490343133E+02  0.64008861244E+02  0.00000000000E+00 0. -1.
<mgrwt>
<rscale>  0 0.17020538E+03</rscale>
<asrwt>0</asrwt>
<pdfrwt beam="1">  1        2 0.81517754E-01 0.17659350E+03</pdfrwt>
<pdfrwt beam="2">  1       -2 0.81728445E-02 0.17659350E+03</pdfrwt>
<totfact> 0.52049507E+03</totfact>
</mgrwt>
</event>
<event>
 7    1  0.7800420E-006  0.4121800E+03  0.7546771E-02  0.1040296E+00
          1   -1    0    0  501    0  0.00000000000E+00  0.00000000000E+00  0.41255172784E+03  0.41255172784E+03  0.00000000000E+00 0. -1.
         -1   -1    0    0    0  501 -0.00000000000E+00 -0.00000000000E+00 -0.40424659810E+03  0.40424659810E+03  0.00000000000E+00 0.  1.
         23    2    1    2    0    0  0.13580694694E+03  0.36968742522E+03  0.12357871170E+02  0.41236524092E+03  0.12157325254E+03 0.  0.
          5    1    3    3  502    0  0.34108349167E+02  0.24787842270E+03 -0.17345130205E+02  0.25085859655E+03  0.47000000000E+01 0. -1.
         -5    1    3    3    0  502  0.10169859777E+03  0.12180900253E+03  0.29703001375E+02  0.16150664437E+03  0.47000000000E+01 0.  1.
        -11    1    1    2    0    0 -0.84993572287E+01 -0.11118741285E+03  0.26654519391E+02  0.11465314324E+03  0.00000000000E+00 0.  1.
         11    1    1    2    0    0 -0.12730758971E+03 -0.25850001237E+03 -0.30707260827E+02  0.28977994178E+03  0.00000000000E+00 0. -1.
<mgrwt>
<rscale>  0 0.41022434E+03</rscale>
<asrwt>0</asrwt>
<pdfrwt beam="1">  1        1 0.63469496E-01 0.41218003E+03</pdfrwt>
<pdfrwt beam="2">  1       -1 0.62191784E-01 0.41218003E+03</pdfrwt>
<totfact> 0.15688525E+02</totfact>
</mgrwt>
</event>
<event>
 7    1  0.7800420E-006  0.1446877E+03  0.7546771E-02  0.1217453E+00
          1   -1    0    0  501    0  0.00000000000E+00  0.00000000000E+00  0.47928601938E+03  0.47928601938E+03  0.00000000000E+00 0. -1.
         -1   -1    0    0    0  501 -0.00000000000E+00 -0.00000000000E+00 -0.36044320782E+02  0.36044320782E+02  0.00000000000E+00 0.  1.
         23    2    1    2    0    0  0.26703423893E+02 -0.67823104525E+02  0.27662538270E+03  0.31217963372E+03  0.12498589920E+03 0.  0.
          5    1    3    3  502    0  0.31984276438E+02 -0.64970582307E+00  0.55390933791E+01  0.32805298541E+02  0.47000000000E+01 0. -1.
         -5    1    3    3    0  502 -0.52808525443E+01 -0.67173398702E+02  0.27108628933E+03  0.27937433518E+03  0.47000000000E+01 0. -1.
        -11    1    1    2    0    0 -0.48449376130E+02  0.48057592630E+02  0.54751921927E+02  0.87490840728E+02  0.00000000000E+00 0.  1.
         11    1    1    2    0    0  0.21745952236E+02  0.19765511896E+02  0.11186439397E+03  0.11565986571E+03  0.00000000000E+00 0. -1.
<mgrwt>
<rscale>  0 0.13697850E+03</rscale>
<asrwt>0</asrwt>
<pdfrwt beam="1">  1        1 0.73736306E-01 0.14468767E+03</pdfrwt>
<pdfrwt beam="2">  1       -1 0.55452805E-02 0.14468767E+03</pdfrwt>
<totfact> 0.69179976E+03</totfact>
</mgrwt>
</event>
<event>
 7    1  0.7800420E-006  0.1571368E+03  0.7546771E-02  0.1200051E+00
          2   -1    0    0  501    0  0.00000000000E+00  0.00000000000E+00  0.69285448688E+03  0.69285448688E+03  0.00000000000E+00 0. -1.
         -2   -1    0    0    0  501 -0.00000000000E+00 -0.00000000000E+00 -0.31518670437E+02  0.31518670437E+02  0.00000000000E+00 0.  1.
         23    2    1    2    0    0  0.93319190711E+02 -0.18923162377E+02  0.43512747238E+03  0.46263150042E+03  0.12500172212E+03 0.  0.
          5    1    3    3  502    0  0.11099224975E+03 -0.48768316475E+02  0.35606235474E+03  0.37616501520E+03  0.47000000000E+01 0. -1.
         -5    1    3    3    0  502 -0.17673059043E+02  0.29845154098E+02  0.79065117641E+02  0.86466485222E+02  0.47000000000E+01 0. -1.
        -11    1    1    2    0    0 -0.64649425695E+02 -0.30923829323E+02  0.99766695017E+02  0.12283820618E+03  0.00000000000E+00 0.  1.
         11    1    1    2    0    0 -0.28669765017E+02  0.49846991700E+02  0.12644164905E+03  0.13890345072E+03  0.00000000000E+00 0. -1.
<mgrwt>
<rscale>  0 0.15034358E+03</rscale>
<asrwt>0</asrwt>
<pdfrwt beam="1">  1        2 0.10659299E+00 0.15713684E+03</pdfrwt>
<pdfrwt beam="2">  1       -2 0.48490267E-02 0.15713684E+03</pdfrwt>
<totfact> 0.84403385E+03</totfact>
</mgrwt>
</event>
<event>
 7    1  0.7800420E-006  0.1550551E+03  0.7546771E-02  0.1199859E+00
          2   -1    0    0  501    0  0.00000000000E+00  0.00000000000E+00  0.14555512205E+03  0.14555512205E+03  0.00000000000E+00 0. -1.
         -2   -1    0    0    0  501 -0.00000000000E+00 -0.00000000000E+00 -0.14861275611E+03  0.14861275611E+03  0.00000000000E+00 0.  1.
         23    2    1    2    0    0 -0.88322493652E+02  0.24729416941E+02  0.13051745768E+02  0.15560341194E+03  0.12501866578E+03 0.  0.
          5    1    3    3  502    0 -0.18673081476E+02  0.69503428408E+02  0.63319641278E+01  0.72398855668E+02  0.47000000000E+01 0. -1.
         -5    1    3    3    0  502 -0.69649412176E+02 -0.44774011467E+02  0.67197816405E+01  0.83204556273E+02  0.47000000000E+01 0. -1.
        -11    1    1    2    0    0 -0.11130103398E+01 -0.22122428653E+02 -0.40205228894E+02  0.45903170609E+02  0.00000000000E+00 0.  1.
         11    1    1    2    0    0  0.89435503992E+02 -0.26069882878E+01  0.24095849057E+02  0.92661295610E+02  0.00000000000E+00 0. -1.
<mgrwt>
<rscale>  0 0.15050076E+03</rscale>
<asrwt>0</asrwt>
<pdfrwt beam="1">  1        2 0.22393096E-01 0.15505507E+03</pdfrwt>
<pdfrwt beam="2">  1       -2 0.22863501E-01 0.15505507E+03</pdfrwt>
<totfact> 0.39231967E+03</totfact>
</mgrwt>
</event>
<event>
 7    1  0.7800420E-006  0.1655324E+03  0.7546771E-02  0.1189838E+00
         -1   -1    0    0    0  501 -0.00000000000E+00  0.00000000000E+00  0.47894441766E+02  0.47894441766E+02  0.00000000000E+00 0.  1.
          1   -1    0    0  501    0  0.00000000000E+00 -0.00000000000E+00 -0.79240939653E+03  0.79240939653E+03  0.00000000000E+00 0. -1.
         23    2    1    2    0    0  0.10141970214E+03 -0.38569524739E+02 -0.64976836342E+03  0.67052210283E+03  0.12500959986E+03 0.  0.
          5    1    3    3  502    0  0.89647757746E+02 -0.78049921532E+02 -0.39922952286E+03  0.41657509845E+03  0.47000000000E+01 0.  1.
         -5    1    3    3    0  502  0.11771944394E+02  0.39480396793E+02 -0.25053884056E+03  0.25394700438E+03  0.47000000000E+01 0.  1.
        -11    1    1    2    0    0 -0.30413444863E+02  0.59161616108E+02 -0.38247191359E+02  0.76732796742E+02  0.00000000000E+00 0.  1.
         11    1    1    2    0    0 -0.71006257277E+02 -0.20592091370E+02 -0.56499399978E+02  0.93048938722E+02  0.00000000000E+00 0. -1.
<mgrwt>
<rscale>  0 0.15899348E+03</rscale>
<asrwt>0</asrwt>
<pdfrwt beam="2">  1        1 0.12190913E+00 0.16553237E+03</pdfrwt>
<pdfrwt beam="1">  1       -1 0.73683759E-02 0.16553237E+03</pdfrwt>
<totfact> 0.22621705E+03</totfact>
</mgrwt>
</event>
<event>
 7    1  0.7800420E-006  0.1422783E+03  0.7546771E-02  0.1220986E+00
         -2   -1    0    0    0  501 -0.00000000000E+00  0.00000000000E+00  0.89219035299E+02  0.89219035299E+02  0.00000000000E+00 0.  1.
          2   -1    0    0  501    0  0.00000000000E+00 -0.00000000000E+00 -0.21000133794E+03  0.21000133794E+03  0.00000000000E+00 0. -1.
         23    2    1    2    0    0  0.33845435519E+02 -0.58924029093E+02 -0.11937794250E+03  0.18572619000E+03  0.12500227912E+03 0.  0.
          5    1    3    3  502    0  0.81310566443E+02 -0.33117844150E+02 -0.70023704598E+02  0.11239932839E+03  0.47000000000E+01 0. -1.
         -5    1    3    3    0  502 -0.47465130924E+02 -0.25806184944E+02 -0.49354237898E+02  0.73326861609E+02  0.47000000000E+01 0. -1.
        -11    1    1    2    0    0 -0.41034291225E+01  0.22367522970E+02  0.43063686477E+02  0.48699335801E+02  0.00000000000E+00 0.  1.
         11    1    1    2    0    0 -0.29742006397E+02  0.36556506123E+02 -0.44468046621E+02  0.64794847439E+02  0.00000000000E+00 0. -1.
<mgrwt>
<rscale>  0 0.13445878E+03</rscale>
<asrwt>0</asrwt>
<pdfrwt beam="2">  1        2 0.32307898E-01 0.14227833E+03</pdfrwt>
<pdfrwt beam="1">  1       -2 0.13726006E-01 0.14227833E+03</pdfrwt>
<totfact> 0.61219799E+03</totfact>
</mgrwt>
</event>
<event>
 7    1  0.7800420E-006  0.1270094E+03  0.7546771E-02  0.1248097E+00
          3   -1    0    0  501    0  0.00000000000E+00  0.00000000000E+00  0.51991464285E+03  0.51991464285E+03  0.00000000000E+00 0. -1.
         -3   -1    0    0    0  501 -0.00000000000E+00 -0.00000000000E+00 -0.25188942372E+02  0.25188942372E+02  0.00000000000E+00 0.  1.
         23    2    1    2    0    0  0.17656840635E+02  0.13995063154E+02  0.36402139220E+03  0.38554243365E+03  0.12499507332E+03 0.  0.
          5    1    3    3  502    0 -0.40468429490E+02 -0.32721175087E+02  0.15433330426E+03  0.16293933806E+03  0.47000000000E+01 0. -1.
         -5    1    3    3    0  502  0.58125270125E+02  0.46716238241E+02  0.20968808794E+03  0.22260309559E+03  0.47000000000E+01 0. -1.
        -11    1    1    2    0    0 -0.59111414272E+01  0.29829064809E+02  0.10063895577E+03  0.10513284034E+03  0.00000000000E+00 0. -1.
         11    1    1    2    0    0 -0.11745699208E+02 -0.43824127963E+02  0.30065352513E+02  0.54428311230E+02  0.00000000000E+00 0.  1.
<mgrwt>
<rscale>  0 0.11701930E+03</rscale>
<asrwt>0</asrwt>
<pdfrwt beam="1">  1        3 0.79986860E-01 0.12700943E+03</pdfrwt>
<pdfrwt beam="2">  1       -3 0.38752223E-02 0.12700943E+03</pdfrwt>
<totfact> 0.11620058E+03</totfact>
</mgrwt>
</event>
<event>
 7    1  0.7800420E-006  0.1466204E+03  0.7546771E-02  0.1214527E+00
         -2   -1    0    0    0  501 -0.00000000000E+00  0.00000000000E+00  0.70526362314E+02  0.70526362314E+02  0.00000000000E+00 0.  1.
          2   -1    0    0  501    0  0.00000000000E+00 -0.00000000000E+00 -0.25697093604E+03  0.25697093604E+03  0.00000000000E+00 0. -1.
         23    2    1    2    0    0 -0.42924032806E+02 -0.63479951085E+02 -0.12999412951E+03  0.19594898298E+03  0.12500141376E+03 0.  0.
          5    1    3    3  502    0 -0.33848721975E+02  0.17128862398E+01 -0.12519397398E+03  0.12978555806E+03  0.47000000000E+01 0. -1.
         -5    1    3    3    0  502 -0.90753108313E+01 -0.65192837325E+02 -0.48001555301E+01  0.66163424928E+02  0.47000000000E+01 0. -1.
        -11    1    1    2    0    0  0.54291692215E+02  0.74830736992E+02 -0.24274286279E+02  0.95584873367E+02  0.00000000000E+00 0.  1.
         11    1    1    2    0    0 -0.11367659408E+02 -0.11350785908E+02 -0.32176157937E+02  0.35963442003E+02  0.00000000000E+00 0. -1.
<mgrwt>
<rscale>  0 0.13911326E+03</rscale>
<asrwt>0</asrwt>
<pdfrwt beam="2">  1        2 0.39533990E-01 0.14662036E+03</pdfrwt>
<pdfrwt beam="1">  1       -2 0.10850210E-01 0.14662036E+03</pdfrwt>
<totfact> 0.71998894E+03</totfact>
</mgrwt>
</event>
<event>
 7    1  0.7800420E-006  0.1257293E+03  0.7546771E-02  0.1248500E+00
          1   -1    0    0  501    0  0.00000000000E+00  0.00000000000E+00  0.90212282042E+02  0.90212282042E+02  0.00000000000E+00 0. -1.
         -1   -1    0    0    0  501 -0.00000000000E+00 -0.00000000000E+00 -0.13586866726E+03  0.13586866726E+03  0.00000000000E+00 0.  1.
         23    2    1    2    0    0  0.12171123222E+02 -0.58434329478E+01 -0.10716922060E+02  0.12618523431E+03  0.12500231594E+03 0.  0.
          5    1    3    3  502    0 -0.22066299279E+02 -0.49314910706E+01  0.50697303889E+02  0.55709494609E+02  0.47000000000E+01 0.  1.
         -5    1    3    3    0  502  0.34237422501E+02 -0.91194187714E+00 -0.61414225949E+02  0.70475739701E+02  0.47000000000E+01 0.  1.
        -11    1    1    2    0    0 -0.41899070633E+02 -0.19443790787E+02 -0.39270398462E+02  0.60628024175E+02  0.00000000000E+00 0.  1.
         11    1    1    2    0    0  0.29727947411E+02  0.25287223734E+02  0.43309353037E+01  0.39267690817E+02  0.00000000000E+00 0. -1.
<mgrwt>
<rscale>  0 0.11678322E+03</rscale>
<asrwt>0</asrwt>
<pdfrwt beam="1">  1        1 0.13878813E-01 0.12572932E+03</pdfrwt>
<pdfrwt beam="2">  1       -1 0.20902872E-01 0.12572932E+03</pdfrwt>
<totfact> 0.72869756E+03</totfact>
</mgrwt>
</event>
<event>
 7    1  0.7800420E-006  0.1346166E+03  0.7546771E-02  0.1232838E+00
          3   -1    0    0  501    0  0.00000000000E+00  0.00000000000E+00  0.29073584900E+03  0.29073584900E+03  0.00000000000E+00 0. -1.
         -3   -1    0    0    0  501 -0.00000000000E+00 -0.00000000000E+00 -0.56614793006E+02  0.56614793006E+02  0.00000000000E+00 0.  1.
         23    2    1    2    0    0  0.34070454004E+02 -0.36659912421E+02  0.19187538820E+03  0.23438809928E+03  0.12496748165E+03 0.  0.
          5    1    3    3  502    0 -0.21650591139E+02 -0.63296887518E+02  0.13290721072E+03  0.14886793048E+03  0.47000000000E+01 0. -1.
         -5    1    3    3    0  502  0.55721045143E+02  0.26636975097E+02  0.58968177488E+02  0.85520168793E+02  0.47000000000E+01 0. -1.
        -11    1    1    2    0    0 -0.28606385215E+02 -0.24132367527E+02 -0.21493510378E+01  0.37487546565E+02  0.00000000000E+00 0.  1.
         11    1    1    2    0    0 -0.54640687887E+01  0.60792279948E+02  0.44395018824E+02  0.75474996160E+02  0.00000000000E+00 0. -1.
<mgrwt>
<rscale>  0 0.12643828E+03</rscale>
<asrwt>0</asrwt>
<pdfrwt beam="1">  1        3 0.44728591E-01 0.13461655E+03</pdfrwt>
<pdfrwt beam="2">  1       -3 0.87099684E-02 0.13461655E+03</pdfrwt>
<totfact> 0.10658307E+03</totfact>
</mgrwt>
</event>
<event>
 7    1  0.7800420E-006  0.1231176E+03  0.7546771E-02  0.1248215E+00
          2   -1    0    0  501    0  0.00000000000E+00  0.00000000000E+00  0.44876487890E+03  0.44876487890E+03  0.00000000000E+00 0. -1.
         -2   -1    0    0    0  501 -0.00000000000E+00 -0.00000000000E+00 -0.56347027698E+02  0.56347027698E+02  0.00000000000E+00 0.  1.
         23    2    1    2    0    0  0.92129567293E+01  0.37272367566E+02  0.38544485554E+03  0.40463028634E+03  0.11697787827E+03 0.  0.
          5    1    3    3  502    0 -0.27088345073E+02  0.69252560507E+02  0.23388276384E+03  0.24546472822E+03  0.47000000000E+01 0. -1.
         -5    1    3    3    0  502  0.36301301802E+02 -0.31980192941E+02  0.15156209170E+03  0.15916555812E+03  0.47000000000E+01 0.  1.
        -11    1    1    2    0    0 -0.16320554657E+02 -0.53663414325E+02  0.35818638592E+02  0.66551464386E+02  0.00000000000E+00 0.  1.
         11    1    1    2    0    0  0.71075979279E+01  0.16391046759E+02 -0.28845642925E+02  0.33930155878E+02  0.00000000000E+00 0. -1.
<mgrwt>
<rscale>  0 0.11694982E+03</rscale>
<asrwt>0</asrwt>
<pdfrwt beam="1">  1        2 0.69040748E-01 0.12311755E+03</pdfrwt>
<pdfrwt beam="2">  1       -2 0.86687738E-02 0.12311755E+03</pdfrwt>
<totfact> 0.55941646E+03</totfact>
</mgrwt>
</event>
<event>
 7    1  0.7800420E-006  0.1645186E+03  0.7546771E-02  0.1190634E+00
         -1   -1    0    0    0  501 -0.00000000000E+00  0.00000000000E+00  0.17019368157E+02  0.17019368157E+02  0.00000000000E+00 0.  1.
          1   -1    0    0  501    0  0.00000000000E+00 -0.00000000000E+00 -0.19690016868E+04  0.19690016868E+04  0.00000000000E+00 0. -1.
         23    2    1    2    0    0 -0.10428579043E+03  0.23780797741E+02 -0.15743405819E+04  0.15829133418E+04  0.12500131053E+03 0.  0.
          5    1    3    3  502    0 -0.57221234486E+02  0.53060533260E+01 -0.14035527010E+04  0.14047365228E+04  0.47000000000E+01 0.  1.
         -5    1    3    3    0  502 -0.47064555942E+02  0.18474744415E+02 -0.17078788082E+03  0.17817681904E+03  0.47000000000E+01 0.  1.
        -11    1    1    2    0    0  0.88200143757E+02  0.23049540974E+02 -0.25757348200E+03  0.27323002274E+03  0.00000000000E+00 0. -1.
         11    1    1    2    0    0  0.16085646671E+02 -0.46830338715E+02 -0.12006825480E+03  0.12987769040E+03  0.00000000000E+00 0.  1.
<mgrwt>
<rscale>  0 0.15829614E+03</rscale>
<asrwt>0</asrwt>
<pdfrwt beam="2">  1        1 0.30292321E+00 0.16451863E+03</pdfrwt>
<pdfrwt beam="1">  1       -1 0.26183654E-02 0.16451863E+03</pdfrwt>
<totfact> 0.16379867E+03</totfact>
</mgrwt>
</event>
<event>
 7    1  0.7800420E-006  0.1515982E+03  0.7546771E-02  0.1208121E+00
          2   -1    0    0  501    0  0.00000000000E+00  0.00000000000E+00  0.24751359157E+03  0.24751359157E+03  0.00000000000E+00 0.  1.
         -2   -1    0    0    0  501 -0.00000000000E+00 -0.00000000000E+00 -0.83440078059E+02  0.83440078059E+02  0.00000000000E+00 0. -1.
         23    2    1    2    0    0  0.38005407018E+02 -0.76896379204E+02  0.13801622150E+03  0.20501336761E+03  0.12499815760E+03 0.  0.
          5    1    3    3  502    0  0.24052084196E+02 -0.93212609529E+02  0.39642745508E+02  0.10421482908E+03  0.47000000000E+01 0.  1.
         -5    1    3    3    0  502  0.13953322823E+02  0.16316230325E+02  0.98373475994E+02  0.10079853853E+03  0.47000000000E+01 0.  1.
        -11    1    1    2    0    0 -0.42166646899E+02  0.23168961480E+02 -0.22763206593E+02  0.53225843922E+02  0.00000000000E+00 0. -1.
         11    1    1    2    0    0  0.41612398810E+01  0.53727417724E+02  0.48820498597E+02  0.72714458094E+02  0.00000000000E+00 0.  1.
<mgrwt>
<rscale>  0 0.14394166E+03</rscale>
<asrwt>0</asrwt>
<pdfrwt beam="1">  1        2 0.38079014E-01 0.15159816E+03</pdfrwt>
<pdfrwt beam="2">  1       -2 0.12836935E-01 0.15159816E+03</pdfrwt>
<totfact> 0.57406732E+03</totfact>
</mgrwt>
</event>
<event>
 7    1  0.7800420E-006  0.1712966E+03  0.7546771E-02  0.1184611E+00
         -3   -1    0    0    0  501 -0.00000000000E+00  0.00000000000E+00  0.43381550540E+03  0.43381550540E+03  0.00000000000E+00 0.  1.
          3   -1    0    0  501    0  0.00000000000E+00 -0.00000000000E+00 -0.60279728818E+02  0.60279728818E+02  0.00000000000E+00 0. -1.
         23    2    1    2    0    0 -0.89835393930E+02  0.75274972078E+02  0.14403498169E+03  0.22380485168E+03  0.12492324148E+03 0.  0.
          5    1    3    3  502    0 -0.33531526391E+02  0.99091363065E+02  0.11633838189E+03  0.15652530338E+03  0.47000000000E+01 0.  1.
         -5    1    3    3    0  502 -0.56303867539E+02 -0.23816390987E+02  0.27696599793E+02  0.67279548301E+02  0.47000000000E+01 0.  1.
        -11    1    1    2    0    0  0.97088031978E+02 -0.37537485790E+02  0.16018277662E+03  0.19103316654E+03  0.00000000000E+00 0.  1.
         11    1    1    2    0    0 -0.72526380476E+01 -0.37737486287E+02  0.69318018280E+02  0.79257216001E+02  0.00000000000E+00 0. -1.
<mgrwt>
<rscale>  0 0.16367368E+03</rscale>
<asrwt>0</asrwt>
<pdfrwt beam="2">  1        3 0.92738047E-02 0.17129663E+03</pdfrwt>
<pdfrwt beam="1">  1       -3 0.66740845E-01 0.17129663E+03</pdfrwt>
<totfact> 0.44111825E+02</totfact>
</mgrwt>
</event>
<event>
 7    1  0.7800420E-006  0.1642313E+03  0.7546771E-02  0.1194723E+00
          2   -1    0    0  501    0  0.00000000000E+00  0.00000000000E+00  0.10347917215E+04  0.10347917215E+04  0.00000000000E+00 0. -1.
         -2   -1    0    0    0  501 -0.00000000000E+00 -0.00000000000E+00 -0.25907875169E+02  0.25907875169E+02  0.00000000000E+00 0.  1.
         23    2    1    2    0    0 -0.14981854731E+02  0.10546298786E+03  0.78532967872E+03  0.80231827106E+03  0.12500002407E+03 0.  0.
          5    1    3    3  502    0 -0.67173906361E+02  0.44364025046E+02  0.47057174614E+03  0.47743099887E+03  0.47000000000E+01 0. -1.
         -5    1    3    3    0  502  0.52192051630E+02  0.61098962818E+02  0.31475793258E+03  0.32488727220E+03  0.47000000000E+01 0. -1.
        -11    1    1    2    0    0 -0.25143591785E+02 -0.49237524608E+02  0.64349538084E+02  0.84837474556E+02  0.00000000000E+00 0.  1.
         11    1    1    2    0    0  0.40125446516E+02 -0.56225463257E+02  0.15920462956E+03  0.17354385109E+03  0.00000000000E+00 0. -1.
<mgrwt>
<rscale>  0 0.15477657E+03</rscale>
<asrwt>0</asrwt>
<pdfrwt beam="1">  1        2 0.15919869E+00 0.16423125E+03</pdfrwt>
<pdfrwt beam="2">  1       -2 0.39858278E-02 0.16423125E+03</pdfrwt>
<totfact> 0.67680551E+03</totfact>
</mgrwt>
</event>
<event>
 7    1  0.7800420E-006  0.1540900E+03  0.7546771E-02  0.1203748E+00
         -2   -1    0    0    0  501 -0.00000000000E+00  0.00000000000E+00  0.36354771732E+02  0.36354771732E+02  0.00000000000E+00 0.  1.
          2   -1    0    0  501    0  0.00000000000E+00 -0.00000000000E+00 -0.79908033122E+03  0.79908033122E+03  0.00000000000E+00 0. -1.
         23    2    1    2    0    0 -0.66225772208E+02  0.61098307275E+02 -0.63699939200E+03  0.65537160870E+03  0.12499945608E+03 0.  0.
          5    1    3    3  502    0 -0.53104268088E+02  0.63390136716E+02 -0.63582567303E+03  0.64119790174E+03  0.47000000000E+01 0.  1.
         -5    1    3    3    0  502 -0.13121504120E+02 -0.22918294412E+01 -0.11737189748E+01  0.14173706953E+02  0.47000000000E+01 0.  1.
        -11    1    1    2    0    0  0.35821585430E+02 -0.32683090269E+02 -0.12949650713E+03  0.13827767618E+03  0.00000000000E+00 0. -1.
         11    1    1    2    0    0  0.30404186778E+02 -0.28415217006E+02  0.37703396388E+01  0.41785818074E+02  0.00000000000E+00 0.  1.
<mgrwt>
<rscale>  0 0.14736553E+03</rscale>
<asrwt>0</asrwt>
<pdfrwt beam="2">  1        2 0.12293542E+00 0.15408997E+03</pdfrwt>
<pdfrwt beam="1">  1       -2 0.55930426E-02 0.15408997E+03</pdfrwt>
<totfact> 0.57125915E+03</totfact>
</mgrwt>
</event>
<event>
 7    1  0.7800420E-006  0.1334096E+03  0.7546771E-02  0.1235546E+00
          1   -1    0    0  501    0  0.00000000000E+00  0.00000000000E+00  0.16994749677E+03  0.16994749677E+03  0.00000000000E+00 0. -1.
         -1   -1    0    0    0  501 -0.00000000000E+00 -0.00000000000E+00 -0.10764474912E+03  0.10764474912E+03  0.00000000000E+00 0.  1.
         23    2    1    2    0    0  0.32252744292E+02  0.33654066304E+02  0.10238029633E+03  0.16816613846E+03  0.12500115741E+03 0.  0.
          5    1    3    3  502    0 -0.20211393021E+02  0.50524604271E+02  0.98611681370E+02  0.11272794572E+03  0.47000000000E+01 0. -1.
         -5    1    3    3    0  502  0.52464137314E+02 -0.16870537967E+02  0.37686149644E+01  0.55438192739E+02  0.47000000000E+01 0. -1.
        -11    1    1    2    0    0  0.18375219942E+02 -0.37903179524E+02 -0.40761285869E+02  0.58615545307E+02  0.00000000000E+00 0.  1.
         11    1    1    2    0    0 -0.50627964235E+02  0.42491132204E+01  0.68373718310E+00  0.50810562113E+02  0.00000000000E+00 0. -1.
<mgrwt>
<rscale>  0 0.12469571E+03</rscale>
<asrwt>0</asrwt>
<pdfrwt beam="1">  1        1 0.26145769E-01 0.13340961E+03</pdfrwt>
<pdfrwt beam="2">  1       -1 0.16560731E-01 0.13340961E+03</pdfrwt>
<totfact> 0.47327329E+03</totfact>
</mgrwt>
</event>
<event>
 7    1  0.7800420E-006  0.1435604E+03  0.7546771E-02  0.1218816E+00
         -1   -1    0    0    0  501 -0.00000000000E+00  0.00000000000E+00  0.16801656211E+02  0.16801656211E+02  0.00000000000E+00 0.  1.
          1   -1    0    0  501    0  0.00000000000E+00 -0.00000000000E+00 -0.11042504921E+04  0.11042504921E+04  0.00000000000E+00 0. -1.
         23    2    1    2    0    0  0.57405817298E+02 -0.40907152660E+02 -0.76847084907E+03  0.78176534002E+03  0.12506309603E+03 0.  0.
          5    1    3    3  502    0  0.81946078160E+02 -0.55857908280E+02 -0.70472197077E+03  0.71168139763E+03  0.47000000000E+01 0.  1.
         -5    1    3    3    0  502 -0.24540260862E+02  0.14950755621E+02 -0.63748878295E+02  0.70083942389E+02  0.47000000000E+01 0.  1.
        -11    1    1    2    0    0  0.22205809006E+02  0.76938915173E+01 -0.32522787609E+02  0.40125124724E+02  0.00000000000E+00 0.  1.
         11    1    1    2    0    0 -0.79611626305E+02  0.33213261142E+02 -0.28645519918E+03  0.29916168353E+03  0.00000000000E+00 0. -1.
<mgrwt>
<rscale>  0 0.13599933E+03</rscale>
<asrwt>0</asrwt>
<pdfrwt beam="2">  1        1 0.16988475E+00 0.14356044E+03</pdfrwt>
<pdfrwt beam="1">  1       -1 0.25848693E-02 0.14356044E+03</pdfrwt>
<totfact> 0.61522246E+03</totfact>
</mgrwt>
</event>
<event>
 7    1  0.7800420E-006  0.1281637E+03  0.7546771E-02  0.1243578E+00
          2   -1    0    0  501    0  0.00000000000E+00  0.00000000000E+00  0.34599765406E+03  0.34599765406E+03  0.00000000000E+00 0. -1.
         -2   -1    0    0    0  501 -0.00000000000E+00 -0.00000000000E+00 -0.43898141072E+02  0.43898141072E+02  0.00000000000E+00 0.  1.
         23    2    1    2    0    0  0.11830103214E+02 -0.25718788566E+02  0.24595741591E+03  0.27734633426E+03  0.12499812503E+03 0.  0.
          5    1    3    3  502    0  0.35228266292E+02  0.39936089369E+02  0.14529902289E+03  0.15482189132E+03  0.47000000000E+01 0.  1.
         -5    1    3    3    0  502 -0.23398163079E+02 -0.65654877935E+02  0.10065839302E+03  0.12252444294E+03  0.47000000000E+01 0.  1.
        -11    1    1    2    0    0 -0.39858922610E+02  0.38320726603E+02  0.86251639925E+01  0.55960747430E+02  0.00000000000E+00 0.  1.
         11    1    1    2    0    0  0.28028819396E+02 -0.12601938037E+02  0.47516933079E+02  0.56588713435E+02  0.00000000000E+00 0. -1.
<mgrwt>
<rscale>  0 0.11970918E+03</rscale>
<asrwt>0</asrwt>
<pdfrwt beam="1">  1        2 0.53230407E-01 0.12816372E+03</pdfrwt>
<pdfrwt beam="2">  1       -2 0.67535604E-02 0.12816372E+03</pdfrwt>
<totfact> 0.10863368E+04</totfact>
</mgrwt>
</event>
<event>
 7    1  0.7800420E-006  0.1614229E+03  0.7546771E-02  0.1194811E+00
         -2   -1    0    0    0  501 -0.00000000000E+00  0.00000000000E+00  0.52152125101E+03  0.52152125101E+03  0.00000000000E+00 0. -1.
          2   -1    0    0  501    0  0.00000000000E+00 -0.00000000000E+00 -0.42539725263E+02  0.42539725263E+02  0.00000000000E+00 0.  1.
         23    2    1    2    0    0 -0.24504529908E+02 -0.99166085628E+02  0.24719046401E+03  0.29522955134E+03  0.12499191159E+03 0.  0.
          5    1    3    3  502    0 -0.12672009424E+02 -0.11328748778E+03  0.11613011411E+03  0.16279719935E+03  0.47000000000E+01 0. -1.
         -5    1    3    3    0  502 -0.11832520484E+02  0.14121402156E+02  0.13106034990E+03  0.13243235200E+03  0.47000000000E+01 0. -1.
        -11    1    1    2    0    0  0.47617279469E+02  0.54742859790E+02  0.75487762631E+02  0.10470237967E+03  0.00000000000E+00 0.  1.
         11    1    1    2    0    0 -0.23112749560E+02  0.44423225837E+02  0.15630329910E+03  0.16412904525E+03  0.00000000000E+00 0. -1.
<mgrwt>
<rscale>  0 0.15470242E+03</rscale>
<asrwt>0</asrwt>
<pdfrwt beam="2">  1        2 0.65445735E-02 0.16142293E+03</pdfrwt>
<pdfrwt beam="1">  1       -2 0.80234034E-01 0.16142293E+03</pdfrwt>
<totfact> 0.15221697E+03</totfact>
</mgrwt>
</event>
<event>
 7    1  0.7800420E-006  0.1872378E+03  0.7546771E-02  0.1165962E+00
          1   -1    0    0  501    0  0.00000000000E+00  0.00000000000E+00  0.23077671330E+04  0.23077671330E+04  0.00000000000E+00 0. -1.
         -1   -1    0    0    0  501 -0.00000000000E+00 -0.00000000000E+00 -0.14343663914E+02  0.14343663914E+02  0.00000000000E+00 0.  1.
         23    2    1    2    0    0 -0.30662940672E+02 -0.13598356702E+03  0.14764737821E+04  0.14882986333E+04  0.12500498508E+03 0.  0.
          5    1    3    3  502    0  0.92965624604E+01  0.55105381524E+00  0.85443296940E+01  0.13484261337E+02  0.47000000000E+01 0. -1.
         -5    1    3    3    0  502 -0.39959503133E+02 -0.13653462083E+03  0.14679294524E+04  0.14748143720E+04  0.47000000000E+01 0. -1.
        -11    1    1    2    0    0 -0.24904051005E+02  0.86710993641E+02  0.51650320899E+03  0.52432296638E+03  0.00000000000E+00 0.  1.
         11    1    1    2    0    0  0.55566991677E+02  0.49272573376E+02  0.30044647800E+03  0.30948919721E+03  0.00000000000E+00 0. -1.
<mgrwt>
<rscale>  0 0.18191599E+03</rscale>
<asrwt>0</asrwt>
<pdfrwt beam="1">  1        1 0.35504080E+00 0.18723780E+03</pdfrwt>
<pdfrwt beam="2">  1       -1 0.22067194E-02 0.18723780E+03</pdfrwt>
<totfact> 0.12697804E+03</totfact>
</mgrwt>
</event>
<event>
 7    1  0.7800420E-006  0.1285127E+03  0.7546771E-02  0.1272417E+00
          1   -1    0    0  501    0  0.00000000000E+00  0.00000000000E+00  0.31721490112E+04  0.31721490112E+04  0.00000000000E+00 0. -1.
         -1   -1    0    0    0  501 -0.00000000000E+00 -0.00000000000E+00 -0.60911446356E+01  0.60911446356E+01  0.00000000000E+00 0.  1.
         23    2    1    2    0    0  0.25200702830E+02 -0.79851696028E+01  0.30118342961E+04  0.30145748190E+04  0.12576435779E+03 0.  0.
          5    1    3    3  502    0 -0.24200451128E+02 -0.10597588946E+02  0.25380083869E+04  0.25381502384E+04  0.47000000000E+01 0. -1.
         -5    1    3    3    0  502  0.49401153958E+02  0.26124193432E+01  0.47382590926E+03  0.47642458064E+03  0.47000000000E+01 0.  1.
        -11    1    1    2    0    0 -0.34685959663E+00 -0.15672468865E+02  0.84662007307E+02  0.86101115400E+02  0.00000000000E+00 0. -1.
         11    1    1    2    0    0 -0.24853843233E+02  0.23657638468E+02  0.69561563145E+02  0.77564221445E+02  0.00000000000E+00 0.  1.
<mgrwt>
<rscale>  0 0.10384261E+03</rscale>
<asrwt>0</asrwt>
<pdfrwt beam="1">  1        1 0.48802161E+00 0.12851269E+03</pdfrwt>
<pdfrwt beam="2">  1       -1 0.93710171E-03 0.12851269E+03</pdfrwt>
<totfact> 0.11529382E+03</totfact>
</mgrwt>
</event>
<event>
 7    1  0.7800420E-006  0.1359889E+03  0.7546771E-02  0.1231393E+00
          1   -1    0    0  501    0  0.00000000000E+00  0.00000000000E+00  0.33863165329E+02  0.33863165329E+02  0.00000000000E+00 0. -1.
         -1   -1    0    0    0  501 -0.00000000000E+00 -0.00000000000E+00 -0.44204153483E+03  0.44204153483E+03  0.00000000000E+00 0.  1.
         23    2    1    2    0    0  0.19451876663E+02  0.49897223475E+02 -0.18719600532E+03  0.23137703725E+03  0.12499952216E+03 0.  0.
          5    1    3    3  502    0 -0.47872236820E+02  0.14476179184E+02 -0.11874342512E+03  0.12893177200E+03  0.47000000000E+01 0.  1.
         -5    1    3    3    0  502  0.67324113483E+02  0.35421044291E+02 -0.68452580201E+02  0.10244526524E+03  0.47000000000E+01 0.  1.
        -11    1    1    2    0    0 -0.14276083983E+02  0.20558775403E+00  0.33040843706E+01  0.14654890437E+02  0.00000000000E+00 0. -1.
         11    1    1    2    0    0 -0.51757926807E+01 -0.50102811229E+02 -0.22428644855E+03  0.22987277247E+03  0.00000000000E+00 0.  1.
<mgrwt>
<rscale>  0 0.12738164E+03</rscale>
<asrwt>0</asrwt>
<pdfrwt beam="1">  1        1 0.52097178E-02 0.13598893E+03</pdfrwt>
<pdfrwt beam="2">  1       -1 0.68006389E-01 0.13598893E+03</pdfrwt>
<totfact> 0.34336618E+03</totfact>
</mgrwt>
</event>
<event>
 7    1  0.7800420E-006  0.2105017E+03  0.7546771E-02  0.1143828E+00
         -1   -1    0    0    0  501 -0.00000000000E+00  0.00000000000E+00  0.54125320820E+02  0.54125320820E+02  0.00000000000E+00 0.  1.
          1   -1    0    0  501    0  0.00000000000E+00 -0.00000000000E+00 -0.81363464101E+03  0.81363464101E+03  0.00000000000E+00 0. -1.
         23    2    1    2    0    0  0.74298196187E+02 -0.15220713207E+03 -0.49297277811E+03  0.53603461241E+03  0.12499485082E+03 0.  0.
          5    1    3    3  502    0  0.16076768828E+02  0.21198682736E+02 -0.76763272565E+02  0.81378969400E+02  0.47000000000E+01 0.  1.
         -5    1    3    3    0  502  0.58221427359E+02 -0.17340581480E+03 -0.41620950555E+03  0.45465564301E+03  0.47000000000E+01 0.  1.
        -11    1    1    2    0    0 -0.58975740341E+02  0.20368555502E+02 -0.11028404134E+03  0.12671063797E+03  0.00000000000E+00 0.  1.
         11    1    1    2    0    0 -0.15322455846E+02  0.13183857656E+03 -0.15625250074E+03  0.20501471145E+03  0.00000000000E+00 0. -1.
<mgrwt>
<rscale>  0 0.20716896E+03</rscale>
<asrwt>0</asrwt>
<pdfrwt beam="2">  1        1 0.12517456E+00 0.21050165E+03</pdfrwt>
<pdfrwt beam="1">  1       -1 0.83269723E-02 0.21050165E+03</pdfrwt>
<totfact> 0.18112075E+03</totfact>
</mgrwt>
</event>
<event>
 7    1  0.7800420E-006  0.1534926E+03  0.7546771E-02  0.1203315E+00
          2   -1    0    0  501    0  0.00000000000E+00  0.00000000000E+00  0.11324865233E+03  0.11324865233E+03  0.00000000000E+00 0. -1.
         -2   -1    0    0    0  501 -0.00000000000E+00 -0.00000000000E+00 -0.18359003281E+03  0.18359003281E+03  0.00000000000E+00 0.  1.
         23    2    1    2    0    0  0.79176821590E+02  0.39805011777E+02 -0.15637217667E+02  0.15428709587E+03  0.12532588454E+03 0.  0.
          5    1    3    3  502    0  0.59920020372E+02  0.45001778144E+02  0.46866042198E+02  0.88510365431E+02  0.47000000000E+01 0. -1.
         -5    1    3    3    0  502  0.19256801218E+02 -0.51967663672E+01 -0.62503259865E+02  0.65776730441E+02  0.47000000000E+01 0.  1.
        -11    1    1    2    0    0 -0.67042808639E+02 -0.54318324122E+02 -0.17322277509E+01  0.86303065639E+02  0.00000000000E+00 0.  1.
         11    1    1    2    0    0 -0.12134012951E+02  0.14513312345E+02 -0.52971935067E+02  0.56248523627E+02  0.00000000000E+00 0. -1.
<mgrwt>
<rscale>  0 0.14771019E+03</rscale>
<asrwt>0</asrwt>
<pdfrwt beam="1">  1        2 0.17422870E-01 0.15349262E+03</pdfrwt>
<pdfrwt beam="2">  1       -2 0.28244620E-01 0.15349262E+03</pdfrwt>
<totfact> 0.35984140E+03</totfact>
</mgrwt>
</event>
<event>
 7    1  0.7800420E-006  0.1359387E+03  0.7546771E-02  0.1232762E+00
         -2   -1    0    0    0  501 -0.00000000000E+00  0.00000000000E+00  0.11440790223E+03  0.11440790223E+03  0.00000000000E+00 0.  1.
          2   -1    0    0  501    0  0.00000000000E+00 -0.00000000000E+00 -0.12364576518E+03  0.12364576518E+03  0.00000000000E+00 0. -1.
         23    2    1    2    0    0  0.15577552743E+02 -0.51096887864E+02 -0.73858100873E+01  0.13613924165E+03  0.12500316327E+03 0.  0.
          5    1    3    3  502    0  0.30238940481E+02 -0.87910419469E+02 -0.18087860041E+02  0.94825608638E+02  0.47000000000E+01 0. -1.
         -5    1    3    3    0  502 -0.14661387738E+02  0.36813531605E+02  0.10702049954E+02  0.41313633015E+02  0.47000000000E+01 0. -1.
        -11    1    1    2    0    0  0.10601383050E+02 -0.13231792187E+02 -0.23670490699E+02  0.29116348963E+02  0.00000000000E+00 0. -1.
         11    1    1    2    0    0 -0.26178935793E+02  0.64328680050E+02  0.21818437832E+02  0.72798076799E+02  0.00000000000E+00 0.  1.
<mgrwt>
<rscale>  0 0.12648774E+03</rscale>
<asrwt>0</asrwt>
<pdfrwt beam="2">  1        2 0.19022425E-01 0.13593875E+03</pdfrwt>
<pdfrwt beam="1">  1       -2 0.17601216E-01 0.13593875E+03</pdfrwt>
<totfact> 0.72877695E+03</totfact>
</mgrwt>
</event>
<event>
 7    1  0.7800420E-006  0.1476822E+03  0.7546771E-02  0.1212499E+00
          1   -1    0    0  501    0  0.00000000000E+00  0.00000000000E+00  0.38942630294E+03  0.38942630294E+03  0.00000000000E+00 0. -1.
         -1   -1    0    0    0  501 -0.00000000000E+00 -0.00000000000E+00 -0.47300434559E+02  0.47300434559E+02  0.00000000000E+00 0.  1.
         23    2    1    2    0    0  0.61009829636E+02 -0.49623900799E+02  0.21613528073E+03  0.26177181715E+03  0.12500117533E+03 0.  0.
          5    1    3    3  502    0  0.35762371632E+02 -0.82806175624E+02  0.19475396010E+03  0.21467884135E+03  0.47000000000E+01 0. -1.
         -5    1    3    3    0  502  0.25247458005E+02  0.33182274826E+02  0.21381320631E+02  0.47092975806E+02  0.47000000000E+01 0. -1.
        -11    1    1    2    0    0 -0.62022170914E+02  0.28848389277E+02  0.13572646525E+03  0.15198898848E+03  0.00000000000E+00 0. -1.
         11    1    1    2    0    0  0.10123412770E+01  0.20775511521E+02 -0.97358776048E+01  0.22965931868E+02  0.00000000000E+00 0.  1.
<mgrwt>
<rscale>  0 0.14061836E+03</rscale>
<asrwt>0</asrwt>
<pdfrwt beam="1">  1        1 0.59911737E-01 0.14768217E+03</pdfrwt>
<pdfrwt beam="2">  1       -1 0.72769902E-02 0.14768217E+03</pdfrwt>
<totfact> 0.60127222E+03</totfact>
</mgrwt>
</event>
<event>
 6    1  0.7800420E-006  0.1374593E+03  0.7546771E-02  0.1234146E+00
         -2   -1    0    0    0  501 -0.00000000000E+00  0.00000000000E+00  0.22452630056E+03  0.22452630056E+03  0.00000000000E+00 0.  1.
          2   -1    0    0  501    0  0.00000000000E+00 -0.00000000000E+00 -0.64040798817E+02  0.64040798817E+02  0.00000000000E+00 0. -1.
          5    1    1    2  502    0  0.56872130390E+02 -0.59251193979E+01 -0.11618454998E+02  0.58537379097E+02  0.47000000000E+01 0. -1.
         -5    1    1    2    0  502 -0.42614185675E+02  0.36619788053E+02  0.72388056575E+02  0.91755645235E+02  0.47000000000E+01 0.  1.
        -11    1    1    2    0    0 -0.41466469811E+02  0.11077368256E+02  0.29182355918E+02  0.51901696533E+02  0.00000000000E+00 0. -1.
         11    1    1    2    0    0  0.27208525096E+02 -0.41772036912E+02  0.70533544251E+02  0.86372378515E+02  0.00000000000E+00 0.  1.
<mgrwt>
<rscale>  0 0.12559284E+03</rscale>
<asrwt>0</asrwt>
<pdfrwt beam="2">  1        2 0.98524307E-02 0.13745926E+03</pdfrwt>
<pdfrwt beam="1">  1       -2 0.34542508E-01 0.13745926E+03</pdfrwt>
<totfact> 0.48944158E+03</totfact>
</mgrwt>
</event>
<event>
 7    1  0.7800420E-006  0.1647721E+03  0.7546771E-02  0.1189697E+00
         -1   -1    0    0    0  501 -0.00000000000E+00  0.00000000000E+00  0.10912956776E+03  0.10912956776E+03  0.00000000000E+00 0.  1.
          1   -1    0    0  501    0  0.00000000000E+00 -0.00000000000E+00 -0.21766006941E+03  0.21766006941E+03  0.00000000000E+00 0. -1.
         23    2    1    2    0    0 -0.10682978537E+03 -0.10561216753E+02 -0.52498574909E+02  0.17293332175E+03  0.12500276422E+03 0.  0.
          5    1    3    3  502    0 -0.13055443040E+03 -0.29648858794E+02 -0.42540504295E+02  0.14055354364E+03  0.47000000000E+01 0. -1.
         -5    1    3    3    0  502  0.23724645028E+02  0.19087642041E+02 -0.99580706142E+01  0.32379778114E+02  0.47000000000E+01 0. -1.
        -11    1    1    2    0    0  0.73898152627E+02 -0.13828002298E+01  0.14301368430E+02  0.75281991453E+02  0.00000000000E+00 0.  1.
         11    1    1    2    0    0  0.32931632742E+02  0.11944016983E+02 -0.70333295167E+02  0.78574323960E+02  0.00000000000E+00 0. -1.
<mgrwt>
<rscale>  0 0.15911719E+03</rscale>
<asrwt>0</asrwt>
<pdfrwt beam="2">  1        1 0.33486164E-01 0.16477207E+03</pdfrwt>
<pdfrwt beam="1">  1       -1 0.16789164E-01 0.16477207E+03</pdfrwt>
<totfact> 0.34387361E+03</totfact>
</mgrwt>
</event>
<event>
 6    1  0.7800420E-006  0.4233739E+03  0.7546771E-02  0.1080517E+00
         -2   -1    0    0    0  501 -0.00000000000E+00  0.00000000000E+00  0.44959464057E+02  0.44959464057E+02  0.00000000000E+00 0.  1.
          2   -1    0    0  501    0  0.00000000000E+00 -0.00000000000E+00 -0.21261216352E+04  0.21261216352E+04  0.00000000000E+00 0. -1.
          5    1    1    2  502    0  0.87325418035E+02 -0.33814877070E+01 -0.18588332006E+04  0.18608922915E+04  0.47000000000E+01 0. -1.
         -5    1    1    2    0  502 -0.54228698115E+02  0.76100547217E+02 -0.78411412599E+02  0.12207573310E+03  0.47000000000E+01 0.  1.
        -11    1    1    2    0    0  0.34267421319E+01 -0.62501489309E+02 -0.13550698286E+03  0.14926594096E+03  0.00000000000E+00 0.  1.
         11    1    1    2    0    0 -0.36523462052E+02 -0.10217570201E+02 -0.84105751143E+01  0.38847133676E+02  0.00000000000E+00 0. -1.
<mgrwt>
<rscale>  0 0.30964398E+03</rscale>
<asrwt>0</asrwt>
<pdfrwt beam="2">  1        2 0.32709574E+00 0.42337394E+03</pdfrwt>
<pdfrwt beam="1">  1       -2 0.69168385E-02 0.42337394E+03</pdfrwt>
<totfact> 0.74283325E+02</totfact>
</mgrwt>
</event>
<event>
 6    1  0.7800420E-006  0.2205089E+03  0.7546771E-02  0.1158929E+00
         -2   -1    0    0    0  501 -0.00000000000E+00  0.00000000000E+00  0.36011570131E+02  0.36011570131E+02  0.00000000000E+00 0.  1.
          2   -1    0    0  501    0  0.00000000000E+00 -0.00000000000E+00 -0.82522710947E+03  0.82522710947E+03  0.00000000000E+00 0. -1.
          5    1    1    2  502    0 -0.58847996114E+01  0.49285106862E+02 -0.44064232133E+03  0.44345394121E+03  0.47000000000E+01 0. -1.
         -5    1    1    2    0  502 -0.16055511492E+02 -0.50419245297E+02 -0.45012247673E+01  0.53312576096E+02  0.47000000000E+01 0.  1.
        -11    1    1    2    0    0 -0.35234479812E+01 -0.53099174473E+02 -0.22460647547E+03  0.23082462138E+03  0.00000000000E+00 0.  1.
         11    1    1    2    0    0  0.25463759084E+02  0.54233312907E+02 -0.11946551778E+03  0.13364754092E+03  0.00000000000E+00 0. -1.
<mgrwt>
<rscale>  0 0.18948278E+03</rscale>
<asrwt>0</asrwt>
<pdfrwt beam="2">  1        2 0.12695802E+00 0.22050895E+03</pdfrwt>
<pdfrwt beam="1">  1       -2 0.55402415E-02 0.22050895E+03</pdfrwt>
<totfact> 0.56435565E+03</totfact>
</mgrwt>
</event>
<event>
 7    1  0.7800420E-006  0.1395493E+03  0.7546771E-02  0.1225197E+00
         -1   -1    0    0    0  501 -0.00000000000E+00  0.00000000000E+00  0.27699851657E+02  0.27699851657E+02  0.00000000000E+00 0.  1.
          1   -1    0    0  501    0  0.00000000000E+00 -0.00000000000E+00 -0.12212533899E+04  0.12212533899E+04  0.00000000000E+00 0. -1.
         23    2    1    2    0    0  0.61915332319E+02 -0.52428766716E+01 -0.10862598712E+04  0.10951869804E+04  0.12495206336E+03 0.  0.
          5    1    3    3  502    0  0.27395396156E+02  0.30223392149E+02 -0.10612020401E+03  0.11378729658E+03  0.47000000000E+01 0. -1.
         -5    1    3    3    0  502  0.34519936164E+02 -0.35466268821E+02 -0.98013966718E+03  0.98139968382E+03  0.47000000000E+01 0. -1.
        -11    1    1    2    0    0  0.20907719189E+02  0.15161320871E+02 -0.34211808321E+02  0.42865442968E+02  0.00000000000E+00 0. -1.
         11    1    1    2    0    0 -0.82823051508E+02 -0.99184441991E+01 -0.73081858684E+02  0.11090081815E+03  0.00000000000E+00 0.  1.
<mgrwt>
<rscale>  0 0.13153398E+03</rscale>
<asrwt>0</asrwt>
<pdfrwt beam="2">  1        1 0.18788511E+00 0.13954933E+03</pdfrwt>
<pdfrwt beam="1">  1       -1 0.42615162E-02 0.13954933E+03</pdfrwt>
<totfact> 0.24560294E+03</totfact>
</mgrwt>
</event>
<event>
 7    1  0.7800420E-006  0.1454121E+03  0.7546771E-02  0.1216518E+00
         -1   -1    0    0    0  501 -0.00000000000E+00  0.00000000000E+00  0.26112672049E+02  0.26112672049E+02  0.00000000000E+00 0.  1.
          1   -1    0    0  501    0  0.00000000000E+00 -0.00000000000E+00 -0.24261869180E+04  0.24261869180E+04  0.00000000000E+00 0. -1.
         23    2    1    2    0    0 -0.34576408365E+02  0.65741443979E+02 -0.22805913632E+04  0.22852224488E+04  0.12500883733E+03 0.  0.
          5    1    3    3  502    0 -0.35708462435E+02  0.79211019995E+02 -0.82782634654E+03  0.83238694728E+03  0.47000000000E+01 0.  1.
         -5    1    3    3    0  502  0.11320540704E+01 -0.13469576016E+02 -0.14527650166E+04  0.14528355015E+04  0.47000000000E+01 0.  1.
        -11    1    1    2    0    0 -0.83000603764E+01 -0.72846607920E+02 -0.74241309874E+02  0.10434218408E+03  0.00000000000E+00 0. -1.
         11    1    1    2    0    0  0.42876468741E+02  0.71051639409E+01 -0.45241572879E+02  0.62734957105E+02  0.00000000000E+00 0.  1.
<mgrwt>
<rscale>  0 0.13765648E+03</rscale>
<asrwt>0</asrwt>
<pdfrwt beam="2">  1        1 0.37325962E+00 0.14541209E+03</pdfrwt>
<pdfrwt beam="1">  1       -1 0.40173332E-02 0.14541209E+03</pdfrwt>
<totfact> 0.44614661E+02</totfact>
</mgrwt>
</event>
<event>
 7    1  0.7800420E-006  0.1279226E+03  0.7546771E-02  0.1244719E+00
          1   -1    0    0  501    0  0.00000000000E+00  0.00000000000E+00  0.31616082720E+03  0.31616082720E+03  0.00000000000E+00 0. -1.
         -1   -1    0    0    0  501 -0.00000000000E+00 -0.00000000000E+00 -0.45690677661E+02  0.45690677661E+02  0.00000000000E+00 0.  1.
         23    2    1    2    0    0  0.26541414315E+01  0.27138972674E+02  0.21748278034E+03  0.25231516100E+03  0.12498244846E+03 0.  0.
          5    1    3    3  502    0 -0.42490790328E+02 -0.21713473586E+02  0.14986031649E+03  0.15734403915E+03  0.47000000000E+01 0. -1.
         -5    1    3    3    0  502  0.45144931759E+02  0.48852446260E+02  0.67622463852E+02  0.94971121856E+02  0.47000000000E+01 0. -1.
        -11    1    1    2    0    0 -0.43876818017E+02 -0.75240028116E+00  0.38802192222E+02  0.58577737978E+02  0.00000000000E+00 0. -1.
         11    1    1    2    0    0  0.41222676585E+02 -0.26386572393E+02  0.14185176983E+02  0.50958605883E+02  0.00000000000E+00 0.  1.
<mgrwt>
<rscale>  0 0.11902222E+03</rscale>
<asrwt>0</asrwt>
<pdfrwt beam="1">  1        1 0.48640126E-01 0.12792256E+03</pdfrwt>
<pdfrwt beam="2">  1       -1 0.70293352E-02 0.12792256E+03</pdfrwt>
<totfact> 0.81403638E+03</totfact>
</mgrwt>
</event>
<event>
 7    1  0.7800420E-006  0.1111016E+03  0.7546771E-02  0.1268407E+00
         -1   -1    0    0    0  501 -0.00000000000E+00  0.00000000000E+00  0.95613266608E+02  0.95613266608E+02  0.00000000000E+00 0.  1.
          1   -1    0    0  501    0  0.00000000000E+00 -0.00000000000E+00 -0.18809424700E+03  0.18809424700E+03  0.00000000000E+00 0. -1.
         23    2    1    2    0    0 -0.32541093040E+01 -0.21177134320E+01 -0.14141368746E+03  0.17983714610E+03  0.11103375243E+03 0.  0.
          5    1    3    3  502    0 -0.36215381516E+02 -0.43125236924E+02 -0.88991392162E+02  0.10541772999E+03  0.47000000000E+01 0. -1.
         -5    1    3    3    0  502  0.32961272212E+02  0.41007523492E+02 -0.52422295303E+02  0.74419416106E+02  0.47000000000E+01 0.  1.
        -11    1    1    2    0    0 -0.39863891837E+02  0.16491140232E+02  0.37114303293E+02  0.56908339349E+02  0.00000000000E+00 0.  1.
         11    1    1    2    0    0  0.43118001141E+02 -0.14373426800E+02  0.11818403784E+02  0.46962028155E+02  0.00000000000E+00 0. -1.
<mgrwt>
<rscale>  0 0.10587430E+03</rscale>
<asrwt>0</asrwt>
<pdfrwt beam="2">  1        1 0.28937576E-01 0.11110161E+03</pdfrwt>
<pdfrwt beam="1">  1       -1 0.14709734E-01 0.11110161E+03</pdfrwt>
<totfact> 0.49655402E+03</totfact>
</mgrwt>
</event>
<event>
 7    1  0.7800420E-006  0.1321463E+03  0.7546771E-02  0.1237533E+00
         -2   -1    0    0    0  501 -0.00000000000E+00  0.00000000000E+00  0.33047157229E+03  0.33047157229E+03  0.00000000000E+00 0.  1.
          2   -1    0    0  501    0  0.00000000000E+00 -0.00000000000E+00 -0.41099714737E+02  0.41099714737E+02  0.00000000000E+00 0. -1.
         23    2    1    2    0    0 -0.36945335611E+02  0.21562592990E+02  0.15434440463E+03  0.20318671107E+03  0.12503096046E+03 0.  0.
          5    1    3    3  502    0 -0.59846646865E+02  0.26707164152E+02  0.22899647130E+02  0.69580008599E+02  0.47000000000E+01 0.  1.
         -5    1    3    3    0  502  0.22901311254E+02 -0.51445711617E+01  0.13144475751E+03  0.13360670247E+03  0.47000000000E+01 0.  1.
        -11    1    1    2    0    0 -0.26723833541E+02 -0.73745995125E+01  0.74136216470E+02  0.79150025835E+02  0.00000000000E+00 0.  1.
         11    1    1    2    0    0  0.63669169152E+02 -0.14187993478E+02  0.60891236450E+02  0.89234550124E+02  0.00000000000E+00 0. -1.
<mgrwt>
<rscale>  0 0.12343659E+03</rscale>
<asrwt>0</asrwt>
<pdfrwt beam="2">  1        2 0.63230332E-02 0.13214630E+03</pdfrwt>
<pdfrwt beam="1">  1       -2 0.50841779E-01 0.13214630E+03</pdfrwt>
<totfact> 0.40717679E+03</totfact>
</mgrwt>
</event>
<event>
 6    1  0.7800420E-006  0.1368464E+03  0.7546771E-02  0.1232024E+00
          3   -1    0    0  501    0  0.00000000000E+00  0.00000000000E+00  0.24519166814E+02  0.24519166814E+02  0.00000000000E+00 0. -1.
         -3   -1    0    0    0  501 -0.00000000000E+00 -0.00000000000E+00 -0.58772081500E+03  0.58772081500E+03  0.00000000000E+00 0.  1.
          5    1    1    2  502    0  0.52353738500E+02  0.95077260474E+01 -0.20829121091E+03  0.21503169379E+03  0.47000000000E+01 0. -1.
         -5    1    1    2    0  502 -0.70645618578E+02  0.30128479460E+02 -0.15184169938E+03  0.17022491113E+03  0.47000000000E+01 0.  1.
        -11    1    1    2    0    0  0.12126201221E+02  0.27628651504E+02 -0.93691061289E+02  0.98429681018E+02  0.00000000000E+00 0.  1.
         11    1    1    2    0    0  0.61656788574E+01 -0.67264857011E+02 -0.10937767660E+03  0.12855369588E+03  0.00000000000E+00 0. -1.
<mgrwt>
<rscale>  0 0.12696913E+03</rscale>
<asrwt>0</asrwt>
<pdfrwt beam="1">  1        3 0.37721798E-02 0.13684640E+03</pdfrwt>
<pdfrwt beam="2">  1       -3 0.90418580E-01 0.13684640E+03</pdfrwt>
<totfact> 0.93605457E+02</totfact>
</mgrwt>
</event>
<event>
 7    1  0.7800420E-006  0.1126064E+03  0.7546771E-02  0.1262575E+00
          1   -1    0    0  501    0  0.00000000000E+00  0.00000000000E+00  0.11948938932E+04  0.11948938932E+04  0.00000000000E+00 0. -1.
         -1   -1    0    0    0  501 -0.00000000000E+00 -0.00000000000E+00 -0.13550728692E+02  0.13550728692E+02  0.00000000000E+00 0.  1.
         23    2    1    2    0    0  0.97945016944E+01 -0.19908320355E+02  0.95431660407E+03  0.96093724209E+03  0.11039895351E+03 0.  0.
          5    1    3    3  502    0  0.30328534475E+02  0.22926641010E+02  0.13777922567E+03  0.14300578974E+03  0.47000000000E+01 0. -1.
         -5    1    3    3    0  502 -0.20534032781E+02 -0.42834961366E+02  0.81653737840E+03  0.81793145235E+03  0.47000000000E+01 0.  1.
        -11    1    1    2    0    0 -0.22097214784E+02  0.38502872648E+02  0.21954688019E+03  0.22399015761E+03  0.00000000000E+00 0. -1.
         11    1    1    2    0    0  0.12302713089E+02 -0.18594552292E+02  0.74796802739E+01  0.23517222228E+02  0.00000000000E+00 0.  1.
<mgrwt>
<rscale>  0 0.10892414E+03</rscale>
<asrwt>0</asrwt>
<pdfrwt beam="1">  1        1 0.18382975E+00 0.11260640E+03</pdfrwt>
<pdfrwt beam="2">  1       -1 0.20847284E-02 0.11260640E+03</pdfrwt>
<totfact> 0.71851211E+03</totfact>
</mgrwt>
</event>
<event>
 7    1  0.7800420E-006  0.1352367E+03  0.7546771E-02  0.1232552E+00
          2   -1    0    0  501    0  0.00000000000E+00  0.00000000000E+00  0.44922303042E+03  0.44922303042E+03  0.00000000000E+00 0.  1.
         -2   -1    0    0    0  501 -0.00000000000E+00 -0.00000000000E+00 -0.33840978372E+02  0.33840978372E+02  0.00000000000E+00 0. -1.
         23    2    1    2    0    0  0.29132544874E+02 -0.42599929495E+02  0.29157125937E+03  0.32140746684E+03  0.12500200513E+03 0.  0.
          5    1    3    3  502    0  0.63017887052E+02  0.14269538852E+02  0.10492636959E+03  0.12331466605E+03  0.47000000000E+01 0.  1.
         -5    1    3    3    0  502 -0.33885342179E+02 -0.56869468346E+02  0.18664488978E+03  0.19809280079E+03  0.47000000000E+01 0.  1.
        -11    1    1    2    0    0 -0.42965411491E+02 -0.29392611616E+01  0.99049640983E+02  0.10800693135E+03  0.00000000000E+00 0.  1.
         11    1    1    2    0    0  0.13832866618E+02  0.45539190656E+02  0.24761151697E+02  0.53649610603E+02  0.00000000000E+00 0. -1.
<mgrwt>
<rscale>  0 0.12662445E+03</rscale>
<asrwt>0</asrwt>
<pdfrwt beam="1">  1        2 0.69111231E-01 0.13523668E+03</pdfrwt>
<pdfrwt beam="2">  1       -2 0.52063047E-02 0.13523668E+03</pdfrwt>
<totfact> 0.12239310E+04</totfact>
</mgrwt>
</event>
<event>
 7    1  0.7800420E-006  0.1662955E+03  0.7546771E-02  0.1188288E+00
         -1   -1    0    0    0  501 -0.00000000000E+00  0.00000000000E+00  0.53517486090E+02  0.53517486090E+02  0.00000000000E+00 0.  1.
          1   -1    0    0  501    0  0.00000000000E+00 -0.00000000000E+00 -0.45528898161E+03  0.45528898161E+03  0.00000000000E+00 0. -1.
         23    2    1    2    0    0  0.32593728832E+02 -0.10472051741E+03 -0.24459997988E+03  0.29577581853E+03  0.12500178697E+03 0.  0.
          5    1    3    3  502    0 -0.39295730500E+02 -0.11848271407E+02 -0.29861905737E+02  0.50974105045E+02  0.47000000000E+01 0.  1.
         -5    1    3    3    0  502  0.71889459332E+02 -0.92872246002E+02 -0.21473807414E+03  0.24480171349E+03  0.47000000000E+01 0.  1.
        -11    1    1    2    0    0  0.21109470532E+02  0.64083541194E+02 -0.11571322237E+03  0.13394722778E+03  0.00000000000E+00 0. -1.
         11    1    1    2    0    0 -0.53703199365E+02  0.40636976215E+02 -0.41458293272E+02  0.79083421391E+02  0.00000000000E+00 0.  1.
<mgrwt>
<rscale>  0 0.16036219E+03</rscale>
<asrwt>0</asrwt>
<pdfrwt beam="2">  1        1 0.70044459E-01 0.16629547E+03</pdfrwt>
<pdfrwt beam="1">  1       -1 0.82334594E-02 0.16629547E+03</pdfrwt>
<totfact> 0.41123752E+03</totfact>
</mgrwt>
</event>
<event>
 7    1  0.7800420E-006  0.1279618E+03  0.7546771E-02  0.1245047E+00
         -2   -1    0    0    0  501 -0.00000000000E+00  0.00000000000E+00  0.24298456126E+02  0.24298456126E+02  0.00000000000E+00 0.  1.
          2   -1    0    0  501    0  0.00000000000E+00 -0.00000000000E+00 -0.75991986235E+03  0.75991986235E+03  0.00000000000E+00 0. -1.
         23    2    1    2    0    0  0.72218625956E+01 -0.26368518494E+02 -0.62652423087E+03  0.63945822863E+03  0.12500704068E+03 0.  0.
          5    1    3    3  502    0  0.12187822779E+02 -0.13214422667E+02 -0.71540669049E+01  0.19910667085E+02  0.47000000000E+01 0. -1.
         -5    1    3    3    0  502 -0.49659601832E+01 -0.13154095827E+02 -0.61937016397E+03  0.61954756154E+03  0.47000000000E+01 0. -1.
        -11    1    1    2    0    0 -0.21826917118E+02 -0.29803468981E+02 -0.38284313538E+02  0.53201031355E+02  0.00000000000E+00 0. -1.
         11    1    1    2    0    0  0.14605054522E+02  0.56171987475E+02 -0.70812861816E+02  0.91559058498E+02  0.00000000000E+00 0.  1.
<mgrwt>
<rscale>  0 0.11882586E+03</rscale>
<asrwt>0</asrwt>
<pdfrwt beam="2">  1        2 0.11691075E+00 0.12796177E+03</pdfrwt>
<pdfrwt beam="1">  1       -2 0.37382238E-02 0.12796177E+03</pdfrwt>
<totfact> 0.10995958E+04</totfact>
</mgrwt>
</event>
<event>
 6    1  0.7800420E-006  0.2535541E+03  0.7546771E-02  0.1126650E+00
         -2   -1    0    0    0  501 -0.00000000000E+00  0.00000000000E+00  0.91531383811E+02  0.91531383811E+02  0.00000000000E+00 0.  1.
          2   -1    0    0  501    0  0.00000000000E+00 -0.00000000000E+00 -0.84636211594E+03  0.84636211594E+03  0.00000000000E+00 0. -1.
          5    1    1    2  502    0 -0.12835501091E+03 -0.11549259758E+03 -0.33437022145E+03  0.37634968302E+03  0.47000000000E+01 0. -1.
         -5    1    1    2    0  502  0.12446937340E+02  0.30113530115E+02 -0.38485758269E+03  0.38626312262E+03  0.47000000000E+01 0.  1.
        -11    1    1    2    0    0  0.10494441179E+03  0.10466951880E+03 -0.23703541169E+02  0.15010294999E+03  0.00000000000E+00 0.  1.
         11    1    1    2    0    0  0.10963661782E+02 -0.19290451334E+02 -0.11899386830E+02  0.25177744126E+02  0.00000000000E+00 0. -1.
<mgrwt>
<rscale>  0 0.22998483E+03</rscale>
<asrwt>0</asrwt>
<pdfrwt beam="2">  1        2 0.13020955E+00 0.25355405E+03</pdfrwt>
<pdfrwt beam="1">  1       -2 0.14081752E-01 0.25355405E+03</pdfrwt>
<totfact> 0.12546657E+03</totfact>
</mgrwt>
</event>
<event>
 7    1  0.7800420E-006  0.1637425E+03  0.7546771E-02  0.1193329E+00
          2   -1    0    0  501    0  0.00000000000E+00  0.00000000000E+00  0.24845788129E+03  0.24845788129E+03  0.00000000000E+00 0. -1.
         -2   -1    0    0    0  501 -0.00000000000E+00 -0.00000000000E+00 -0.92881746593E+02  0.92881746593E+02  0.00000000000E+00 0.  1.
         23    2    1    2    0    0 -0.74331809211E+02  0.75227330514E+02  0.11667712604E+03  0.20106008448E+03  0.12500894653E+03 0.  0.
          5    1    3    3  502    0 -0.47983085110E+02 -0.79905648946E+01  0.10106531599E+03  0.11226091787E+03  0.47000000000E+01 0. -1.
         -5    1    3    3    0  502 -0.26348724101E+02  0.83217895408E+02  0.15611810047E+02  0.88799166611E+02  0.47000000000E+01 0. -1.
        -11    1    1    2    0    0  0.57367806997E+02 -0.13074461500E+02  0.47053072682E+02  0.75339222666E+02  0.00000000000E+00 0.  1.
         11    1    1    2    0    0  0.16964002214E+02 -0.62152869014E+02 -0.81540640210E+01  0.64940320741E+02  0.00000000000E+00 0. -1.
<mgrwt>
<rscale>  0 0.15596464E+03</rscale>
<asrwt>0</asrwt>
<pdfrwt beam="1">  1        2 0.38224289E-01 0.16374250E+03</pdfrwt>
<pdfrwt beam="2">  1       -2 0.14289500E-01 0.16374250E+03</pdfrwt>
<totfact> 0.48261569E+03</totfact>
</mgrwt>
</event>
<event>
 7    1  0.7800420E-006  0.1973678E+03  0.7546771E-02  0.1156484E+00
         -1   -1    0    0    0  501 -0.00000000000E+00  0.00000000000E+00  0.12154511992E+03  0.12154511992E+03  0.00000000000E+00 0.  1.
          1   -1    0    0  501    0  0.00000000000E+00 -0.00000000000E+00 -0.40359035790E+03  0.40359035790E+03  0.00000000000E+00 0. -1.
         23    2    1    2    0    0 -0.13706523059E+03 -0.67387769667E+02 -0.28608454860E+03  0.34756065084E+03  0.12500419244E+03 0.  0.
          5    1    3    3  502    0 -0.59743471705E+02 -0.88768400676E+02 -0.10759691739E+03  0.15181665917E+03  0.47000000000E+01 0.  1.
         -5    1    3    3    0  502 -0.77321758890E+02  0.21380631010E+02 -0.17848763121E+03  0.19574399167E+03  0.47000000000E+01 0.  1.
        -11    1    1    2    0    0  0.65464084615E+02 -0.96581181118E+01 -0.21057358271E+02  0.69442335482E+02  0.00000000000E+00 0. -1.
         11    1    1    2    0    0  0.71601145980E+02  0.77045887778E+02  0.25096668891E+02  0.10813249150E+03  0.00000000000E+00 0.  1.
<mgrwt>
<rscale>  0 0.19220931E+03</rscale>
<asrwt>0</asrwt>
<pdfrwt beam="2">  1        1 0.62090823E-01 0.19736777E+03</pdfrwt>
<pdfrwt beam="1">  1       -1 0.18699249E-01 0.19736777E+03</pdfrwt>
<totfact> 0.13424319E+03</totfact>
</mgrwt>
</event>
<event>
 7    1  0.7800420E-006  0.1633683E+03  0.7546771E-02  0.1190581E+00
         -1   -1    0    0    0  501 -0.00000000000E+00  0.00000000000E+00  0.15709702757E+02  0.15709702757E+02  0.00000000000E+00 0.  1.
          1   -1    0    0  501    0  0.00000000000E+00 -0.00000000000E+00 -0.15774433341E+04  0.15774433341E+04  0.00000000000E+00 0. -1.
         23    2    1    2    0    0  0.84370400089E+02  0.62820475672E+02 -0.99760120913E+03  0.10108894051E+04  0.12499776150E+03 0.  0.
          5    1    3    3  502    0  0.25308172446E+02 -0.38051309695E+02 -0.24897812576E+03  0.25318096862E+03  0.47000000000E+01 0.  1.
         -5    1    3    3    0  502  0.59062227643E+02  0.10087178537E+03 -0.74862308337E+03  0.75770843652E+03  0.47000000000E+01 0.  1.
        -11    1    1    2    0    0 -0.88432150578E+02 -0.12210032396E+02 -0.42188274145E+03  0.43122427770E+03  0.00000000000E+00 0. -1.
         11    1    1    2    0    0  0.40617504890E+01 -0.50610443276E+02 -0.14224968078E+03  0.15103935404E+03  0.00000000000E+00 0.  1.
<mgrwt>
<rscale>  0 0.15834200E+03</rscale>
<asrwt>0</asrwt>
<pdfrwt beam="2">  1        1 0.24268367E+00 0.16336835E+03</pdfrwt>
<pdfrwt beam="1">  1       -1 0.24168766E-02 0.16336835E+03</pdfrwt>
<totfact> 0.32824804E+03</totfact>
</mgrwt>
</event>
<event>
 7    1  0.7800420E-006  0.1307064E+03  0.7546771E-02  0.1238825E+00
         -1   -1    0    0    0  501 -0.00000000000E+00  0.00000000000E+00  0.45298497861E+02  0.45298497861E+02  0.00000000000E+00 0.  1.
          1   -1    0    0  501    0  0.00000000000E+00 -0.00000000000E+00 -0.33318511790E+03  0.33318511790E+03  0.00000000000E+00 0. -1.
         23    2    1    2    0    0  0.33737545403E+02  0.17750524665E+02 -0.22216592142E+03  0.25776319814E+03  0.12502346411E+03 0.  0.
          5    1    3    3  502    0  0.73862612445E+02  0.10211666560E+02 -0.19413920323E+03  0.20801943150E+03  0.47000000000E+01 0. -1.
         -5    1    3    3    0  502 -0.40125067043E+02  0.75388581054E+01 -0.28026718196E+02  0.49743766640E+02  0.47000000000E+01 0. -1.
        -11    1    1    2    0    0  0.24757458139E+02  0.19274105798E+01  0.65521732579E+01  0.25682243271E+02  0.00000000000E+00 0.  1.
         11    1    1    2    0    0 -0.58495003541E+02 -0.19677935245E+02 -0.72272871868E+02  0.95038174345E+02  0.00000000000E+00 0. -1.
<mgrwt>
<rscale>  0 0.12262682E+03</rscale>
<asrwt>0</asrwt>
<pdfrwt beam="2">  1        1 0.51259250E-01 0.13070643E+03</pdfrwt>
<pdfrwt beam="1">  1       -1 0.69689995E-02 0.13070643E+03</pdfrwt>
<totfact> 0.77388253E+03</totfact>
</mgrwt>
</event>
<event>
 7    1  0.7800420E-006  0.1399100E+03  0.7546771E-02  0.1225158E+00
          1   -1    0    0  501    0  0.00000000000E+00  0.00000000000E+00  0.12353788561E+03  0.12353788561E+03  0.00000000000E+00 0. -1.
         -1   -1    0    0    0  501 -0.00000000000E+00 -0.00000000000E+00 -0.12894512626E+03  0.12894512626E+03  0.00000000000E+00 0.  1.
         23    2    1    2    0    0 -0.26522105011E+02  0.56992751545E+02  0.16642340779E+02  0.14089632857E+03  0.12499284826E+03 0.  0.
          5    1    3    3  502    0 -0.21520639088E+02 -0.38268957778E+02  0.13919407510E+01  0.44177805913E+02  0.47000000000E+01 0.  1.
         -5    1    3    3    0  502 -0.50014659228E+01  0.95261709324E+02  0.15250400028E+02  0.96718522661E+02  0.47000000000E+01 0.  1.
        -11    1    1    2    0    0  0.26939828789E+02 -0.14029890042E+02  0.30946584523E+02  0.43362233377E+02  0.00000000000E+00 0. -1.
         11    1    1    2    0    0 -0.41772377862E+00 -0.42962861503E+02 -0.52996165950E+02  0.68224449922E+02  0.00000000000E+00 0.  1.
<mgrwt>
<rscale>  0 0.13156110E+03</rscale>
<asrwt>0</asrwt>
<pdfrwt beam="1">  1        1 0.19005828E-01 0.13991000E+03</pdfrwt>
<pdfrwt beam="2">  1       -1 0.19837712E-01 0.13991000E+03</pdfrwt>
<totfact> 0.53280183E+03</totfact>
</mgrwt>
</event>
<event>
 7    1  0.7800420E-006  0.1317040E+03  0.7546771E-02  0.1238431E+00
         -1   -1    0    0    0  501 -0.00000000000E+00  0.00000000000E+00  0.16193576842E+03  0.16193576842E+03  0.00000000000E+00 0.  1.
          1   -1    0    0  501    0  0.00000000000E+00 -0.00000000000E+00 -0.99861567568E+02  0.99861567568E+02  0.00000000000E+00 0. -1.
         23    2    1    2    0    0  0.37605799513E+02 -0.17500000554E+02 -0.19214501633E+02  0.13309821332E+03  0.12500196455E+03 0.  0.
          5    1    3    3  502    0  0.88837596400E+01  0.24675796391E+01 -0.70271337821E+02  0.71029297151E+02  0.47000000000E+01 0.  1.
         -5    1    3    3    0  502  0.28722039873E+02 -0.19967580193E+02  0.51056836188E+02  0.62068916172E+02  0.47000000000E+01 0.  1.
        -11    1    1    2    0    0 -0.61168294525E+01  0.22900463560E+02 -0.14456648116E+02  0.27764032642E+02  0.00000000000E+00 0. -1.
         11    1    1    2    0    0 -0.31488970060E+02 -0.54004630056E+01  0.95745350603E+02  0.10093509002E+03  0.00000000000E+00 0.  1.
<mgrwt>
<rscale>  0 0.12287334E+03</rscale>
<asrwt>0</asrwt>
<pdfrwt beam="2">  1        1 0.15363318E-01 0.13170398E+03</pdfrwt>
<pdfrwt beam="1">  1       -1 0.24913195E-01 0.13170398E+03</pdfrwt>
<totfact> 0.48197329E+03</totfact>
</mgrwt>
</event>
<event>
 7    1  0.7800420E-006  0.1420106E+03  0.7546771E-02  0.1220549E+00
         -2   -1    0    0    0  501 -0.00000000000E+00  0.00000000000E+00  0.45570060138E+02  0.45570060138E+02  0.00000000000E+00 0.  1.
          2   -1    0    0  501    0  0.00000000000E+00 -0.00000000000E+00 -0.38914615521E+03  0.38914615521E+03  0.00000000000E+00 0. -1.
         23    2    1    2    0    0 -0.65082230668E+02  0.17409991204E+02 -0.24467969086E+03  0.28290484316E+03  0.12501277783E+03 0.  0.
          5    1    3    3  502    0  0.36092861733E+02  0.11502071176E+02 -0.45637720484E+02  0.59496922949E+02  0.47000000000E+01 0.  1.
         -5    1    3    3    0  502 -0.10117509240E+03  0.59079200276E+01 -0.19904197037E+03  0.22340792021E+03  0.47000000000E+01 0.  1.
        -11    1    1    2    0    0  0.85092593884E+02 -0.22713353244E+02 -0.97008846322E+02  0.13102428101E+03  0.00000000000E+00 0.  1.
         11    1    1    2    0    0 -0.20010363216E+02  0.53033620399E+01 -0.18875578913E+01  0.20787091181E+02  0.00000000000E+00 0. -1.
<mgrwt>
<rscale>  0 0.13476707E+03</rscale>
<asrwt>0</asrwt>
<pdfrwt beam="2">  1        2 0.59868640E-01 0.14201056E+03</pdfrwt>
<pdfrwt beam="1">  1       -2 0.70107785E-02 0.14201056E+03</pdfrwt>
<totfact> 0.91216426E+03</totfact>
</mgrwt>
</event>
<event>
 7    1  0.7800420E-006  0.1277398E+03  0.7546771E-02  0.1246824E+00
          1   -1    0    0  501    0  0.00000000000E+00  0.00000000000E+00  0.68992820431E+02  0.68992820431E+02  0.00000000000E+00 0. -1.
         -1   -1    0    0    0  501 -0.00000000000E+00 -0.00000000000E+00 -0.19347540773E+03  0.19347540773E+03  0.00000000000E+00 0.  1.
         23    2    1    2    0    0 -0.18294374975E+02 -0.18894536718E+02 -0.31722415345E+02  0.13161978232E+03  0.12500307112E+03 0.  0.
          5    1    3    3  502    0 -0.38497039203E+02 -0.28122449744E+02 -0.71355413043E+02  0.85945210324E+02  0.47000000000E+01 0. -1.
         -5    1    3    3    0  502  0.20202664228E+02  0.92279130259E+01  0.39632997698E+02  0.45674571999E+02  0.47000000000E+01 0. -1.
        -11    1    1    2    0    0  0.51652027442E+02  0.25467189269E+02 -0.65914369724E+02  0.87528360000E+02  0.00000000000E+00 0.  1.
         11    1    1    2    0    0 -0.33357652467E+02 -0.65726525510E+01 -0.26845802227E+02  0.43320085837E+02  0.00000000000E+00 0. -1.
<mgrwt>
<rscale>  0 0.11776864E+03</rscale>
<asrwt>0</asrwt>
<pdfrwt beam="1">  1        1 0.10614280E-01 0.12773980E+03</pdfrwt>
<pdfrwt beam="2">  1       -1 0.29765447E-01 0.12773980E+03</pdfrwt>
<totfact> 0.58028544E+03</totfact>
</mgrwt>
</event>
<event>
 7    1  0.7800420E-006  0.1380512E+03  0.7546771E-02  0.1227163E+00
          3   -1    0    0  501    0  0.00000000000E+00  0.00000000000E+00  0.18768109909E+03  0.18768109909E+03  0.00000000000E+00 0. -1.
         -3   -1    0    0    0  501 -0.00000000000E+00 -0.00000000000E+00 -0.84089032804E+02  0.84089032804E+02  0.00000000000E+00 0.  1.
         23    2    1    2    0    0 -0.83462629697E+00  0.58588767082E+02  0.33704677372E+02  0.14210608877E+03  0.12499917983E+03 0.  0.
          5    1    3    3  502    0  0.30173863599E+02  0.78381987785E+02 -0.10083905656E+02  0.84722920198E+02  0.47000000000E+01 0.  1.
         -5    1    3    3    0  502 -0.31008489896E+02 -0.19793220703E+02  0.43788583029E+02  0.57383168569E+02  0.47000000000E+01 0.  1.
        -11    1    1    2    0    0  0.32786908354E+02 -0.36664446304E+02 -0.64215079058E+00  0.49190195566E+02  0.00000000000E+00 0.  1.
         11    1    1    2    0    0 -0.31952282057E+02 -0.21924320778E+02  0.70529539703E+02  0.80473847559E+02  0.00000000000E+00 0. -1.
<mgrwt>
<rscale>  0 0.13019774E+03</rscale>
<asrwt>0</asrwt>
<pdfrwt beam="1">  1        3 0.28874015E-01 0.13805120E+03</pdfrwt>
<pdfrwt beam="2">  1       -3 0.12936774E-01 0.13805120E+03</pdfrwt>
<totfact> 0.12724635E+03</totfact>
</mgrwt>
</event>
<event>
 6    1  0.7800420E-006  0.3356648E+03  0.7546771E-02  0.1112545E+00
          1   -1    0    0  501    0  0.00000000000E+00  0.00000000000E+00  0.72164639558E+03  0.72164639558E+03  0.00000000000E+00 0. -1.
         -1   -1    0    0    0  501 -0.00000000000E+00 -0.00000000000E+00 -0.67848770350E+02  0.67848770350E+02  0.00000000000E+00 0.  1.
          5    1    1    2  502    0 -0.21292736526E+02 -0.12687399639E+03  0.40873117284E+03  0.42852497389E+03  0.47000000000E+01 0. -1.
         -5    1    1    2    0  502 -0.28314549539E+02  0.15339908779E+03  0.11627816929E+03  0.19461679399E+03  0.47000000000E+01 0.  1.
        -11    1    1    2    0    0  0.72242787806E+01 -0.53802055150E+02  0.75675785400E+02  0.93132571307E+02  0.00000000000E+00 0. -1.
         11    1    1    2    0    0  0.42383007284E+02  0.27276963755E+02  0.53112497689E+02  0.73220826743E+02  0.00000000000E+00 0.  1.
<mgrwt>
<rscale>  0 0.25120672E+03</rscale>
<asrwt>0</asrwt>
<pdfrwt beam="1">  1        1 0.11102252E+00 0.33566479E+03</pdfrwt>
<pdfrwt beam="2">  1       -1 0.10438273E-01 0.33566479E+03</pdfrwt>
<totfact> 0.15377102E+03</totfact>
</mgrwt>
</event>
<event>
 7    1  0.7800420E-006  0.1393427E+03  0.7546771E-02  0.1225972E+00
         -2   -1    0    0    0  501 -0.00000000000E+00  0.00000000000E+00  0.24175337337E+02  0.24175337337E+02  0.00000000000E+00 0.  1.
          2   -1    0    0  501    0  0.00000000000E+00 -0.00000000000E+00 -0.10332488239E+04  0.10332488239E+04  0.00000000000E+00 0. -1.
         23    2    1    2    0    0  0.37008128973E+02 -0.49204429316E+02 -0.86858087457E+03  0.87968695283E+03  0.12500288736E+03 0.  0.
          5    1    3    3  502    0  0.93964346037E+01 -0.36253362979E+02 -0.62483521147E+02  0.72999176198E+02  0.47000000000E+01 0.  1.
         -5    1    3    3    0  502  0.27611694370E+02 -0.12951066336E+02 -0.80609735342E+03  0.80668777664E+03  0.47000000000E+01 0.  1.
        -11    1    1    2    0    0  0.17479373980E+02  0.33212280131E+02 -0.10316921894E+03  0.10978375018E+03  0.00000000000E+00 0. -1.
         11    1    1    2    0    0 -0.54487502953E+02  0.15992149185E+02 -0.37323393024E+02  0.67953458193E+02  0.00000000000E+00 0.  1.
<mgrwt>
<rscale>  0 0.13100527E+03</rscale>
<asrwt>0</asrwt>
<pdfrwt beam="2">  1        2 0.15896133E+00 0.13934274E+03</pdfrwt>
<pdfrwt beam="1">  1       -2 0.37192833E-02 0.13934274E+03</pdfrwt>
<totfact> 0.74645428E+03</totfact>
</mgrwt>
</event>
<event>
 7    1  0.7800420E-006  0.1146867E+03  0.7546771E-02  0.1263772E+00
         -1   -1    0    0    0  501 -0.00000000000E+00  0.00000000000E+00  0.11666342161E+03  0.11666342161E+03  0.00000000000E+00 0.  1.
          1   -1    0    0  501    0  0.00000000000E+00 -0.00000000000E+00 -0.97513986191E+02  0.97513986191E+02  0.00000000000E+00 0. -1.
         23    2    1    2    0    0 -0.68415711457E+01  0.90755831651E+01 -0.17334955680E+02  0.11598942309E+03  0.11412218135E+03 0.  0.
          5    1    3    3  502    0  0.25295745792E+02 -0.41813253089E+02 -0.25070263978E+02  0.55125593194E+02  0.47000000000E+01 0. -1.
         -5    1    3    3    0  502 -0.32137316938E+02  0.50888836255E+02  0.77353082977E+01  0.60863829897E+02  0.47000000000E+01 0.  1.
        -11    1    1    2    0    0  0.69340664018E+01 -0.48789308111E+02  0.95348311139E+01  0.50193534117E+02  0.00000000000E+00 0. -1.
         11    1    1    2    0    0 -0.92495256036E-01  0.39713724946E+02  0.26949559989E+02  0.47994450596E+02  0.00000000000E+00 0.  1.
<mgrwt>
<rscale>  0 0.10828879E+03</rscale>
<asrwt>0</asrwt>
<pdfrwt beam="2">  1        1 0.15002152E-01 0.11468673E+03</pdfrwt>
<pdfrwt beam="1">  1       -1 0.17948219E-01 0.11468673E+03</pdfrwt>
<totfact> 0.83430737E+03</totfact>
</mgrwt>
</event>
<event>
 7    1  0.7800420E-006  0.2405194E+03  0.7546771E-02  0.1121295E+00
          3   -1    0    0  501    0  0.00000000000E+00  0.00000000000E+00  0.31661326310E+03  0.31661326310E+03  0.00000000000E+00 0. -1.
         -3   -1    0    0    0  501 -0.00000000000E+00 -0.00000000000E+00 -0.20201801555E+03  0.20201801555E+03  0.00000000000E+00 0.  1.
         23    2    1    2    0    0 -0.19290484815E+03  0.85101094830E+02  0.15401868344E+03  0.28560698492E+03  0.11573728097E+03 0.  0.
          5    1    3    3  502    0 -0.19192907998E+03  0.81128205543E+02  0.99897009255E+02  0.23112780000E+03  0.47000000000E+01 0. -1.
         -5    1    3    3    0  502 -0.97576817208E+00  0.39728892862E+01  0.54121674183E+02  0.54479184917E+02  0.47000000000E+01 0.  1.
        -11    1    1    2    0    0  0.70303249544E+01 -0.24561050750E+02 -0.26960709996E+02  0.37142301576E+02  0.00000000000E+00 0. -1.
         11    1    1    2    0    0  0.18587452320E+03 -0.60540044080E+02 -0.12462725899E+02  0.19588199215E+03  0.00000000000E+00 0.  1.
<mgrwt>
<rscale>  0 0.23775871E+03</rscale>
<asrwt>0</asrwt>
<pdfrwt beam="1">  1        3 0.48709733E-01 0.24051943E+03</pdfrwt>
<pdfrwt beam="2">  1       -3 0.31079695E-01 0.24051943E+03</pdfrwt>
<totfact> 0.10504491E+02</totfact>
</mgrwt>
</event>
<event>
 7    1  0.7800420E-006  0.1987689E+03  0.7546771E-02  0.1155757E+00
          3   -1    0    0  501    0  0.00000000000E+00  0.00000000000E+00  0.95744247782E+02  0.95744247782E+02  0.00000000000E+00 0. -1.
         -3   -1    0    0    0  501 -0.00000000000E+00 -0.00000000000E+00 -0.40026222632E+03  0.40026222632E+03  0.00000000000E+00 0.  1.
         23    2    1    2    0    0 -0.43557796448E+02  0.14827854043E+03 -0.90462177306E+02  0.21838607238E+03  0.12500105562E+03 0.  0.
          5    1    3    3  502    0  0.57480890151E+01  0.54151184145E+02  0.26116630287E+02  0.60576890389E+02  0.47000000000E+01 0. -1.
         -5    1    3    3    0  502 -0.49305885463E+02  0.94127356282E+02 -0.11657880759E+03  0.15780918199E+03  0.47000000000E+01 0. -1.
        -11    1    1    2    0    0  0.25818919832E+01 -0.13141781756E+03 -0.17251097328E+03  0.21688094624E+03  0.00000000000E+00 0.  1.
         11    1    1    2    0    0  0.40975904465E+02 -0.16860722863E+02 -0.41544827945E+02  0.60739455473E+02  0.00000000000E+00 0. -1.
<mgrwt>
<rscale>  0 0.19302925E+03</rscale>
<asrwt>0</asrwt>
<pdfrwt beam="1">  1        3 0.14729884E-01 0.19876889E+03</pdfrwt>
<pdfrwt beam="2">  1       -3 0.61578804E-01 0.19876889E+03</pdfrwt>
<totfact> 0.24373361E+02</totfact>
</mgrwt>
</event>
<event>
 6    1  0.7800420E-006  0.1940826E+03  0.7546771E-02  0.1183857E+00
          2   -1    0    0  501    0  0.00000000000E+00  0.00000000000E+00  0.74327745320E+03  0.74327745320E+03  0.00000000000E+00 0. -1.
         -2   -1    0    0    0  501 -0.00000000000E+00 -0.00000000000E+00 -0.53068226538E+02  0.53068226538E+02  0.00000000000E+00 0.  1.
          5    1    1    2  502    0  0.23355390521E+02  0.10346320613E+02  0.67098645708E+03  0.67148896953E+03  0.47000000000E+01 0. -1.
         -5    1    1    2    0  502  0.14238499320E+02 -0.15423316742E+02 -0.50985668846E+01  0.22106536284E+02  0.47000000000E+01 0.  1.
        -11    1    1    2    0    0 -0.23235295122E+02  0.48526904460E+02  0.16876783861E+02  0.56387633657E+02  0.00000000000E+00 0.  1.
         11    1    1    2    0    0 -0.14358594718E+02 -0.43449908331E+02  0.74445526038E+01  0.46362540264E+02  0.00000000000E+00 0. -1.
<mgrwt>
<rscale>  0 0.16436351E+03</rscale>
<asrwt>0</asrwt>
<pdfrwt beam="1">  1        2 0.11435037E+00 0.19408257E+03</pdfrwt>
<pdfrwt beam="2">  1       -2 0.81643430E-02 0.19408257E+03</pdfrwt>
<totfact> 0.35239453E+03</totfact>
</mgrwt>
</event>
<event>
 7    1  0.7800420E-006  0.1276784E+03  0.7546771E-02  0.1245924E+00
          1   -1    0    0  501    0  0.00000000000E+00  0.00000000000E+00  0.13112200406E+03  0.13112200406E+03  0.00000000000E+00 0. -1.
         -1   -1    0    0    0  501 -0.00000000000E+00 -0.00000000000E+00 -0.93820994946E+02  0.93820994946E+02  0.00000000000E+00 0.  1.
         23    2    1    2    0    0 -0.25667007464E+02  0.43012424353E+01  0.19262026123E+02  0.12912321735E+03  0.12499793458E+03 0.  0.
          5    1    3    3  502    0 -0.37678677943E+02 -0.52968101221E+02  0.25723244411E+02  0.70064811578E+02  0.47000000000E+01 0.  1.
         -5    1    3    3    0  502  0.12011670479E+02  0.57269343656E+02 -0.64612182884E+01  0.59058405771E+02  0.47000000000E+01 0.  1.
        -11    1    1    2    0    0  0.29003500019E+02  0.16884722717E+02 -0.28851487178E+02  0.44257261404E+02  0.00000000000E+00 0.  1.
         11    1    1    2    0    0 -0.33364925552E+01 -0.21185965152E+02  0.46890470171E+02  0.51562520253E+02  0.00000000000E+00 0. -1.
<mgrwt>
<rscale>  0 0.11830225E+03</rscale>
<asrwt>0</asrwt>
<pdfrwt beam="1">  1        1 0.20172616E-01 0.12767842E+03</pdfrwt>
<pdfrwt beam="2">  1       -1 0.14433999E-01 0.12767842E+03</pdfrwt>
<totfact> 0.81157168E+03</totfact>
</mgrwt>
</event>
<event>
 6    1  0.7800420E-006  0.2024409E+03  0.7546771E-02  0.1169655E+00
          2   -1    0    0  501    0  0.00000000000E+00  0.00000000000E+00  0.80737093417E+03  0.80737093417E+03  0.00000000000E+00 0. -1.
         -2   -1    0    0    0  501 -0.00000000000E+00 -0.00000000000E+00 -0.40496019493E+02  0.40496019493E+02  0.00000000000E+00 0.  1.
          5    1    1    2  502    0  0.10389475858E+03  0.40121209715E+02  0.52306021638E+03  0.53480642506E+03  0.47000000000E+01 0. -1.
         -5    1    1    2    0  502 -0.64462137784E+02  0.29771485955E+02  0.12158609440E+03  0.14087929917E+03  0.47000000000E+01 0.  1.
        -11    1    1    2    0    0 -0.10679806021E+02 -0.84876383654E+02  0.10509357652E+03  0.13550910886E+03  0.00000000000E+00 0.  1.
         11    1    1    2    0    0 -0.28752814779E+02  0.14983687984E+02  0.17135027371E+02  0.36672120559E+02  0.00000000000E+00 0. -1.
<mgrwt>
<rscale>  0 0.17809945E+03</rscale>
<asrwt>0</asrwt>
<pdfrwt beam="1">  1        2 0.12421090E+00 0.20244093E+03</pdfrwt>
<pdfrwt beam="2">  1       -2 0.62301575E-02 0.20244093E+03</pdfrwt>
<totfact> 0.48347015E+03</totfact>
</mgrwt>
</event>
<event>
 7    1  0.7800420E-006  0.1575301E+03  0.7546771E-02  0.1201317E+00
         -1   -1    0    0    0  501 -0.00000000000E+00  0.00000000000E+00  0.22119091978E+02  0.22119091978E+02  0.00000000000E+00 0. -1.
          1   -1    0    0  501    0  0.00000000000E+00 -0.00000000000E+00 -0.97572598394E+03  0.97572598394E+03  0.00000000000E+00 0.  1.
         23    2    1    2    0    0 -0.64010305708E+02  0.71362457992E+02 -0.64735027497E+03  0.66624177765E+03  0.12500323245E+03 0.  0.
          5    1    3    3  502    0 -0.62992860115E+02  0.10543276341E+03 -0.49088784516E+03  0.50604064516E+03  0.47000000000E+01 0.  1.
         -5    1    3    3    0  502 -0.10174455930E+01 -0.34070305419E+02 -0.15646242981E+03  0.16020113248E+03  0.47000000000E+01 0.  1.
        -11    1    1    2    0    0  0.74318073729E+02 -0.23424648275E+02 -0.19683100453E+03  0.21169396443E+03  0.00000000000E+00 0.  1.
         11    1    1    2    0    0 -0.10307768021E+02 -0.47937809717E+02 -0.10942561245E+03  0.11990933384E+03  0.00000000000E+00 0. -1.
<mgrwt>
<rscale>  0 0.14931500E+03</rscale>
<asrwt>0</asrwt>
<pdfrwt beam="2">  1        1 0.15011169E+00 0.15753009E+03</pdfrwt>
<pdfrwt beam="1">  1       -1 0.34029373E-02 0.15753009E+03</pdfrwt>
<totfact> 0.51205342E+03</totfact>
</mgrwt>
</event>
<event>
 7    1  0.7800420E-006  0.1274984E+03  0.7546771E-02  0.1246066E+00
          3   -1    0    0  501    0  0.00000000000E+00  0.00000000000E+00  0.11611649103E+03  0.11611649103E+03  0.00000000000E+00 0. -1.
         -3   -1    0    0    0  501 -0.00000000000E+00 -0.00000000000E+00 -0.12308744839E+03  0.12308744839E+03  0.00000000000E+00 0.  1.
         23    2    1    2    0    0 -0.22759515817E+02  0.10645067866E+02  0.40380486229E+02  0.13374018016E+03  0.12499815635E+03 0.  0.
          5    1    3    3  502    0 -0.58119681704E+02  0.43591479537E+02  0.43968533725E+02  0.85049611684E+02  0.47000000000E+01 0. -1.
         -5    1    3    3    0  502  0.35360165887E+02 -0.32946411671E+02 -0.35880474966E+01  0.48690568475E+02  0.47000000000E+01 0. -1.
        -11    1    1    2    0    0  0.42129419897E+02  0.13571972327E+02  0.50758844981E+01  0.44551667277E+02  0.00000000000E+00 0.  1.
         11    1    1    2    0    0 -0.19369904081E+02 -0.24217040193E+02 -0.52427328083E+02  0.60912091983E+02  0.00000000000E+00 0. -1.
<mgrwt>
<rscale>  0 0.11821783E+03</rscale>
<asrwt>0</asrwt>
<pdfrwt beam="1">  1        3 0.17864076E-01 0.12749844E+03</pdfrwt>
<pdfrwt beam="2">  1       -3 0.18936530E-01 0.12749844E+03</pdfrwt>
<totfact> 0.15391367E+03</totfact>
</mgrwt>
</event>
<event>
 7    1  0.7800420E-006  0.1266761E+03  0.7546771E-02  0.1247521E+00
          1   -1    0    0  501    0  0.00000000000E+00  0.00000000000E+00  0.12353580741E+04  0.12353580741E+04  0.00000000000E+00 0. -1.
         -1   -1    0    0    0  501 -0.00000000000E+00 -0.00000000000E+00 -0.13955005519E+02  0.13955005519E+02  0.00000000000E+00 0.  1.
         23    2    1    2    0    0  0.15705195216E+02  0.13231312686E+02  0.10140238024E+04  0.10219056197E+04  0.12500041141E+03 0.  0.
          5    1    3    3  502    0 -0.29180837514E+02  0.56717907293E+02  0.52585579100E+03  0.52973091774E+03  0.47000000000E+01 0.  1.
         -5    1    3    3    0  502  0.44886032729E+02 -0.43486594606E+02  0.48816801144E+03  0.49217470195E+03  0.47000000000E+01 0.  1.
        -11    1    1    2    0    0 -0.13052676972E+02  0.36493580300E+02  0.56438861864E+02  0.68465311712E+02  0.00000000000E+00 0.  1.
         11    1    1    2    0    0 -0.26525182437E+01 -0.49724892987E+02  0.15094040426E+03  0.15894214820E+03  0.00000000000E+00 0. -1.
<mgrwt>
<rscale>  0 0.11735745E+03</rscale>
<asrwt>0</asrwt>
<pdfrwt beam="1">  1        1 0.19005500E+00 0.12667606E+03</pdfrwt>
<pdfrwt beam="2">  1       -1 0.21469249E-02 0.12667606E+03</pdfrwt>
<totfact> 0.65010930E+03</totfact>
</mgrwt>
</event>
<event>
 7    1  0.7800420E-006  0.2049410E+03  0.7546771E-02  0.1145712E+00
         -2   -1    0    0    0  501 -0.00000000000E+00  0.00000000000E+00  0.39879125280E+02  0.39879125280E+02  0.00000000000E+00 0.  1.
          2   -1    0    0  501    0  0.00000000000E+00 -0.00000000000E+00 -0.11126342251E+04  0.11126342251E+04  0.00000000000E+00 0. -1.
         23    2    1    2    0    0 -0.12882446458E+03  0.98120696631E+02 -0.67121396223E+03  0.70169621387E+03  0.12500391867E+03 0.  0.
          5    1    3    3  502    0 -0.17506296041E+02  0.26620854028E+02 -0.21715804620E+02  0.38843357740E+02  0.47000000000E+01 0. -1.
         -5    1    3    3    0  502 -0.11131816853E+03  0.71499842603E+02 -0.64949815761E+03  0.66285285613E+03  0.47000000000E+01 0. -1.
        -11    1    1    2    0    0  0.12822426042E+02 -0.41233120363E+02 -0.19238119900E+02  0.47272508732E+02  0.00000000000E+00 0.  1.
         11    1    1    2    0    0  0.11600203853E+03 -0.56887576267E+02 -0.38230301774E+03  0.40354462783E+03  0.00000000000E+00 0. -1.
<mgrwt>
<rscale>  0 0.20484848E+03</rscale>
<asrwt>0</asrwt>
<pdfrwt beam="2">  1        2 0.17117448E+00 0.20494098E+03</pdfrwt>
<pdfrwt beam="1">  1       -2 0.61352506E-02 0.20494098E+03</pdfrwt>
<totfact> 0.31937615E+03</totfact>
</mgrwt>
</event>
<event>
 7    1  0.7800420E-006  0.2751959E+03  0.7546771E-02  0.1100479E+00
          2   -1    0    0  501    0  0.00000000000E+00  0.00000000000E+00  0.52881666105E+03  0.52881666105E+03  0.00000000000E+00 0. -1.
         -2   -1    0    0    0  501 -0.00000000000E+00 -0.00000000000E+00 -0.13979811488E+03  0.13979811488E+03  0.00000000000E+00 0.  1.
         23    2    1    2    0    0  0.21164341071E+03 -0.12374745080E+03  0.25776303495E+03  0.37706040584E+03  0.12500561023E+03 0.  0.
          5    1    3    3  502    0  0.85314810671E+01 -0.40658905713E+02  0.47101913677E+01  0.42073848002E+02  0.47000000000E+01 0. -1.
         -5    1    3    3    0  502  0.20311192964E+03 -0.83088545085E+02  0.25305284358E+03  0.33498655783E+03  0.47000000000E+01 0. -1.
        -11    1    1    2    0    0 -0.19108861746E+03  0.81814669506E+02  0.81381473015E+02  0.22322957693E+03  0.00000000000E+00 0.  1.
         11    1    1    2    0    0 -0.20554793249E+02  0.41932781293E+02  0.49874038208E+02  0.68324793154E+02  0.00000000000E+00 0. -1.
<mgrwt>
<rscale>  0 0.27140377E+03</rscale>
<asrwt>0</asrwt>
<pdfrwt beam="1">  1        2 0.81356408E-01 0.27519587E+03</pdfrwt>
<pdfrwt beam="2">  1       -2 0.21507403E-01 0.27519587E+03</pdfrwt>
<totfact> 0.10838384E+03</totfact>
</mgrwt>
</event>
<event>
 7    1  0.7800420E-006  0.3257418E+03  0.7546771E-02  0.1074264E+00
          2   -1    0    0  501    0  0.00000000000E+00  0.00000000000E+00  0.47042270566E+03  0.47042270566E+03  0.00000000000E+00 0. -1.
         -2   -1    0    0    0  501 -0.00000000000E+00 -0.00000000000E+00 -0.23639343265E+03  0.23639343265E+03  0.00000000000E+00 0.  1.
         23    2    1    2    0    0  0.78063939375E+02  0.29049557561E+03  0.21686420583E+03  0.39132829338E+03  0.12500436532E+03 0.  0.
          5    1    3    3  502    0  0.93546089463E+02  0.13670516599E+03  0.76636951246E+02  0.18257734130E+03  0.47000000000E+01 0. -1.
         -5    1    3    3    0  502 -0.15482150088E+02  0.15379040962E+03  0.14022725459E+03  0.20875095207E+03  0.47000000000E+01 0. -1.
        -11    1    1    2    0    0  0.10718110943E+02 -0.61809494204E+02 -0.23179164078E+02  0.66877239202E+02  0.00000000000E+00 0.  1.
         11    1    1    2    0    0 -0.88782050317E+02 -0.22868608140E+03  0.40344231260E+02  0.24861060573E+03  0.00000000000E+00 0. -1.
<mgrwt>
<rscale>  0 0.32302779E+03</rscale>
<asrwt>0</asrwt>
<pdfrwt beam="1">  1        2 0.72372724E-01 0.32574184E+03</pdfrwt>
<pdfrwt beam="2">  1       -2 0.36368220E-01 0.32574184E+03</pdfrwt>
<totfact> 0.47820989E+02</totfact>
</mgrwt>
</event>
<event>
 7    1  0.7800420E-006  0.1700846E+03  0.7546771E-02  0.1184494E+00
          1   -1    0    0  501    0  0.00000000000E+00  0.00000000000E+00  0.51741958087E+03  0.51741958087E+03  0.00000000000E+00 0. -1.
         -1   -1    0    0    0  501 -0.00000000000E+00 -0.00000000000E+00 -0.48500586728E+02  0.48500586728E+02  0.00000000000E+00 0.  1.
         23    2    1    2    0    0  0.18505120098E+02  0.11384719374E+03  0.23609390755E+03  0.29097958114E+03  0.12500064186E+03 0.  0.
          5    1    3    3  502    0  0.19473985642E+01  0.11504107630E+03  0.24561807925E+03  0.27127213725E+03  0.47000000000E+01 0.  1.
         -5    1    3    3    0  502  0.16557721534E+02 -0.11938825553E+01 -0.95241716974E+01  0.19707443885E+02  0.47000000000E+01 0.  1.
        -11    1    1    2    0    0 -0.36059808203E+02 -0.11548961092E+02  0.96033718354E+02  0.10322869432E+03  0.00000000000E+00 0.  1.
         11    1    1    2    0    0  0.17554688104E+02 -0.10229823265E+03  0.13679136824E+03  0.17171189214E+03  0.00000000000E+00 0. -1.
<mgrwt>
<rscale>  0 0.16378042E+03</rscale>
<asrwt>0</asrwt>
<pdfrwt beam="1">  1        1 0.79603009E-01 0.17008464E+03</pdfrwt>
<pdfrwt beam="2">  1       -1 0.74616291E-02 0.17008464E+03</pdfrwt>
<totfact> 0.40427250E+03</totfact>
</mgrwt>
</event>
<event>
 7    1  0.7800420E-006  0.1661726E+03  0.7546771E-02  0.1188994E+00
          1   -1    0    0  501    0  0.00000000000E+00  0.00000000000E+00  0.69348143172E+03  0.69348143172E+03  0.00000000000E+00 0. -1.
         -1   -1    0    0    0  501 -0.00000000000E+00 -0.00000000000E+00 -0.46959260578E+02  0.46959260578E+02  0.00000000000E+00 0.  1.
         23    2    1    2    0    0 -0.52229558992E+02 -0.96235012685E+02  0.53427920893E+03  0.55952444913E+03  0.12499692625E+03 0.  0.
          5    1    3    3  502    0 -0.59379166306E+02 -0.54853260811E+02  0.49581262834E+03  0.50238134722E+03  0.47000000000E+01 0. -1.
         -5    1    3    3    0  502  0.71496073133E+01 -0.41381751874E+02  0.38466580591E+02  0.57143101904E+02  0.47000000000E+01 0. -1.
        -11    1    1    2    0    0  0.75605260349E+01  0.88625715253E+02  0.10029479172E+03  0.13405492980E+03  0.00000000000E+00 0. -1.
         11    1    1    2    0    0  0.44669032957E+02  0.76092974327E+01  0.11948170490E+02  0.46861313371E+02  0.00000000000E+00 0.  1.
<mgrwt>
<rscale>  0 0.15973717E+03</rscale>
<asrwt>0</asrwt>
<pdfrwt beam="1">  1        1 0.10668944E+00 0.16617261E+03</pdfrwt>
<pdfrwt beam="2">  1       -1 0.72245022E-02 0.16617261E+03</pdfrwt>
<totfact> 0.28361704E+03</totfact>
</mgrwt>
</event>
<event>
 7    1  0.7800420E-006  0.1298824E+03  0.7546771E-02  0.1241294E+00
         -1   -1    0    0    0  501 -0.00000000000E+00  0.00000000000E+00  0.39631482375E+02  0.39631482375E+02  0.00000000000E+00 0.  1.
          1   -1    0    0  501    0  0.00000000000E+00 -0.00000000000E+00 -0.43428981771E+03  0.43428981771E+03  0.00000000000E+00 0. -1.
         23    2    1    2    0    0  0.30048035502E+02  0.18423182830E+02 -0.33441704780E+03  0.35875368702E+03  0.12500859167E+03 0.  0.
          5    1    3    3  502    0  0.39975709884E+02  0.28458239423E+02 -0.33947815785E+03  0.34303853782E+03  0.47000000000E+01 0.  1.
         -5    1    3    3    0  502 -0.99276743828E+01 -0.10035056594E+02  0.50611100522E+01  0.15715149202E+02  0.47000000000E+01 0.  1.
        -11    1    1    2    0    0 -0.31478264191E+02  0.63177287126E+01  0.15372335990E+02  0.35596397660E+02  0.00000000000E+00 0.  1.
         11    1    1    2    0    0  0.14302286893E+01 -0.24740911542E+02 -0.75613623523E+02  0.79571215401E+02  0.00000000000E+00 0. -1.
<mgrwt>
<rscale>  0 0.12109936E+03</rscale>
<asrwt>0</asrwt>
<pdfrwt beam="2">  1        1 0.66813813E-01 0.12988243E+03</pdfrwt>
<pdfrwt beam="1">  1       -1 0.60971516E-02 0.12988243E+03</pdfrwt>
<totfact> 0.67731196E+03</totfact>
</mgrwt>
</event>
<event>
 7    1  0.7800420E-006  0.1284565E+03  0.7546771E-02  0.1241717E+00
          1   -1    0    0  501    0  0.00000000000E+00  0.00000000000E+00  0.44235697926E+03  0.44235697926E+03  0.00000000000E+00 0. -1.
         -1   -1    0    0    0  501 -0.00000000000E+00 -0.00000000000E+00 -0.29895672540E+02  0.29895672540E+02  0.00000000000E+00 0.  1.
         23    2    1    2    0    0  0.16247945732E+02 -0.24634281703E+02  0.25230831573E+03  0.28312638616E+03  0.12502088137E+03 0.  0.
          5    1    3    3  502    0  0.23571179538E+02  0.48068794989E+02  0.12850798710E+03  0.13929322419E+03  0.47000000000E+01 0.  1.
         -5    1    3    3    0  502 -0.73232338060E+01 -0.72703076692E+02  0.12380032863E+03  0.14383316198E+03  0.47000000000E+01 0.  1.
        -11    1    1    2    0    0 -0.11839120582E+00  0.47543159361E+02  0.30511329832E+02  0.56491656611E+02  0.00000000000E+00 0.  1.
         11    1    1    2    0    0 -0.16129554526E+02 -0.22908877658E+02  0.12964166116E+03  0.13263460903E+03  0.00000000000E+00 0. -1.
<mgrwt>
<rscale>  0 0.12084071E+03</rscale>
<asrwt>0</asrwt>
<pdfrwt beam="1">  1        1 0.68054915E-01 0.12845647E+03</pdfrwt>
<pdfrwt beam="2">  1       -1 0.45993346E-02 0.12845647E+03</pdfrwt>
<totfact> 0.10035805E+04</totfact>
</mgrwt>
</event>
<event>
 7    1  0.7800420E-006  0.1533436E+03  0.7546771E-02  0.1205133E+00
          1   -1    0    0  501    0  0.00000000000E+00  0.00000000000E+00  0.13108738829E+03  0.13108738829E+03  0.00000000000E+00 0. -1.
         -1   -1    0    0    0  501 -0.00000000000E+00 -0.00000000000E+00 -0.15992783505E+03  0.15992783505E+03  0.00000000000E+00 0.  1.
         23    2    1    2    0    0 -0.85974463572E+02 -0.21986719725E+02  0.20722228681E+02  0.15473737848E+03  0.12505687228E+03 0.  0.
          5    1    3    3  502    0 -0.45785589727E+02 -0.18403876607E+02 -0.51748231939E+02  0.71658861347E+02  0.47000000000E+01 0.  1.
         -5    1    3    3    0  502 -0.40188873845E+02 -0.35828431182E+01  0.72470460620E+02  0.83078517128E+02  0.47000000000E+01 0.  1.
        -11    1    1    2    0    0  0.49888831854E+02 -0.19341019510E+02 -0.60038991568E+02  0.80421707815E+02  0.00000000000E+00 0.  1.
         11    1    1    2    0    0  0.36085631719E+02  0.41327739235E+02  0.10476316118E+02  0.55856137050E+02  0.00000000000E+00 0. -1.
<mgrwt>
<rscale>  0 0.14626943E+03</rscale>
<asrwt>0</asrwt>
<pdfrwt beam="1">  1        1 0.20167291E-01 0.15334355E+03</pdfrwt>
<pdfrwt beam="2">  1       -1 0.24604282E-01 0.15334355E+03</pdfrwt>
<totfact> 0.34998715E+03</totfact>
</mgrwt>
</event>
<event>
 7    1  0.7800420E-006  0.1506944E+03  0.7546771E-02  0.1210721E+00
         -2   -1    0    0    0  501 -0.00000000000E+00  0.00000000000E+00  0.64811404881E+02  0.64811404881E+02  0.00000000000E+00 0.  1.
          2   -1    0    0  501    0  0.00000000000E+00 -0.00000000000E+00 -0.31042711602E+03  0.31042711602E+03  0.00000000000E+00 0. -1.
         23    2    1    2    0    0 -0.39341769838E+02 -0.74404488231E+02 -0.19446338061E+03  0.24601792702E+03  0.12500004517E+03 0.  0.
          5    1    3    3  502    0  0.32302567102E+02 -0.62810969298E+02 -0.13355099333E+03  0.15115102225E+03  0.47000000000E+01 0. -1.
         -5    1    3    3    0  502 -0.71644336940E+02 -0.11593518933E+02 -0.60912387276E+02  0.94866904769E+02  0.47000000000E+01 0. -1.
        -11    1    1    2    0    0  0.57425391688E+02  0.35675178651E+02 -0.53794519937E+02  0.86395858451E+02  0.00000000000E+00 0.  1.
         11    1    1    2    0    0 -0.18083621850E+02  0.38729309581E+02  0.26421894124E+01  0.42824735431E+02  0.00000000000E+00 0. -1.
<mgrwt>
<rscale>  0 0.14195597E+03</rscale>
<asrwt>0</asrwt>
<pdfrwt beam="2">  1        2 0.47758017E-01 0.15069444E+03</pdfrwt>
<pdfrwt beam="1">  1       -2 0.99709856E-02 0.15069444E+03</pdfrwt>
<totfact> 0.67420737E+03</totfact>
</mgrwt>
</event>
<event>
 6    1  0.7800420E-006  0.1615657E+03  0.7546771E-02  0.1197743E+00
          1   -1    0    0  501    0  0.00000000000E+00  0.00000000000E+00  0.45269815743E+03  0.45269815743E+03  0.00000000000E+00 0. -1.
         -1   -1    0    0    0  501 -0.00000000000E+00 -0.00000000000E+00 -0.52993673427E+02  0.52993673427E+02  0.00000000000E+00 0.  1.
          5    1    1    2  502    0  0.20343531197E+02 -0.17005746808E+02  0.22135632784E+03  0.22298827001E+03  0.47000000000E+01 0. -1.
         -5    1    1    2    0  502  0.37544573625E+02  0.82357195635E+02  0.89654754796E+02  0.12748477454E+03  0.47000000000E+01 0.  1.
        -11    1    1    2    0    0 -0.12030932753E+02  0.23774008042E+02  0.13184115640E+02  0.29728230800E+02  0.00000000000E+00 0.  1.
         11    1    1    2    0    0 -0.45857172068E+02 -0.89125456868E+02  0.75509285731E+02  0.12549055552E+03  0.00000000000E+00 0. -1.
<mgrwt>
<rscale>  0 0.15224372E+03</rscale>
<asrwt>0</asrwt>
<pdfrwt beam="1">  1        1 0.69645868E-01 0.16156566E+03</pdfrwt>
<pdfrwt beam="2">  1       -1 0.81528731E-02 0.16156566E+03</pdfrwt>
<totfact> 0.41997825E+03</totfact>
</mgrwt>
</event>
<event>
 7    1  0.7800420E-006  0.1352988E+03  0.7546771E-02  0.1230982E+00
         -2   -1    0    0    0  501 -0.00000000000E+00  0.00000000000E+00  0.46719007481E+02  0.46719007481E+02  0.00000000000E+00 0. -1.
          2   -1    0    0  501    0  0.00000000000E+00 -0.00000000000E+00 -0.32819659828E+03  0.32819659828E+03  0.00000000000E+00 0.  1.
         23    2    1    2    0    0  0.48517014239E+02 -0.18008435580E+02 -0.19414367340E+03  0.23663798841E+03  0.12501026845E+03 0.  0.
          5    1    3    3  502    0 -0.33767284204E+02  0.14779415547E+02 -0.22526426187E+02  0.43453313834E+02  0.47000000000E+01 0. -1.
         -5    1    3    3    0  502  0.82284298443E+02 -0.32787851126E+02 -0.17161724721E+03  0.19318467458E+03  0.47000000000E+01 0. -1.
        -11    1    1    2    0    0 -0.76499157225E+02  0.20242096209E+02 -0.63901228075E+02  0.10171150606E+03  0.00000000000E+00 0.  1.
         11    1    1    2    0    0  0.27982142986E+02 -0.22336606292E+01 -0.23432689327E+02  0.36566111292E+02  0.00000000000E+00 0. -1.
<mgrwt>
<rscale>  0 0.12765181E+03</rscale>
<asrwt>0</asrwt>
<pdfrwt beam="2">  1        2 0.50491783E-01 0.13529882E+03</pdfrwt>
<pdfrwt beam="1">  1       -2 0.71875398E-02 0.13529882E+03</pdfrwt>
<totfact> 0.10488658E+04</totfact>
</mgrwt>
</event>
<event>
 7    1  0.7800420E-006  0.2537727E+03  0.7546771E-02  0.1113265E+00
          1   -1    0    0  501    0  0.00000000000E+00  0.00000000000E+00  0.70768595893E+03  0.70768595893E+03  0.00000000000E+00 0. -1.
         -1   -1    0    0    0  501 -0.00000000000E+00 -0.00000000000E+00 -0.93473925828E+02  0.93473925828E+02  0.00000000000E+00 0.  1.
         23    2    1    2    0    0  0.18931182676E+03 -0.11366843529E+03  0.42960627548E+03  0.49896105195E+03  0.12506437743E+03 0.  0.
          5    1    3    3  502    0  0.24339908068E+02 -0.29308066303E+02  0.91469661263E+01  0.39460750937E+02  0.47000000000E+01 0. -1.
         -5    1    3    3    0  502  0.16497191869E+03 -0.84360368985E+02  0.42045930936E+03  0.45950030102E+03  0.47000000000E+01 0. -1.
        -11    1    1    2    0    0 -0.77143546327E+02  0.11308340645E+02  0.10488999224E+03  0.13069397759E+03  0.00000000000E+00 0. -1.
         11    1    1    2    0    0 -0.11216828043E+03  0.10236009464E+03  0.79715765383E+02  0.17150485521E+03  0.00000000000E+00 0.  1.
<mgrwt>
<rscale>  0 0.25006374E+03</rscale>
<asrwt>0</asrwt>
<pdfrwt beam="1">  1        1 0.10887476E+00 0.25377269E+03</pdfrwt>
<pdfrwt beam="2">  1       -1 0.14380604E-01 0.25377269E+03</pdfrwt>
<totfact> 0.95582960E+02</totfact>
</mgrwt>
</event>
<event>
 7    1  0.7800420E-006  0.1169908E+03  0.7546771E-02  0.1313505E+00
          2   -1    0    0  501    0  0.00000000000E+00  0.00000000000E+00  0.18339054418E+02  0.18339054418E+02  0.00000000000E+00 0. -1.
         -2   -1    0    0    0  501 -0.00000000000E+00 -0.00000000000E+00 -0.33521252503E+03  0.33521252503E+03  0.00000000000E+00 0.  1.
         23    2    1    2    0    0 -0.11991871202E+02  0.15625665105E+02 -0.19800901523E+03  0.22998785322E+03  0.11532075326E+03 0.  0.
          5    1    3    3  502    0  0.89341448098E+00 -0.19219866278E+02  0.74371943469E+01  0.21156637467E+02  0.47000000000E+01 0. -1.
         -5    1    3    3    0  502 -0.12885285683E+02  0.34845531382E+02 -0.20544620958E+03  0.20883121576E+03  0.47000000000E+01 0.  1.
        -11    1    1    2    0    0 -0.85894827934E+01 -0.51499354689E+01 -0.25772958482E+02  0.27650432888E+02  0.00000000000E+00 0. -1.
         11    1    1    2    0    0  0.20581353996E+02 -0.10475729636E+02 -0.93091496896E+02  0.95913293334E+02  0.00000000000E+00 0.  1.
<mgrwt>
<rscale>  0 0.85741371E+02</rscale>
<asrwt>0</asrwt>
<pdfrwt beam="1">  1        2 0.28213929E-02 0.11699078E+03</pdfrwt>
<pdfrwt beam="2">  1       -2 0.51571159E-01 0.11699078E+03</pdfrwt>
<totfact> 0.11312899E+04</totfact>
</mgrwt>
</event>
<event>
 7    1  0.7800420E-006  0.1703821E+03  0.7546771E-02  0.1183717E+00
         -2   -1    0    0    0  501 -0.00000000000E+00  0.00000000000E+00  0.16049557627E+03  0.16049557627E+03  0.00000000000E+00 0.  1.
          2   -1    0    0  501    0  0.00000000000E+00 -0.00000000000E+00 -0.16569473405E+03  0.16569473405E+03  0.00000000000E+00 0. -1.
         23    2    1    2    0    0  0.82764446361E+02 -0.80962393780E+02 -0.38041930040E+02  0.17457732790E+03  0.12500076875E+03 0.  0.
          5    1    3    3  502    0  0.78783393905E+02 -0.97910120406E+02  0.71080011314E+01  0.12595963049E+03  0.47000000000E+01 0. -1.
         -5    1    3    3    0  502  0.39810524559E+01  0.16947726626E+02 -0.45149931172E+02  0.48617697408E+02  0.47000000000E+01 0. -1.
        -11    1    1    2    0    0 -0.54723898345E+01  0.51202541055E+02  0.44392980966E+02  0.67988116756E+02  0.00000000000E+00 0.  1.
         11    1    1    2    0    0 -0.77292056526E+02  0.29759852724E+02 -0.11550208704E+02  0.83624865664E+02  0.00000000000E+00 0. -1.
<mgrwt>
<rscale>  0 0.16449129E+03</rscale>
<asrwt>0</asrwt>
<pdfrwt beam="2">  1        2 0.25491498E-01 0.17038209E+03</pdfrwt>
<pdfrwt beam="1">  1       -2 0.24691627E-01 0.17038209E+03</pdfrwt>
<totfact> 0.29843728E+03</totfact>
</mgrwt>
</event>
<event>
 7    1  0.7800420E-006  0.1324582E+03  0.7546771E-02  0.1237841E+00
          2   -1    0    0  501    0  0.00000000000E+00  0.00000000000E+00  0.12700155641E+04  0.12700155641E+04  0.00000000000E+00 0.  1.
         -2   -1    0    0    0  501 -0.00000000000E+00 -0.00000000000E+00 -0.12117497444E+02  0.12117497444E+02  0.00000000000E+00 0. -1.
         23    2    1    2    0    0  0.16511646343E+02  0.40598364233E+02  0.93454909319E+03  0.94388939111E+03  0.12499725362E+03 0.  0.
          5    1    3    3  502    0 -0.42700228559E+02  0.56487147886E+02  0.50501659757E+03  0.50997839289E+03  0.47000000000E+01 0.  1.
         -5    1    3    3    0  502  0.59211874902E+02 -0.15888783653E+02  0.42953249563E+03  0.43391099822E+03  0.47000000000E+01 0.  1.
        -11    1    1    2    0    0  0.35474660849E+02 -0.27684628286E+02  0.16784267837E+03  0.17377012081E+03  0.00000000000E+00 0.  1.
         11    1    1    2    0    0 -0.51986307193E+02 -0.12913735947E+02  0.15550629507E+03  0.16447354960E+03  0.00000000000E+00 0. -1.
<mgrwt>
<rscale>  0 0.12324291E+03</rscale>
<asrwt>0</asrwt>
<pdfrwt beam="1">  1        2 0.19538690E+00 0.13245820E+03</pdfrwt>
<pdfrwt beam="2">  1       -2 0.18642314E-02 0.13245820E+03</pdfrwt>
<totfact> 0.15054824E+04</totfact>
</mgrwt>
</event>
<event>
 7    1  0.7800420E-006  0.1479126E+03  0.7546771E-02  0.1212498E+00
         -2   -1    0    0    0  501 -0.00000000000E+00  0.00000000000E+00  0.70753260945E+03  0.70753260945E+03  0.00000000000E+00 0.  1.
          2   -1    0    0  501    0  0.00000000000E+00 -0.00000000000E+00 -0.25617659558E+02  0.25617659558E+02  0.00000000000E+00 0. -1.
         23    2    1    2    0    0 -0.69990717270E+02  0.36797154419E+02  0.35252309438E+03  0.38229657082E+03  0.12500161963E+03 0.  0.
          5    1    3    3  502    0  0.17801501036E+02  0.64993062041E+01  0.19758493771E+01  0.19624688559E+02  0.47000000000E+01 0. -1.
         -5    1    3    3    0  502 -0.87792218305E+02  0.30297848215E+02  0.35054724500E+03  0.36267188226E+03  0.47000000000E+01 0. -1.
        -11    1    1    2    0    0 -0.60723200054E+01 -0.43994861102E+02  0.11862475246E+03  0.12666591006E+03  0.00000000000E+00 0. -1.
         11    1    1    2    0    0  0.76063037275E+02  0.71977066833E+01  0.21076710305E+03  0.22418778814E+03  0.00000000000E+00 0.  1.
<mgrwt>
<rscale>  0 0.14061947E+03</rscale>
<asrwt>0</asrwt>
<pdfrwt beam="2">  1        2 0.39411789E-02 0.14791260E+03</pdfrwt>
<pdfrwt beam="1">  1       -2 0.10885116E+00 0.14791260E+03</pdfrwt>
<totfact> 0.14708231E+03</totfact>
</mgrwt>
</event>
<event>
 7    1  0.7800420E-006  0.1281711E+03  0.7546771E-02  0.1246387E+00
          1   -1    0    0  501    0  0.00000000000E+00  0.00000000000E+00  0.74089812664E+02  0.74089812664E+02  0.00000000000E+00 0. -1.
         -1   -1    0    0    0  501 -0.00000000000E+00 -0.00000000000E+00 -0.22666482254E+03  0.22666482254E+03  0.00000000000E+00 0.  1.
         23    2    1    2    0    0 -0.69465607172E+01 -0.27951945969E+02 -0.68797361457E+01  0.12835558521E+03  0.12489299218E+03 0.  0.
          5    1    3    3  502    0 -0.40587638593E+02 -0.16163640652E+02 -0.53659506872E+02  0.69354541044E+02  0.47000000000E+01 0.  1.
         -5    1    3    3    0  502  0.33641077876E+02 -0.11788305317E+02  0.46779770727E+02  0.59001044162E+02  0.47000000000E+01 0.  1.
        -11    1    1    2    0    0  0.17641051356E+02  0.57698083691E+02 -0.89845069479E+02  0.10822389784E+03  0.00000000000E+00 0.  1.
         11    1    1    2    0    0 -0.10694490638E+02 -0.29746137722E+02 -0.55850204254E+02  0.64175152159E+02  0.00000000000E+00 0. -1.
<mgrwt>
<rscale>  0 0.11802761E+03</rscale>
<asrwt>0</asrwt>
<pdfrwt beam="1">  1        1 0.11398433E-01 0.12817108E+03</pdfrwt>
<pdfrwt beam="2">  1       -1 0.34871511E-01 0.12817108E+03</pdfrwt>
<totfact> 0.40415068E+03</totfact>
</mgrwt>
</event>
<event>
 7    1  0.7800420E-006  0.1315873E+03  0.7546771E-02  0.1237934E+00
         -2   -1    0    0    0  501 -0.00000000000E+00  0.00000000000E+00  0.85274747480E+02  0.85274747480E+02  0.00000000000E+00 0. -1.
          2   -1    0    0  501    0  0.00000000000E+00 -0.00000000000E+00 -0.20457834713E+03  0.20457834713E+03  0.00000000000E+00 0.  1.
         23    2    1    2    0    0 -0.40108303926E+02  0.90613701306E+01 -0.13391008183E+03  0.18774214912E+03  0.12499768024E+03 0.  0.
          5    1    3    3  502    0  0.26965762604E+02 -0.27963887956E+02 -0.74861341165E+01  0.39840476735E+02  0.47000000000E+01 0.  1.
         -5    1    3    3    0  502 -0.67074066531E+02  0.37025258087E+02 -0.12642394772E+03  0.14790167238E+03  0.47000000000E+01 0.  1.
        -11    1    1    2    0    0  0.17577549004E+02 -0.19367500505E+02 -0.36740394384E+02  0.45099078531E+02  0.00000000000E+00 0.  1.
         11    1    1    2    0    0  0.22530754922E+02  0.10306130375E+02  0.51346876570E+02  0.57011866959E+02  0.00000000000E+00 0. -1.
<mgrwt>
<rscale>  0 0.12318451E+03</rscale>
<asrwt>0</asrwt>
<pdfrwt beam="2">  1        2 0.31473592E-01 0.13158725E+03</pdfrwt>
<pdfrwt beam="1">  1       -2 0.13119192E-01 0.13158725E+03</pdfrwt>
<totfact> 0.67395779E+03</totfact>
</mgrwt>
</event>
<event>
 7    1  0.7800420E-006  0.1471899E+03  0.7546771E-02  0.1214433E+00
         -2   -1    0    0    0  501 -0.00000000000E+00  0.00000000000E+00  0.34950688029E+02  0.34950688029E+02  0.00000000000E+00 0. -1.
          2   -1    0    0  501    0  0.00000000000E+00 -0.00000000000E+00 -0.50464940391E+03  0.50464940391E+03  0.00000000000E+00 0.  1.
         23    2    1    2    0    0 -0.74516688499E+02  0.22044386981E+02 -0.28091772154E+03  0.31714291020E+03  0.12500466932E+03 0.  0.
          5    1    3    3  502    0 -0.83463127881E+02 -0.86881019065E+01 -0.27034464633E+03  0.28310756724E+03  0.47000000000E+01 0. -1.
         -5    1    3    3    0  502  0.89464393821E+01  0.30732488887E+02 -0.10573075210E+02  0.34035342957E+02  0.47000000000E+01 0. -1.
        -11    1    1    2    0    0  0.32446808494E+02  0.24608911555E+02 -0.26877729881E+02  0.48793506463E+02  0.00000000000E+00 0. -1.
         11    1    1    2    0    0  0.42069880005E+02 -0.46653298536E+02 -0.16190326446E+03  0.17366367528E+03  0.00000000000E+00 0.  1.
<mgrwt>
<rscale>  0 0.13918278E+03</rscale>
<asrwt>0</asrwt>
<pdfrwt beam="2">  1        2 0.77638368E-01 0.14718987E+03</pdfrwt>
<pdfrwt beam="1">  1       -2 0.53770291E-02 0.14718987E+03</pdfrwt>
<totfact> 0.10329561E+04</totfact>
</mgrwt>
</event>
<event>
 7    1  0.7800420E-006  0.1432392E+03  0.7546771E-02  0.1222233E+00
          1   -1    0    0  501    0  0.00000000000E+00  0.00000000000E+00  0.10126058393E+04  0.10126058393E+04  0.00000000000E+00 0. -1.
         -1   -1    0    0    0  501 -0.00000000000E+00 -0.00000000000E+00 -0.15631087097E+02  0.15631087097E+02  0.00000000000E+00 0.  1.
         23    2    1    2    0    0  0.55585376931E+02 -0.42466639599E+02  0.57547108231E+03  0.59302987375E+03  0.12499725985E+03 0.  0.
          5    1    3    3  502    0  0.75615080595E+02 -0.61234463829E+02  0.28421694082E+03  0.30044743205E+03  0.47000000000E+01 0.  1.
         -5    1    3    3    0  502 -0.20029703663E+02  0.18767824230E+02  0.29125414149E+03  0.29258244170E+03  0.47000000000E+01 0.  1.
        -11    1    1    2    0    0 -0.59439797377E+02  0.61575321589E+02  0.37748298656E+03  0.38706332154E+03  0.00000000000E+00 0. -1.
         11    1    1    2    0    0  0.38544204457E+01 -0.19108681990E+02  0.44020683369E+02  0.48143731145E+02  0.00000000000E+00 0.  1.
<mgrwt>
<rscale>  0 0.13358390E+03</rscale>
<asrwt>0</asrwt>
<pdfrwt beam="1">  1        1 0.15578546E+00 0.14323919E+03</pdfrwt>
<pdfrwt beam="2">  1       -1 0.24047834E-02 0.14323919E+03</pdfrwt>
<totfact> 0.79469505E+03</totfact>
</mgrwt>
</event>
<event>
 6    1  0.7800420E-006  0.3454847E+03  0.7546771E-02  0.1096286E+00
          1   -1    0    0  501    0  0.00000000000E+00  0.00000000000E+00  0.34833251283E+03  0.34833251283E+03  0.00000000000E+00 0. -1.
         -1   -1    0    0    0  501 -0.00000000000E+00 -0.00000000000E+00 -0.17931462194E+03  0.17931462194E+03  0.00000000000E+00 0.  1.
          5    1    1    2  502    0  0.17143604591E+03  0.34215920322E+02  0.11716478862E+03  0.21050112763E+03  0.47000000000E+01 0. -1.
         -5    1    1    2    0  502 -0.14068246607E+03  0.85517076887E+02  0.42520136731E+02  0.17010225961E+03  0.47000000000E+01 0.  1.
        -11    1    1    2    0    0  0.23074153641E+02 -0.35082451899E+02  0.19340887704E+02  0.46230562777E+02  0.00000000000E+00 0. -1.
         11    1    1    2    0    0 -0.53827733486E+02 -0.84650545310E+02 -0.10007922167E+02  0.10081318475E+03  0.00000000000E+00 0.  1.
<mgrwt>
<rscale>  0 0.27891001E+03</rscale>
<asrwt>0</asrwt>
<pdfrwt beam="1">  1        1 0.53589617E-01 0.34548468E+03</pdfrwt>
<pdfrwt beam="2">  1       -1 0.27586865E-01 0.34548468E+03</pdfrwt>
<totfact> 0.85602811E+02</totfact>
</mgrwt>
</event>
<event>
 6    1  0.7800420E-006  0.1510037E+03  0.7546771E-02  0.1219973E+00
         -1   -1    0    0    0  501 -0.00000000000E+00  0.00000000000E+00  0.25060725728E+02  0.25060725728E+02  0.00000000000E+00 0.  1.
          1   -1    0    0  501    0  0.00000000000E+00 -0.00000000000E+00 -0.15652097097E+04  0.15652097097E+04  0.00000000000E+00 0. -1.
          5    1    1    2  502    0  0.66177453590E+02  0.43303095731E+02 -0.99199814651E+03  0.99515678470E+03  0.47000000000E+01 0. -1.
         -5    1    1    2    0  502 -0.63509339515E+02 -0.16013737560E+02 -0.45809934184E+03  0.46278177686E+03  0.47000000000E+01 0.  1.
        -11    1    1    2    0    0  0.44860271274E+02 -0.84162961467E+01 -0.38401585496E+02  0.59648635761E+02  0.00000000000E+00 0.  1.
         11    1    1    2    0    0 -0.47528385348E+02 -0.18873062024E+02 -0.51649910088E+02  0.72683238068E+02  0.00000000000E+00 0. -1.
<mgrwt>
<rscale>  0 0.13517485E+03</rscale>
<asrwt>0</asrwt>
<pdfrwt beam="2">  1        1 0.24080152E+00 0.15100372E+03</pdfrwt>
<pdfrwt beam="1">  1       -1 0.38554958E-02 0.15100372E+03</pdfrwt>
<totfact> 0.16875321E+03</totfact>
</mgrwt>
</event>
<event>
 7    1  0.7800420E-006  0.2277850E+03  0.7546771E-02  0.1131184E+00
          2   -1    0    0  501    0  0.00000000000E+00  0.00000000000E+00  0.12554961866E+04  0.12554961866E+04  0.00000000000E+00 0. -1.
         -2   -1    0    0    0  501 -0.00000000000E+00 -0.00000000000E+00 -0.39022786759E+02  0.39022786759E+02  0.00000000000E+00 0.  1.
         23    2    1    2    0    0 -0.12684327130E+03 -0.14202910400E+03  0.55278003512E+03  0.59787270978E+03  0.12499811205E+03 0.  0.
          5    1    3    3  502    0 -0.95595480585E+02 -0.11619377096E+03  0.24611511236E+03  0.28850342607E+03  0.47000000000E+01 0. -1.
         -5    1    3    3    0  502 -0.31247790718E+02 -0.25835333045E+02  0.30666492275E+03  0.30936928371E+03  0.47000000000E+01 0. -1.
        -11    1    1    2    0    0  0.87751666336E+02  0.14363854286E+03  0.58544169548E+03  0.60915873526E+03  0.00000000000E+00 0. -1.
         11    1    1    2    0    0  0.39091604967E+02 -0.16094388557E+01  0.78251669280E+02  0.87487528354E+02  0.00000000000E+00 0.  1.
<mgrwt>
<rscale>  0 0.22365905E+03</rscale>
<asrwt>0</asrwt>
<pdfrwt beam="1">  1        2 0.19315323E+00 0.22778501E+03</pdfrwt>
<pdfrwt beam="2">  1       -2 0.60035066E-02 0.22778501E+03</pdfrwt>
<totfact> 0.27428826E+03</totfact>
</mgrwt>
</event>
<event>
 6    1  0.7800420E-006  0.3020615E+03  0.7546771E-02  0.1128689E+00
         -2   -1    0    0    0  501 -0.00000000000E+00  0.00000000000E+00  0.35694696978E+02  0.35694696978E+02  0.00000000000E+00 0.  1.
          2   -1    0    0  501    0  0.00000000000E+00 -0.00000000000E+00 -0.12450218072E+04  0.12450218072E+04  0.00000000000E+00 0. -1.
          5    1    1    2  502    0 -0.27512679841E+02  0.45313928435E+02 -0.10523000990E+04  0.10536450484E+04  0.47000000000E+01 0. -1.
         -5    1    1    2    0  502  0.47528995999E+02 -0.21183842547E+02 -0.13263899977E+02  0.53905302970E+02  0.47000000000E+01 0.  1.
        -11    1    1    2    0    0  0.21264628609E+02 -0.12040753553E+01 -0.11693154523E+03  0.11885546053E+03  0.00000000000E+00 0. -1.
         11    1    1    2    0    0 -0.41280944767E+02 -0.22926010532E+02 -0.26831565990E+02  0.54310692255E+02  0.00000000000E+00 0.  1.
<mgrwt>
<rscale>  0 0.22711240E+03</rscale>
<asrwt>0</asrwt>
<pdfrwt beam="2">  1        2 0.19154179E+00 0.30206149E+03</pdfrwt>
<pdfrwt beam="1">  1       -2 0.54914925E-02 0.30206149E+03</pdfrwt>
<totfact> 0.31954034E+03</totfact>
</mgrwt>
</event>
<event>
 7    1  0.7800420E-006  0.2303778E+03  0.7546771E-02  0.1130590E+00
          2   -1    0    0  501    0  0.00000000000E+00  0.00000000000E+00  0.42645245231E+03  0.42645245231E+03  0.00000000000E+00 0. -1.
         -2   -1    0    0    0  501 -0.00000000000E+00 -0.00000000000E+00 -0.11429929831E+03  0.11429929831E+03  0.00000000000E+00 0.  1.
         23    2    1    2    0    0 -0.17317359474E+03 -0.86381029199E+02  0.19807441308E+03  0.30382133532E+03  0.12499261801E+03 0.  0.
          5    1    3    3  502    0 -0.17332844396E+03 -0.45422220340E+02  0.12053145699E+03  0.21599965211E+03  0.47000000000E+01 0. -1.
         -5    1    3    3    0  502  0.15484922779E+00 -0.40958808859E+02  0.77542956096E+02  0.87821683208E+02  0.47000000000E+01 0. -1.
        -11    1    1    2    0    0  0.10195695996E+03  0.45841262822E+02  0.10689186427E+03  0.15466904574E+03  0.00000000000E+00 0. -1.
         11    1    1    2    0    0  0.71216634774E+02  0.40539766377E+02  0.71868766441E+01  0.82261369563E+02  0.00000000000E+00 0.  1.
<mgrwt>
<rscale>  0 0.22447496E+03</rscale>
<asrwt>0</asrwt>
<pdfrwt beam="1">  1        2 0.65608069E-01 0.23037780E+03</pdfrwt>
<pdfrwt beam="2">  1       -2 0.17584508E-01 0.23037780E+03</pdfrwt>
<totfact> 0.19385882E+03</totfact>
</mgrwt>
</event>
<event>
 7    1  0.7800420E-006  0.1839752E+03  0.7546771E-02  0.1169043E+00
         -1   -1    0    0    0  501 -0.00000000000E+00  0.00000000000E+00  0.61812293025E+02  0.61812293025E+02  0.00000000000E+00 0.  1.
          1   -1    0    0  501    0  0.00000000000E+00 -0.00000000000E+00 -0.50775768672E+03  0.50775768672E+03  0.00000000000E+00 0. -1.
         23    2    1    2    0    0  0.56861004481E+02 -0.12245521761E+03 -0.28956291133E+03  0.34306494686E+03  0.12497369321E+03 0.  0.
          5    1    3    3  502    0  0.33497864006E+02 -0.10006185460E+03 -0.29175877472E+03  0.31028979079E+03  0.47000000000E+01 0.  1.
         -5    1    3    3    0  502  0.23363140475E+02 -0.22393363012E+02  0.21958633879E+01  0.32775156076E+02  0.47000000000E+01 0.  1.
        -11    1    1    2    0    0 -0.53758315551E+02  0.10206133839E+03 -0.16726280861E+03  0.20318297279E+03  0.00000000000E+00 0. -1.
         11    1    1    2    0    0 -0.31026889303E+01  0.20393879215E+02  0.10880326249E+02  0.23322060100E+02  0.00000000000E+00 0.  1.
<mgrwt>
<rscale>  0 0.17872512E+03</rscale>
<asrwt>0</asrwt>
<pdfrwt beam="2">  1        1 0.78116569E-01 0.18397521E+03</pdfrwt>
<pdfrwt beam="1">  1       -1 0.95095833E-02 0.18397521E+03</pdfrwt>
<totfact> 0.28733696E+03</totfact>
</mgrwt>
</event>
<event>
 7    1  0.7800420E-006  0.1494497E+03  0.7546771E-02  0.1209392E+00
          3   -1    0    0  501    0  0.00000000000E+00  0.00000000000E+00  0.32125476707E+02  0.32125476707E+02  0.00000000000E+00 0. -1.
         -3   -1    0    0    0  501 -0.00000000000E+00 -0.00000000000E+00 -0.59748250502E+03  0.59748250502E+03  0.00000000000E+00 0.  1.
         23    2    1    2    0    0  0.19957093727E+02 -0.79459890885E+02 -0.26536408561E+03  0.30455426859E+03  0.12499217869E+03 0.  0.
          5    1    3    3  502    0  0.53556067643E+02 -0.30355827093E+02 -0.22293367848E+03  0.23132497405E+03  0.47000000000E+01 0. -1.
         -5    1    3    3    0  502 -0.33598973916E+02 -0.49104063792E+02 -0.42430407133E+02  0.73229294538E+02  0.47000000000E+01 0. -1.
        -11    1    1    2    0    0 -0.52109945987E+02  0.60456813301E+02 -0.25140015795E+03  0.26376601783E+03  0.00000000000E+00 0.  1.
         11    1    1    2    0    0  0.32152852260E+02  0.19003077584E+02 -0.48592784750E+02  0.61287695306E+02  0.00000000000E+00 0. -1.
<mgrwt>
<rscale>  0 0.14296660E+03</rscale>
<asrwt>0</asrwt>
<pdfrwt beam="1">  1        3 0.49423814E-02 0.14944967E+03</pdfrwt>
<pdfrwt beam="2">  1       -3 0.91920379E-01 0.14944967E+03</pdfrwt>
<totfact> 0.59777594E+02</totfact>
</mgrwt>
</event>
<event>
 7    1  0.7800420E-006  0.1398930E+03  0.7546771E-02  0.1224721E+00
         -2   -1    0    0    0  501 -0.00000000000E+00  0.00000000000E+00  0.55332820065E+03  0.55332820065E+03  0.00000000000E+00 0.  1.
          2   -1    0    0  501    0  0.00000000000E+00 -0.00000000000E+00 -0.30263381905E+02  0.30263381905E+02  0.00000000000E+00 0. -1.
         23    2    1    2    0    0 -0.16781869473E+02 -0.60514778460E+02  0.21668859003E+03  0.25792248572E+03  0.12500557602E+03 0.  0.
          5    1    3    3  502    0  0.37168817994E+02  0.13099445344E+02  0.11269408503E+03  0.11947871484E+03  0.47000000000E+01 0.  1.
         -5    1    3    3    0  502 -0.53950687468E+02 -0.73614223804E+02  0.10399450500E+03  0.13844377088E+03  0.47000000000E+01 0.  1.
        -11    1    1    2    0    0  0.46861356310E+02  0.11076406970E+02  0.18559526186E+03  0.19174012290E+03  0.00000000000E+00 0. -1.
         11    1    1    2    0    0 -0.30079486837E+02  0.49438371490E+02  0.12078096686E+03  0.13392897394E+03  0.00000000000E+00 0.  1.
<mgrwt>
<rscale>  0 0.13186065E+03</rscale>
<asrwt>0</asrwt>
<pdfrwt beam="2">  1        2 0.46559053E-02 0.13989304E+03</pdfrwt>
<pdfrwt beam="1">  1       -2 0.85127408E-01 0.13989304E+03</pdfrwt>
<totfact> 0.20625949E+03</totfact>
</mgrwt>
</event>
<event>
 7    1  0.7800420E-006  0.1779589E+03  0.7546771E-02  0.1174160E+00
         -3   -1    0    0    0  501 -0.00000000000E+00  0.00000000000E+00  0.38216071589E+03  0.38216071589E+03  0.00000000000E+00 0.  1.
          3   -1    0    0  501    0  0.00000000000E+00 -0.00000000000E+00 -0.84141946747E+02  0.84141946747E+02  0.00000000000E+00 0. -1.
         23    2    1    2    0    0 -0.65233820490E+02 -0.11636664708E+03  0.79728055550E+02  0.19500240623E+03  0.11778254414E+03 0.  0.
          5    1    3    3  502    0 -0.90752787369E+02 -0.80167330672E+02  0.23782909962E+02  0.12349326349E+03  0.47000000000E+01 0. -1.
         -5    1    3    3    0  502  0.25518966880E+02 -0.36199316411E+02  0.55945145589E+02  0.71509142731E+02  0.47000000000E+01 0.  1.
        -11    1    1    2    0    0  0.19822112867E+02 -0.12294294689E+02  0.20739515107E+02  0.31212070218E+02  0.00000000000E+00 0. -1.
         11    1    1    2    0    0  0.45411707622E+02  0.12866094177E+03  0.19755119848E+03  0.24008818619E+03  0.00000000000E+00 0.  1.
<mgrwt>
<rscale>  0 0.17358542E+03</rscale>
<asrwt>0</asrwt>
<pdfrwt beam="2">  1        3 0.12944915E-01 0.17795892E+03</pdfrwt>
<pdfrwt beam="1">  1       -3 0.58793955E-01 0.17795892E+03</pdfrwt>
<totfact> 0.33038407E+02</totfact>
</mgrwt>
</event>
<event>
 7    1  0.7800420E-006  0.1621530E+03  0.7546771E-02  0.1193567E+00
         -1   -1    0    0    0  501 -0.00000000000E+00  0.00000000000E+00  0.39933308555E+03  0.39933308555E+03  0.00000000000E+00 0.  1.
          1   -1    0    0  501    0  0.00000000000E+00 -0.00000000000E+00 -0.60818533347E+02  0.60818533347E+02  0.00000000000E+00 0. -1.
         23    2    1    2    0    0  0.89579329870E+02  0.51408503346E+02  0.12019571226E+03  0.20184298050E+03  0.12500515579E+03 0.  0.
          5    1    3    3  502    0 -0.99170897444E+01 -0.26345417059E+02  0.16633915103E+01  0.28588223805E+02  0.47000000000E+01 0.  1.
         -5    1    3    3    0  502  0.99496419614E+02  0.77753920405E+02  0.11853232075E+03  0.17325475669E+03  0.47000000000E+01 0.  1.
        -11    1    1    2    0    0 -0.72086594719E+02 -0.45532505042E+01  0.18395295768E+03  0.19762565590E+03  0.00000000000E+00 0.  1.
         11    1    1    2    0    0 -0.17492735151E+02 -0.46855252842E+02  0.34365882263E+02  0.60682982504E+02  0.00000000000E+00 0. -1.
<mgrwt>
<rscale>  0 0.15576134E+03</rscale>
<asrwt>0</asrwt>
<pdfrwt beam="2">  1        1 0.93566977E-02 0.16215295E+03</pdfrwt>
<pdfrwt beam="1">  1       -1 0.61435858E-01 0.16215295E+03</pdfrwt>
<totfact> 0.19104111E+03</totfact>
</mgrwt>
</event>
<event>
 7    1  0.7800420E-006  0.1730194E+03  0.7546771E-02  0.1180541E+00
          1   -1    0    0  501    0  0.00000000000E+00  0.00000000000E+00  0.11965109073E+03  0.11965109073E+03  0.00000000000E+00 0. -1.
         -1   -1    0    0    0  501 -0.00000000000E+00 -0.00000000000E+00 -0.26316115244E+03  0.26316115244E+03  0.00000000000E+00 0.  1.
         23    2    1    2    0    0  0.39318797731E+02 -0.11298717761E+03  0.13261949764E+01  0.17302449816E+03  0.12499459193E+03 0.  0.
          5    1    3    3  502    0 -0.41928611067E+02 -0.48408156903E+02  0.20438978027E+02  0.67388425591E+02  0.47000000000E+01 0.  1.
         -5    1    3    3    0  502  0.81247408798E+02 -0.64579020709E+02 -0.19112783051E+02  0.10563607257E+03  0.47000000000E+01 0.  1.
        -11    1    1    2    0    0 -0.20176470292E+02  0.12659062537E+03 -0.12503924533E+03  0.17907286019E+03  0.00000000000E+00 0.  1.
         11    1    1    2    0    0 -0.19142327439E+02 -0.13603447757E+02 -0.19797011359E+02  0.30714884819E+02  0.00000000000E+00 0. -1.
<mgrwt>
<rscale>  0 0.16744253E+03</rscale>
<asrwt>0</asrwt>
<pdfrwt beam="1">  1        1 0.18407861E-01 0.17301942E+03</pdfrwt>
<pdfrwt beam="2">  1       -1 0.40486330E-01 0.17301942E+03</pdfrwt>
<totfact> 0.16944418E+03</totfact>
</mgrwt>
</event>
<event>
 6    1  0.7800420E-006  0.1623943E+03  0.7546771E-02  0.1217722E+00
          2   -1    0    0  501    0  0.00000000000E+00  0.00000000000E+00  0.45630360028E+03  0.45630360028E+03  0.00000000000E+00 0. -1.
         -2   -1    0    0    0  501 -0.00000000000E+00 -0.00000000000E+00 -0.35204280389E+02  0.35204280389E+02  0.00000000000E+00 0.  1.
          5    1    1    2  502    0  0.36723369823E+02  0.12390871117E+02  0.34449081257E+03  0.34669604774E+03  0.47000000000E+01 0. -1.
         -5    1    1    2    0  502 -0.26858482558E+02 -0.16467142844E+00 -0.67219872135E+01  0.28083452674E+02  0.47000000000E+01 0.  1.
        -11    1    1    2    0    0  0.34231190061E+02 -0.15356917899E+02  0.37123105448E+02  0.52780055499E+02  0.00000000000E+00 0. -1.
         11    1    1    2    0    0 -0.44096077327E+02  0.31307182103E+01  0.46207389087E+02  0.63948324750E+02  0.00000000000E+00 0.  1.
<mgrwt>
<rscale>  0 0.13678472E+03</rscale>
<asrwt>0</asrwt>
<pdfrwt beam="1">  1        2 0.70200550E-01 0.16239426E+03</pdfrwt>
<pdfrwt beam="2">  1       -2 0.54160435E-02 0.16239426E+03</pdfrwt>
<totfact> 0.11487625E+04</totfact>
</mgrwt>
</event>
<event>
 7    1  0.7800420E-006  0.1680039E+03  0.7546771E-02  0.1186713E+00
          1   -1    0    0  501    0  0.00000000000E+00  0.00000000000E+00  0.84678291593E+02  0.84678291593E+02  0.00000000000E+00 0. -1.
         -1   -1    0    0    0  501 -0.00000000000E+00 -0.00000000000E+00 -0.29921871358E+03  0.29921871358E+03  0.00000000000E+00 0.  1.
         23    2    1    2    0    0  0.11070035145E+03 -0.18619730775E+02 -0.78299284328E+02  0.18535391420E+03  0.12499613353E+03 0.  0.
          5    1    3    3  502    0  0.43254157655E+02 -0.45635025068E+02 -0.91737940330E+02  0.11131674341E+03  0.47000000000E+01 0. -1.
         -5    1    3    3    0  502  0.67446193795E+02  0.27015294292E+02  0.13438656002E+02  0.74037170787E+02  0.47000000000E+01 0. -1.
        -11    1    1    2    0    0 -0.39021391941E+02 -0.15466627210E+02 -0.10529417089E+03  0.11335231806E+03  0.00000000000E+00 0.  1.
         11    1    1    2    0    0 -0.71678959509E+02  0.34086357986E+02 -0.30946966763E+02  0.85190772909E+02  0.00000000000E+00 0. -1.
<mgrwt>
<rscale>  0 0.16176992E+03</rscale>
<asrwt>0</asrwt>
<pdfrwt beam="1">  1        1 0.13027430E-01 0.16800386E+03</pdfrwt>
<pdfrwt beam="2">  1       -1 0.46033648E-01 0.16800386E+03</pdfrwt>
<totfact> 0.21095264E+03</totfact>
</mgrwt>
</event>
<event>
 7    1  0.1192903E-005  0.1375210E+03  0.7546771E-02  0.1228439E+00
         -1   -1    0    0    0  501 -0.00000000000E+00  0.00000000000E+00  0.12155752842E+02  0.12155752842E+02  0.00000000000E+00 0.  1.
          1   -1    0    0  501    0  0.00000000000E+00 -0.00000000000E+00 -0.14678455556E+04  0.14678455556E+04  0.00000000000E+00 0. -1.
         23    2    1    2    0    0  0.27614572912E+02  0.50245851051E+02 -0.10950522192E+04  0.11036536521E+04  0.12499924342E+03 0.  0.
          5    1    3    3  502    0 -0.49801590865E+02  0.25031875298E+02 -0.45693510954E+03  0.46034614972E+03  0.47000000000E+01 0.  1.
         -5    1    3    3    0  502  0.77416163776E+02  0.25213975754E+02 -0.63811710961E+03  0.64330750234E+03  0.47000000000E+01 0.  1.
        -11    1    1    2    0    0 -0.51750798501E+02 -0.12269431886E+00 -0.16184017839E+03  0.16991292929E+03  0.00000000000E+00 0.  1.
         11    1    1    2    0    0  0.24136225590E+02 -0.50123156732E+02 -0.19879740517E+03  0.20643472705E+03  0.00000000000E+00 0. -1.
<mgrwt>
<rscale>  0 0.12933955E+03</rscale>
<asrwt>0</asrwt>
<pdfrwt beam="2">  1        1 0.22582235E+00 0.13752098E+03</pdfrwt>
<pdfrwt beam="1">  1       -1 0.18701162E-02 0.13752098E+03</pdfrwt>
<totfact> 0.55828553E+03</totfact>
</mgrwt>
</event>
<event>
 7    1  0.7800420E-006  0.1382296E+03  0.7546771E-02  0.1229978E+00
          1   -1    0    0  501    0  0.00000000000E+00  0.00000000000E+00  0.85576198746E+03  0.85576198746E+03  0.00000000000E+00 0. -1.
         -1   -1    0    0    0  501 -0.00000000000E+00 -0.00000000000E+00 -0.26851761095E+02  0.26851761095E+02  0.00000000000E+00 0.  1.
         23    2    1    2    0    0 -0.58594242524E+02 -0.79366873289E+01  0.71925997582E+03  0.73242223084E+03  0.12494452827E+03 0.  0.
          5    1    3    3  502    0 -0.31138192219E+02 -0.35685519681E+02  0.65742480297E+03  0.65914528360E+03  0.47000000000E+01 0.  1.
         -5    1    3    3    0  502 -0.27456050304E+02  0.27748832352E+02  0.61835172851E+02  0.73276947240E+02  0.47000000000E+01 0.  1.
        -11    1    1    2    0    0  0.12548220686E+01  0.37881103369E+02  0.38320969522E+02  0.53898509034E+02  0.00000000000E+00 0.  1.
         11    1    1    2    0    0  0.57339420455E+02 -0.29944416041E+02  0.71329281018E+02  0.96293008680E+02  0.00000000000E+00 0. -1.
<mgrwt>
<rscale>  0 0.12831472E+03</rscale>
<asrwt>0</asrwt>
<pdfrwt beam="1">  1        1 0.13165567E+00 0.13822956E+03</pdfrwt>
<pdfrwt beam="2">  1       -1 0.41310408E-02 0.13822956E+03</pdfrwt>
<totfact> 0.47336761E+03</totfact>
</mgrwt>
</event>
<event>
 6    1  0.7800420E-006  0.1949210E+03  0.7546771E-02  0.1188440E+00
         -2   -1    0    0    0  501 -0.00000000000E+00  0.00000000000E+00  0.31032197073E+02  0.31032197073E+02  0.00000000000E+00 0.  1.
          2   -1    0    0  501    0  0.00000000000E+00 -0.00000000000E+00 -0.88438442235E+03  0.88438442235E+03  0.00000000000E+00 0. -1.
          5    1    1    2  502    0  0.42203260675E+02 -0.11165023913E+02 -0.66741371043E+03  0.66885642991E+03  0.47000000000E+01 0. -1.
         -5    1    1    2    0  502 -0.70481643949E+02  0.10461100294E+02 -0.99702556454E+02  0.12263680735E+03  0.47000000000E+01 0.  1.
        -11    1    1    2    0    0  0.42700001352E+02 -0.28980747964E+02 -0.32895210147E+02  0.61198600627E+02  0.00000000000E+00 0.  1.
         11    1    1    2    0    0 -0.14421618077E+02  0.29684671583E+02 -0.53340748251E+02  0.62724781537E+02  0.00000000000E+00 0. -1.
<mgrwt>
<rscale>  0 0.16022749E+03</rscale>
<asrwt>0</asrwt>
<pdfrwt beam="2">  1        2 0.13605912E+00 0.19492095E+03</pdfrwt>
<pdfrwt beam="1">  1       -2 0.47741848E-02 0.19492095E+03</pdfrwt>
<totfact> 0.64363194E+03</totfact>
</mgrwt>
</event>
<event>
 7    1  0.7800420E-006  0.1547927E+03  0.7546771E-02  0.1203079E+00
         -2   -1    0    0    0  501 -0.00000000000E+00  0.00000000000E+00  0.69561161735E+02  0.69561161735E+02  0.00000000000E+00 0.  1.
          2   -1    0    0  501    0  0.00000000000E+00 -0.00000000000E+00 -0.48919337340E+03  0.48919337340E+03  0.00000000000E+00 0. -1.
         23    2    1    2    0    0 -0.90817060804E+02  0.93677076010E+01 -0.39917594347E+03  0.42813806793E+03  0.12500111555E+03 0.  0.
          5    1    3    3  502    0 -0.51329472189E+02 -0.53478586627E+02 -0.25919593531E+03  0.26962807129E+03  0.47000000000E+01 0. -1.
         -5    1    3    3    0  502 -0.39487588615E+02  0.62846294228E+02 -0.13998000816E+03  0.15850999664E+03  0.47000000000E+01 0. -1.
        -11    1    1    2    0    0  0.62148529155E+02  0.33932937813E+02  0.82361308529E+01  0.71286168336E+02  0.00000000000E+00 0.  1.
         11    1    1    2    0    0  0.28668531649E+02 -0.43300645414E+02 -0.28692399043E+02  0.59330298861E+02  0.00000000000E+00 0. -1.
<mgrwt>
<rscale>  0 0.14789863E+03</rscale>
<asrwt>0</asrwt>
<pdfrwt beam="2">  1        2 0.75260520E-01 0.15479267E+03</pdfrwt>
<pdfrwt beam="1">  1       -2 0.10701717E-01 0.15479267E+03</pdfrwt>
<totfact> 0.37028607E+03</totfact>
</mgrwt>
</event>
<event>
 7    1  0.7800420E-006  0.1894826E+03  0.7546771E-02  0.1163714E+00
         -2   -1    0    0    0  501 -0.00000000000E+00  0.00000000000E+00  0.21910125289E+03  0.21910125289E+03  0.00000000000E+00 0.  1.
          2   -1    0    0  501    0  0.00000000000E+00 -0.00000000000E+00 -0.14847349991E+03  0.14847349991E+03  0.00000000000E+00 0. -1.
         23    2    1    2    0    0  0.82633726825E+02  0.11597594983E+03  0.19516635885E+02  0.19048501382E+03  0.12499955067E+03 0.  0.
          5    1    3    3  502    0  0.10694338002E+03  0.11430519920E+03  0.36006822591E+02  0.16068959633E+03  0.47000000000E+01 0. -1.
         -5    1    3    3    0  502 -0.24309653196E+02  0.16707506288E+01 -0.16490186706E+02  0.29795417496E+02  0.47000000000E+01 0. -1.
        -11    1    1    2    0    0 -0.90898385352E+02 -0.76784023227E+02  0.63877581877E+02  0.13505053924E+03  0.00000000000E+00 0.  1.
         11    1    1    2    0    0  0.82646585270E+01 -0.39191926602E+02 -0.12766464777E+02  0.42039199733E+02  0.00000000000E+00 0. -1.
<mgrwt>
<rscale>  0 0.18429082E+03</rscale>
<asrwt>0</asrwt>
<pdfrwt beam="2">  1        2 0.22842077E-01 0.18948256E+03</pdfrwt>
<pdfrwt beam="1">  1       -2 0.33707885E-01 0.18948256E+03</pdfrwt>
<totfact> 0.19361903E+03</totfact>
</mgrwt>
</event>
<event>
 7    1  0.7800420E-006  0.1286558E+03  0.7546771E-02  0.1257307E+00
         -2   -1    0    0    0  501 -0.00000000000E+00  0.00000000000E+00  0.12376453797E+02  0.12376453797E+02  0.00000000000E+00 0.  1.
          2   -1    0    0  501    0  0.00000000000E+00 -0.00000000000E+00 -0.12478795768E+04  0.12478795768E+04  0.00000000000E+00 0. -1.
         23    2    1    2    0    0  0.75998682446E+01  0.29470813523E+02 -0.10875652094E+04  0.10951485694E+04  0.12500406924E+03 0.  0.
          5    1    3    3  502    0  0.37086542247E+02  0.67991713740E+02 -0.76454986117E+03  0.76847697752E+03  0.47000000000E+01 0. -1.
         -5    1    3    3    0  502 -0.29486674002E+02 -0.38520900217E+02 -0.32301534826E+03  0.32667159183E+03  0.47000000000E+01 0. -1.
        -11    1    1    2    0    0 -0.84205935299E+01  0.17209328199E+02 -0.82665281704E+02  0.84856444491E+02  0.00000000000E+00 0.  1.
         11    1    1    2    0    0  0.82072528530E+00 -0.46680141722E+02 -0.65272631901E+02  0.80251016794E+02  0.00000000000E+00 0. -1.
<mgrwt>
<rscale>  0 0.11178092E+03</rscale>
<asrwt>0</asrwt>
<pdfrwt beam="2">  1        2 0.19198151E+00 0.12865576E+03</pdfrwt>
<pdfrwt beam="1">  1       -2 0.19040695E-02 0.12865576E+03</pdfrwt>
<totfact> 0.14984695E+04</totfact>
</mgrwt>
</event>
<event>
 7    1  0.7800420E-006  0.3344906E+03  0.7546771E-02  0.1069782E+00
         -1   -1    0    0    0  501 -0.00000000000E+00  0.00000000000E+00  0.17832892981E+03  0.17832892981E+03  0.00000000000E+00 0.  1.
          1   -1    0    0  501    0  0.00000000000E+00 -0.00000000000E+00 -0.10702399903E+04  0.10702399903E+04  0.00000000000E+00 0. -1.
         23    2    1    2    0    0 -0.29667649674E+03  0.10705059390E+03 -0.85441671817E+03  0.91755755306E+03  0.11138743876E+03 0.  0.
          5    1    3    3  502    0 -0.13338832734E+03  0.10497989230E+03 -0.39481515643E+03  0.42978404043E+03  0.47000000000E+01 0. -1.
         -5    1    3    3    0  502 -0.16328816940E+03  0.20707015954E+01 -0.45960156175E+03  0.48777351264E+03  0.47000000000E+01 0.  1.
        -11    1    1    2    0    0 -0.18884599599E+01 -0.12936291228E+02 -0.10563760794E+02  0.16807943177E+02  0.00000000000E+00 0. -1.
         11    1    1    2    0    0  0.29856495670E+03 -0.94114302670E+02 -0.26930581509E+02  0.31420342385E+03  0.00000000000E+00 0.  1.
<mgrwt>
<rscale>  0 0.33307926E+03</rscale>
<asrwt>0</asrwt>
<pdfrwt beam="2">  1        1 0.16465230E+00 0.33449056E+03</pdfrwt>
<pdfrwt beam="1">  1       -1 0.27435221E-01 0.33449056E+03</pdfrwt>
<totfact> 0.16870483E+02</totfact>
</mgrwt>
</event>
<event>
 7    1  0.7800420E-006  0.1466597E+03  0.7546771E-02  0.1214526E+00
         -1   -1    0    0    0  501 -0.00000000000E+00  0.00000000000E+00  0.43558121520E+03  0.43558121520E+03  0.00000000000E+00 0.  1.
          1   -1    0    0  501    0  0.00000000000E+00 -0.00000000000E+00 -0.40445762848E+02  0.40445762848E+02  0.00000000000E+00 0. -1.
         23    2    1    2    0    0  0.58131252133E+02  0.50047774897E+02  0.22391750598E+03  0.26767168283E+03  0.12500023223E+03 0.  0.
          5    1    3    3  502    0 -0.15437971172E+02 -0.75872434781E+01  0.14256987073E+03  0.14368074074E+03  0.47000000000E+01 0. -1.
         -5    1    3    3    0  502  0.73569223304E+02  0.57635018375E+02  0.81347635251E+02  0.12399094209E+03  0.47000000000E+01 0. -1.
        -11    1    1    2    0    0  0.16267126736E+02 -0.14899911319E+02  0.46098089284E+01  0.22536128947E+02  0.00000000000E+00 0. -1.
         11    1    1    2    0    0 -0.74398378869E+02 -0.35147863578E+02  0.16660813744E+03  0.18581916627E+03  0.00000000000E+00 0.  1.
<mgrwt>
<rscale>  0 0.13911421E+03</rscale>
<asrwt>0</asrwt>
<pdfrwt beam="2">  1        1 0.62224253E-02 0.14665974E+03</pdfrwt>
<pdfrwt beam="1">  1       -1 0.67012492E-01 0.14665974E+03</pdfrwt>
<totfact> 0.27861312E+03</totfact>
</mgrwt>
</event>
<event>
 7    1  0.7800420E-006  0.1259849E+03  0.7546771E-02  0.1248640E+00
         -1   -1    0    0    0  501 -0.00000000000E+00  0.00000000000E+00  0.81570884122E+02  0.81570884122E+02  0.00000000000E+00 0.  1.
          1   -1    0    0  501    0  0.00000000000E+00 -0.00000000000E+00 -0.19040436257E+03  0.19040436257E+03  0.00000000000E+00 0. -1.
         23    2    1    2    0    0 -0.14640167669E+02 -0.57175738355E+01 -0.12539318637E+03  0.17775166793E+03  0.12500071641E+03 0.  0.
          5    1    3    3  502    0  0.14217189101E+02  0.55836202691E+02 -0.59520340256E+02  0.82973314391E+02  0.47000000000E+01 0.  1.
         -5    1    3    3    0  502 -0.28857356770E+02 -0.61553776527E+02 -0.65872846118E+02  0.94778353542E+02  0.47000000000E+01 0.  1.
        -11    1    1    2    0    0 -0.11442211227E+02 -0.12939870786E+02  0.46959787313E+02  0.50035847932E+02  0.00000000000E+00 0.  1.
         11    1    1    2    0    0  0.26082378897E+02  0.18657444621E+02 -0.30400079383E+02  0.44187730822E+02  0.00000000000E+00 0. -1.
<mgrwt>
<rscale>  0 0.11670128E+03</rscale>
<asrwt>0</asrwt>
<pdfrwt beam="2">  1        1 0.29292979E-01 0.12598494E+03</pdfrwt>
<pdfrwt beam="1">  1       -1 0.12549367E-01 0.12598494E+03</pdfrwt>
<totfact> 0.63091441E+03</totfact>
</mgrwt>
</event>
<event>
 7    1  0.7800420E-006  0.1905214E+03  0.7546771E-02  0.1165642E+00
          2   -1    0    0  501    0  0.00000000000E+00  0.00000000000E+00  0.57830779278E+03  0.57830779278E+03  0.00000000000E+00 0.  1.
         -2   -1    0    0    0  501 -0.00000000000E+00 -0.00000000000E+00 -0.55970425778E+02  0.55970425778E+02  0.00000000000E+00 0. -1.
         23    2    1    2    0    0  0.69515184161E+02  0.12588097339E+03  0.35617025371E+03  0.40392528839E+03  0.12498003313E+03 0.  0.
          5    1    3    3  502    0  0.43683034933E+02  0.13091209668E+03  0.18593317651E+03  0.23160185821E+03  0.47000000000E+01 0. -1.
         -5    1    3    3    0  502  0.25832149228E+02 -0.50311232957E+01  0.17023707720E+03  0.17232343018E+03  0.47000000000E+01 0. -1.
        -11    1    1    2    0    0  0.13840097382E+02 -0.22006126495E+02  0.33053644505E+02  0.42051888352E+02  0.00000000000E+00 0. -1.
         11    1    1    2    0    0 -0.83355281543E+02 -0.10387484689E+03  0.13311346879E+03  0.18830104182E+03  0.00000000000E+00 0.  1.
<mgrwt>
<rscale>  0 0.18225136E+03</rscale>
<asrwt>0</asrwt>
<pdfrwt beam="1">  1        2 0.88970426E-01 0.19052136E+03</pdfrwt>
<pdfrwt beam="2">  1       -2 0.86108351E-02 0.19052136E+03</pdfrwt>
<totfact> 0.43600132E+03</totfact>
</mgrwt>
</event>
<event>
 7    1  0.7800420E-006  0.2182097E+03  0.7546771E-02  0.1138957E+00
         -2   -1    0    0    0  501 -0.00000000000E+00  0.00000000000E+00  0.10531508588E+03  0.10531508588E+03  0.00000000000E+00 0.  1.
          2   -1    0    0  501    0  0.00000000000E+00 -0.00000000000E+00 -0.76501221994E+03  0.76501221994E+03  0.00000000000E+00 0. -1.
         23    2    1    2    0    0  0.15429817463E+03  0.90452617077E+02 -0.63258450923E+03  0.66916263829E+03  0.12500349010E+03 0.  0.
          5    1    3    3  502    0  0.63444294360E+02 -0.55165942802E+01 -0.87843760599E+02  0.10860123192E+03  0.47000000000E+01 0.  1.
         -5    1    3    3    0  502  0.90853880274E+02  0.95969211357E+02 -0.54474074863E+03  0.56056140637E+03  0.47000000000E+01 0.  1.
        -11    1    1    2    0    0 -0.56276471266E+02  0.10318448689E+02  0.33806212423E+01  0.57314397855E+02  0.00000000000E+00 0.  1.
         11    1    1    2    0    0 -0.98021703368E+02 -0.10077106577E+03 -0.30493246069E+02  0.14385026966E+03  0.00000000000E+00 0. -1.
<mgrwt>
<rscale>  0 0.21332820E+03</rscale>
<asrwt>0</asrwt>
<pdfrwt beam="2">  1        2 0.11769419E+00 0.21820970E+03</pdfrwt>
<pdfrwt beam="1">  1       -2 0.16202321E-01 0.21820970E+03</pdfrwt>
<totfact> 0.11313174E+03</totfact>
</mgrwt>
</event>
<event>
 7    1  0.7800420E-006  0.2417452E+03  0.7546771E-02  0.1120145E+00
          1   -1    0    0  501    0  0.00000000000E+00  0.00000000000E+00  0.34926160028E+03  0.34926160028E+03  0.00000000000E+00 0. -1.
         -1   -1    0    0    0  501 -0.00000000000E+00 -0.00000000000E+00 -0.21904278098E+03  0.21904278098E+03  0.00000000000E+00 0.  1.
         23    2    1    2    0    0  0.21338730485E+03 -0.19726532442E+02  0.21204372134E+03  0.32156377013E+03  0.11188136817E+03 0.  0.
          5    1    3    3  502    0  0.11167301203E+03 -0.41228942059E+01  0.18310740086E+03  0.21456530502E+03  0.47000000000E+01 0. -1.
         -5    1    3    3    0  502  0.10171429282E+03 -0.15603638236E+02  0.28936320485E+02  0.10699846510E+03  0.47000000000E+01 0.  1.
        -11    1    1    2    0    0 -0.19581911178E+03 -0.41036795760E+01 -0.90684857323E+02  0.21583722587E+03  0.00000000000E+00 0. -1.
         11    1    1    2    0    0 -0.17568193069E+02  0.23830212018E+02  0.88599552802E+01  0.30903385253E+02  0.00000000000E+00 0.  1.
<mgrwt>
<rscale>  0 0.23947150E+03</rscale>
<asrwt>0</asrwt>
<pdfrwt beam="1">  1        1 0.53732554E-01 0.24174515E+03</pdfrwt>
<pdfrwt beam="2">  1       -1 0.33698889E-01 0.24174515E+03</pdfrwt>
<totfact> 0.60582195E+02</totfact>
</mgrwt>
</event>
<event>
 7    1  0.7800420E-006  0.1361031E+03  0.7546771E-02  0.1233155E+00
          1   -1    0    0  501    0  0.00000000000E+00  0.00000000000E+00  0.70046364341E+03  0.70046364341E+03  0.00000000000E+00 0. -1.
         -1   -1    0    0    0  501 -0.00000000000E+00 -0.00000000000E+00 -0.21715622736E+02  0.21715622736E+02  0.00000000000E+00 0.  1.
         23    2    1    2    0    0 -0.25720753577E+01  0.53788283095E+02  0.48609591716E+03  0.50479034163E+03  0.12499701335E+03 0.  0.
          5    1    3    3  502    0  0.26964155555E+02  0.66070834095E+02  0.14019980167E+03  0.15738645174E+03  0.47000000000E+01 0. -1.
         -5    1    3    3    0  502 -0.29536230913E+02 -0.12282551000E+02  0.34589611549E+03  0.34740388989E+03  0.47000000000E+01 0. -1.
        -11    1    1    2    0    0 -0.25562917187E+02  0.56176288116E+01  0.10268192219E+03  0.10596507742E+03  0.00000000000E+00 0. -1.
         11    1    1    2    0    0  0.28134992545E+02 -0.59405911907E+02  0.89970181323E+02  0.11142384710E+03  0.00000000000E+00 0.  1.
<mgrwt>
<rscale>  0 0.12623284E+03</rscale>
<asrwt>0</asrwt>
<pdfrwt beam="1">  1        1 0.10776362E+00 0.13610308E+03</pdfrwt>
<pdfrwt beam="2">  1       -1 0.33408656E-02 0.13610308E+03</pdfrwt>
<totfact> 0.86973959E+03</totfact>
</mgrwt>
</event>
<event>
 7    1  0.7800420E-006  0.1710264E+03  0.7546771E-02  0.1183452E+00
          2   -1    0    0  501    0  0.00000000000E+00  0.00000000000E+00  0.30625544873E+03  0.30625544873E+03  0.00000000000E+00 0. -1.
         -2   -1    0    0    0  501 -0.00000000000E+00 -0.00000000000E+00 -0.82781550401E+02  0.82781550401E+02  0.00000000000E+00 0.  1.
         23    2    1    2    0    0 -0.10375960660E+03 -0.53482789856E+02  0.12704245395E+03  0.21304887555E+03  0.12499429385E+03 0.  0.
          5    1    3    3  502    0 -0.82537931793E+02 -0.18595760612E+02  0.56945841933E+01  0.84928386224E+02  0.47000000000E+01 0. -1.
         -5    1    3    3    0  502 -0.21221674804E+02 -0.34887029244E+02  0.12134786976E+03  0.12812048933E+03  0.47000000000E+01 0. -1.
        -11    1    1    2    0    0  0.49682934548E+02  0.29594109361E+02 -0.55661614198E+01  0.58096363458E+02  0.00000000000E+00 0.  1.
         11    1    1    2    0    0  0.54076672050E+02  0.23888680495E+02  0.10199760580E+03  0.11789176012E+03  0.00000000000E+00 0. -1.
<mgrwt>
<rscale>  0 0.16473534E+03</rscale>
<asrwt>0</asrwt>
<pdfrwt beam="1">  1        2 0.47116222E-01 0.17102643E+03</pdfrwt>
<pdfrwt beam="2">  1       -2 0.12735623E-01 0.17102643E+03</pdfrwt>
<totfact> 0.46636035E+03</totfact>
</mgrwt>
</event>
<event>
 7    1  0.7800420E-006  0.1434854E+03  0.7546771E-02  0.1219184E+00
          2   -1    0    0  501    0  0.00000000000E+00  0.00000000000E+00  0.66831262484E+03  0.66831262484E+03  0.00000000000E+00 0. -1.
         -2   -1    0    0    0  501 -0.00000000000E+00 -0.00000000000E+00 -0.34719014977E+02  0.34719014977E+02  0.00000000000E+00 0.  1.
         23    2    1    2    0    0  0.66619601517E+02 -0.22901031942E+02  0.52738370558E+03  0.54655432416E+03  0.12500171106E+03 0.  0.
          5    1    3    3  502    0  0.13332504374E+02 -0.64986774381E+02  0.35582039187E+03  0.36198242745E+03  0.47000000000E+01 0.  1.
         -5    1    3    3    0  502  0.53287097143E+02  0.42085742439E+02  0.17156331372E+03  0.18457189670E+03  0.47000000000E+01 0.  1.
        -11    1    1    2    0    0 -0.10701488914E+02 -0.47095955028E+01 -0.15680483082E+02  0.19559644793E+02  0.00000000000E+00 0.  1.
         11    1    1    2    0    0 -0.55918112603E+02  0.27610627445E+02  0.12189038736E+03  0.13691767087E+03  0.00000000000E+00 0. -1.
<mgrwt>
<rscale>  0 0.13573644E+03</rscale>
<asrwt>0</asrwt>
<pdfrwt beam="1">  1        2 0.10281732E+00 0.14348539E+03</pdfrwt>
<pdfrwt beam="2">  1       -2 0.53413874E-02 0.14348539E+03</pdfrwt>
<totfact> 0.75749088E+03</totfact>
</mgrwt>
</event>
<event>
 7    1  0.7800420E-006  0.1504559E+03  0.7546771E-02  0.1208791E+00
         -2   -1    0    0    0  501 -0.00000000000E+00  0.00000000000E+00  0.23263533333E+03  0.23263533333E+03  0.00000000000E+00 0.  1.
          2   -1    0    0  501    0  0.00000000000E+00 -0.00000000000E+00 -0.99137035632E+02  0.99137035632E+02  0.00000000000E+00 0. -1.
         23    2    1    2    0    0  0.59283019362E+02  0.59139372753E+02  0.14559696621E+01  0.15046291475E+03  0.12500010830E+03 0.  0.
          5    1    3    3  502    0 -0.24650426967E+02  0.60673376085E+02  0.79290382007E+01  0.66135177946E+02  0.47000000000E+01 0.  1.
         -5    1    3    3    0  502  0.83933446329E+02 -0.15340033315E+01 -0.64730685386E+01  0.84327736808E+02  0.47000000000E+01 0.  1.
        -11    1    1    2    0    0 -0.57441441524E+02  0.28247394348E+01  0.38928243710E+02  0.69447149081E+02  0.00000000000E+00 0.  1.
         11    1    1    2    0    0 -0.18415778381E+01 -0.61964112188E+02  0.93114084323E+02  0.11186230512E+03  0.00000000000E+00 0. -1.
<mgrwt>
<rscale>  0 0.14342687E+03</rscale>
<asrwt>0</asrwt>
<pdfrwt beam="2">  1        2 0.15251852E-01 0.15045587E+03</pdfrwt>
<pdfrwt beam="1">  1       -2 0.35790051E-01 0.15045587E+03</pdfrwt>
<totfact> 0.27267823E+03</totfact>
</mgrwt>
</event>
<event>
 7    1  0.7800420E-006  0.1254645E+03  0.7546771E-02  0.1249647E+00
          2   -1    0    0  501    0  0.00000000000E+00  0.00000000000E+00  0.14258152459E+03  0.14258152459E+03  0.00000000000E+00 0. -1.
         -2   -1    0    0    0  501 -0.00000000000E+00 -0.00000000000E+00 -0.84028137317E+02  0.84028137317E+02  0.00000000000E+00 0.  1.
         23    2    1    2    0    0  0.66442105870E+01  0.80085452967E+01  0.46387891875E+02  0.13376538907E+03  0.12503223771E+03 0.  0.
          5    1    3    3  502    0  0.42725386843E+01 -0.57843714973E+02  0.12501946827E+02  0.59519229020E+02  0.47000000000E+01 0.  1.
         -5    1    3    3    0  502  0.23716719027E+01  0.65852260269E+02  0.33885945048E+02  0.74246160049E+02  0.47000000000E+01 0.  1.
        -11    1    1    2    0    0 -0.24821983209E+02 -0.41601661418E+02 -0.88542362644E+01  0.49246589557E+02  0.00000000000E+00 0.  1.
         11    1    1    2    0    0  0.18177772622E+02  0.33593116121E+02  0.21019731660E+02  0.43597683279E+02  0.00000000000E+00 0. -1.
<mgrwt>
<rscale>  0 0.11611526E+03</rscale>
<asrwt>0</asrwt>
<pdfrwt beam="1">  1        2 0.21935619E-01 0.12546451E+03</pdfrwt>
<pdfrwt beam="2">  1       -2 0.12927406E-01 0.12546451E+03</pdfrwt>
<totfact> 0.10212893E+04</totfact>
</mgrwt>
</event>
<event>
 7    1  0.7800420E-006  0.1566426E+03  0.7546771E-02  0.1204951E+00
         -3   -1    0    0    0  501 -0.00000000000E+00  0.00000000000E+00  0.51720059093E+03  0.51720059093E+03  0.00000000000E+00 0.  1.
          3   -1    0    0  501    0  0.00000000000E+00 -0.00000000000E+00 -0.41112981296E+02  0.41112981296E+02  0.00000000000E+00 0. -1.
         23    2    1    2    0    0  0.83503936820E+02 -0.44053454374E+02  0.17781709155E+03  0.23697221178E+03  0.12499318702E+03 0.  0.
          5    1    3    3  502    0  0.90778112948E+02 -0.39883369828E+02  0.54423748935E+02  0.11320505036E+03  0.47000000000E+01 0. -1.
         -5    1    3    3    0  502 -0.72741761280E+01 -0.41700845463E+01  0.12339334262E+03  0.12376716142E+03  0.47000000000E+01 0. -1.
        -11    1    1    2    0    0 -0.43004016742E+02  0.53253800835E+02  0.11861967291E+03  0.13695232586E+03  0.00000000000E+00 0. -1.
         11    1    1    2    0    0 -0.40499920078E+02 -0.92003464612E+01  0.17965084518E+03  0.18438903458E+03  0.00000000000E+00 0.  1.
<mgrwt>
<rscale>  0 0.14641324E+03</rscale>
<asrwt>0</asrwt>
<pdfrwt beam="2">  1        3 0.63250744E-02 0.15664262E+03</pdfrwt>
<pdfrwt beam="1">  1       -3 0.79569317E-01 0.15664262E+03</pdfrwt>
<totfact> 0.55796080E+02</totfact>
</mgrwt>
</event>
<event>
 7    1  0.7800420E-006  0.1551523E+03  0.7546771E-02  0.1203139E+00
          1   -1    0    0  501    0  0.00000000000E+00  0.00000000000E+00  0.85961602126E+03  0.85961602126E+03  0.00000000000E+00 0. -1.
         -1   -1    0    0    0  501 -0.00000000000E+00 -0.00000000000E+00 -0.24742385642E+02  0.24742385642E+02  0.00000000000E+00 0.  1.
         23    2    1    2    0    0  0.55761391408E+02 -0.72837720012E+02  0.56122493935E+03  0.58227629320E+03  0.12513026351E+03 0.  0.
          5    1    3    3  502    0 -0.17259330232E+02 -0.13138554471E+02  0.12475795563E+02  0.25460588536E+02  0.47000000000E+01 0.  1.
         -5    1    3    3    0  502  0.73020721640E+02 -0.59699165541E+02  0.54874914379E+03  0.55681570467E+03  0.47000000000E+01 0.  1.
        -11    1    1    2    0    0 -0.36278504025E+02  0.46292543981E+02  0.25977724851E+03  0.26635192571E+03  0.00000000000E+00 0. -1.
         11    1    1    2    0    0 -0.19482887383E+02  0.26545176031E+02  0.13871447754E+02  0.35730187994E+02  0.00000000000E+00 0.  1.
<mgrwt>
<rscale>  0 0.14785119E+03</rscale>
<asrwt>0</asrwt>
<pdfrwt beam="1">  1        1 0.13224860E+00 0.15515234E+03</pdfrwt>
<pdfrwt beam="2">  1       -1 0.38065215E-02 0.15515234E+03</pdfrwt>
<totfact> 0.53270909E+03</totfact>
</mgrwt>
</event>
<event>
 7    1  0.7800420E-006  0.2134949E+03  0.7546771E-02  0.1142353E+00
          2   -1    0    0  501    0  0.00000000000E+00  0.00000000000E+00  0.89893001854E+03  0.89893001854E+03  0.00000000000E+00 0. -1.
         -2   -1    0    0    0  501 -0.00000000000E+00 -0.00000000000E+00 -0.46666206900E+02  0.46666206900E+02  0.00000000000E+00 0.  1.
         23    2    1    2    0    0  0.65553396278E+02  0.16018031769E+03  0.44984930947E+03  0.49794023267E+03  0.12500036860E+03 0.  0.
          5    1    3    3  502    0  0.10273764644E+03  0.12379309133E+03  0.32761165863E+03  0.36500855103E+03  0.47000000000E+01 0.  1.
         -5    1    3    3    0  502 -0.37184250160E+02  0.36387226360E+02  0.12223765084E+03  0.13293168164E+03  0.47000000000E+01 0.  1.
        -11    1    1    2    0    0 -0.21078234085E+02 -0.76100017482E+02  0.83786598983E+02  0.11513339560E+03  0.00000000000E+00 0.  1.
         11    1    1    2    0    0 -0.44475162192E+02 -0.84080300206E+02  0.31862790319E+03  0.33252259716E+03  0.00000000000E+00 0. -1.
<mgrwt>
<rscale>  0 0.20900882E+03</rscale>
<asrwt>0</asrwt>
<pdfrwt beam="1">  1        2 0.13829691E+00 0.21349490E+03</pdfrwt>
<pdfrwt beam="2">  1       -2 0.71794171E-02 0.21349490E+03</pdfrwt>
<totfact> 0.33841429E+03</totfact>
</mgrwt>
</event>
<event>
 7    1  0.7800420E-006  0.1642539E+03  0.7546771E-02  0.1190860E+00
          1   -1    0    0  501    0  0.00000000000E+00  0.00000000000E+00  0.40183705267E+03  0.40183705267E+03  0.00000000000E+00 0. -1.
         -1   -1    0    0    0  501 -0.00000000000E+00 -0.00000000000E+00 -0.58619567767E+02  0.58619567767E+02  0.00000000000E+00 0.  1.
         23    2    1    2    0    0 -0.24959790025E+02  0.10353451097E+03  0.20881663360E+03  0.26567598026E+03  0.12504780662E+03 0.  0.
          5    1    3    3  502    0 -0.10015752965E+02  0.13153727249E+03  0.16312716988E+03  0.20984502118E+03  0.47000000000E+01 0.  1.
         -5    1    3    3    0  502 -0.14944037060E+02 -0.28002761524E+02  0.45689463720E+02  0.55830959079E+02  0.47000000000E+01 0.  1.
        -11    1    1    2    0    0 -0.27942584813E+02 -0.68817280369E+02  0.93605745463E+02  0.11949327055E+03  0.00000000000E+00 0. -1.
         11    1    1    2    0    0  0.52902374839E+02 -0.34717230601E+02  0.40795105839E+02  0.75287369622E+02  0.00000000000E+00 0.  1.
<mgrwt>
<rscale>  0 0.15809845E+03</rscale>
<asrwt>0</asrwt>
<pdfrwt beam="1">  1        1 0.61821083E-01 0.16425389E+03</pdfrwt>
<pdfrwt beam="2">  1       -1 0.90183953E-02 0.16425389E+03</pdfrwt>
<totfact> 0.41985929E+03</totfact>
</mgrwt>
</event>
<event>
 7    1  0.7800420E-006  0.2405246E+03  0.7546771E-02  0.1122127E+00
          2   -1    0    0  501    0  0.00000000000E+00  0.00000000000E+00  0.36395085412E+03  0.36395085412E+03  0.00000000000E+00 0. -1.
         -2   -1    0    0    0  501 -0.00000000000E+00 -0.00000000000E+00 -0.14950222202E+03  0.14950222202E+03  0.00000000000E+00 0.  1.
         23    2    1    2    0    0  0.13590843678E+03 -0.15413166185E+03  0.12811146094E+03  0.27251533515E+03  0.12499755636E+03 0.  0.
          5    1    3    3  502    0  0.40213539282E+02 -0.11826305167E+03  0.11411881131E+03  0.16925859277E+03  0.47000000000E+01 0. -1.
         -5    1    3    3    0  502  0.95694897496E+02 -0.35868610182E+02  0.13992649624E+02  0.10325674238E+03  0.47000000000E+01 0. -1.
        -11    1    1    2    0    0 -0.67984477690E+02  0.51570507150E+02 -0.82981434643E+01  0.85733689991E+02  0.00000000000E+00 0.  1.
         11    1    1    2    0    0 -0.67923959088E+02  0.10256115470E+03  0.94635314623E+02  0.15520405100E+03  0.00000000000E+00 0. -1.
<mgrwt>
<rscale>  0 0.23652935E+03</rscale>
<asrwt>0</asrwt>
<pdfrwt beam="1">  1        2 0.55992439E-01 0.24052455E+03</pdfrwt>
<pdfrwt beam="2">  1       -2 0.23000342E-01 0.24052455E+03</pdfrwt>
<totfact> 0.14550594E+03</totfact>
</mgrwt>
</event>
<event>
 7    1  0.7800420E-006  0.1280814E+03  0.7546771E-02  0.1244041E+00
          1   -1    0    0  501    0  0.00000000000E+00  0.00000000000E+00  0.13496489980E+03  0.13496489980E+03  0.00000000000E+00 0. -1.
         -1   -1    0    0    0  501 -0.00000000000E+00 -0.00000000000E+00 -0.11615446484E+03  0.11615446484E+03  0.00000000000E+00 0.  1.
         23    2    1    2    0    0  0.15335671356E+02  0.23268641094E+02  0.65238174640E+02  0.14373884299E+03  0.12501289165E+03 0.  0.
          5    1    3    3  502    0  0.23842205975E+02  0.71496366566E+02  0.23114581421E+02  0.78971862661E+02  0.47000000000E+01 0.  1.
         -5    1    3    3    0  502 -0.85065346183E+01 -0.48227725472E+02  0.42123593219E+02  0.64766980330E+02  0.47000000000E+01 0.  1.
        -11    1    1    2    0    0 -0.21570256850E+02 -0.57718274152E+02 -0.26277152353E+02  0.66986296266E+02  0.00000000000E+00 0.  1.
         11    1    1    2    0    0  0.62345854941E+01  0.34449633058E+02 -0.20150587325E+02  0.40394225375E+02  0.00000000000E+00 0. -1.
<mgrwt>
<rscale>  0 0.11942936E+03</rscale>
<asrwt>0</asrwt>
<pdfrwt beam="1">  1        1 0.20763831E-01 0.12808136E+03</pdfrwt>
<pdfrwt beam="2">  1       -1 0.17869918E-01 0.12808136E+03</pdfrwt>
<totfact> 0.55931316E+03</totfact>
</mgrwt>
</event>
<event>
 7    1  0.7800420E-006  0.1295293E+03  0.7546771E-02  0.1242420E+00
         -2   -1    0    0    0  501 -0.00000000000E+00  0.00000000000E+00  0.14732492871E+02  0.14732492871E+02  0.00000000000E+00 0.  1.
          2   -1    0    0  501    0  0.00000000000E+00 -0.00000000000E+00 -0.12850145955E+04  0.12850145955E+04  0.00000000000E+00 0. -1.
         23    2    1    2    0    0 -0.31509164098E+02 -0.13059783724E+02 -0.10646393765E+04  0.10724900231E+04  0.12495784267E+03 0.  0.
          5    1    3    3  502    0  0.17711750168E+02 -0.21671670626E+02 -0.57713565727E+02  0.64314174726E+02  0.47000000000E+01 0.  1.
         -5    1    3    3    0  502 -0.49220914265E+02  0.86118869021E+01 -0.10069258107E+04  0.10081758484E+04  0.47000000000E+01 0.  1.
        -11    1    1    2    0    0  0.12738345421E+02  0.50614815858E+02 -0.87598349576E+02  0.10196860241E+03  0.00000000000E+00 0.  1.
         11    1    1    2    0    0  0.18770818677E+02 -0.37555032134E+02 -0.11804437657E+03  0.12528846280E+03  0.00000000000E+00 0. -1.
<mgrwt>
<rscale>  0 0.12041130E+03</rscale>
<asrwt>0</asrwt>
<pdfrwt beam="2">  1        2 0.19769453E+00 0.12952933E+03</pdfrwt>
<pdfrwt beam="1">  1       -2 0.22665376E-02 0.12952933E+03</pdfrwt>
<totfact> 0.11112992E+04</totfact>
</mgrwt>
</event>
<event>
 7    1  0.7800420E-006  0.1320867E+03  0.7546771E-02  0.1238643E+00
         -1   -1    0    0    0  501 -0.00000000000E+00  0.00000000000E+00  0.25312201804E+03  0.25312201804E+03  0.00000000000E+00 0.  1.
          1   -1    0    0  501    0  0.00000000000E+00 -0.00000000000E+00 -0.59662547708E+02  0.59662547708E+02  0.00000000000E+00 0. -1.
         23    2    1    2    0    0  0.23160701840E+02 -0.35858024094E+02  0.55488482494E+02  0.14326847343E+03  0.12499867114E+03 0.  0.
          5    1    3    3  502    0  0.51644132335E+02 -0.30996407349E+02  0.83291073280E+02  0.10289502690E+03  0.47000000000E+01 0. -1.
         -5    1    3    3    0  502 -0.28483430494E+02 -0.48616167452E+01 -0.27802590785E+02  0.40373446527E+02  0.47000000000E+01 0. -1.
        -11    1    1    2    0    0 -0.36776550421E+02 -0.11411863836E+02  0.10066426282E+03  0.10777773011E+03  0.00000000000E+00 0.  1.
         11    1    1    2    0    0  0.13615848580E+02  0.47269887930E+02  0.37306725020E+02  0.61738362217E+02  0.00000000000E+00 0. -1.
<mgrwt>
<rscale>  0 0.12274083E+03</rscale>
<asrwt>0</asrwt>
<pdfrwt beam="2">  1        1 0.91788536E-02 0.13208665E+03</pdfrwt>
<pdfrwt beam="1">  1       -1 0.38941848E-01 0.13208665E+03</pdfrwt>
<totfact> 0.44559011E+03</totfact>
</mgrwt>
</event>
<event>
 7    1  0.7800420E-006  0.1257734E+03  0.7546771E-02  0.1248852E+00
          2   -1    0    0  501    0  0.00000000000E+00  0.00000000000E+00  0.79508636003E+03  0.79508636003E+03  0.00000000000E+00 0. -1.
         -2   -1    0    0    0  501 -0.00000000000E+00 -0.00000000000E+00 -0.16981348973E+02  0.16981348973E+02  0.00000000000E+00 0.  1.
         23    2    1    2    0    0  0.11239158299E+02  0.82149244199E+01  0.57731686404E+03  0.59085844755E+03  0.12500055951E+03 0.  0.
          5    1    3    3  502    0 -0.49297107808E+02 -0.30103283895E+01  0.12731383074E+03  0.13663882469E+03  0.47000000000E+01 0. -1.
         -5    1    3    3    0  502  0.60536266107E+02  0.11225252809E+02  0.45000303330E+03  0.45421962286E+03  0.47000000000E+01 0. -1.
        -11    1    1    2    0    0  0.13937718082E+01  0.41464745720E+02  0.94469814441E+02  0.10317855193E+03  0.00000000000E+00 0.  1.
         11    1    1    2    0    0 -0.12632930107E+02 -0.49679670140E+02  0.10631833258E+03  0.11803070952E+03  0.00000000000E+00 0. -1.
<mgrwt>
<rscale>  0 0.11657763E+03</rscale>
<asrwt>0</asrwt>
<pdfrwt beam="1">  1        2 0.12232095E+00 0.12577338E+03</pdfrwt>
<pdfrwt beam="2">  1       -2 0.26125158E-02 0.12577338E+03</pdfrwt>
<totfact> 0.17589387E+04</totfact>
</mgrwt>
</event>
<event>
 7    1  0.7800420E-006  0.1264685E+03  0.7546771E-02  0.1247772E+00
         -2   -1    0    0    0  501 -0.00000000000E+00  0.00000000000E+00  0.14538148163E+02  0.14538148163E+02  0.00000000000E+00 0.  1.
          2   -1    0    0  501    0  0.00000000000E+00 -0.00000000000E+00 -0.85182022898E+03  0.85182022898E+03  0.00000000000E+00 0. -1.
         23    2    1    2    0    0 -0.19056194080E+02  0.24486821457E+01 -0.54786659510E+03  0.56227403975E+03  0.12500062068E+03 0.  0.
          5    1    3    3  502    0  0.25331982341E+02  0.38326702780E+02 -0.93192736845E+02  0.10400779623E+03  0.47000000000E+01 0. -1.
         -5    1    3    3    0  502 -0.44388176421E+02 -0.35878020634E+02 -0.45467385825E+03  0.45826624352E+03  0.47000000000E+01 0. -1.
        -11    1    1    2    0    0  0.44813898449E+02 -0.30740400659E+02 -0.18778966120E+03  0.19549479425E+03  0.00000000000E+00 0.  1.
         11    1    1    2    0    0 -0.25757704370E+02  0.28291718513E+02 -0.10162582453E+03  0.10858954315E+03  0.00000000000E+00 0. -1.
<mgrwt>
<rscale>  0 0.11720981E+03</rscale>
<asrwt>0</asrwt>
<pdfrwt beam="2">  1        2 0.13104926E+00 0.12646853E+03</pdfrwt>
<pdfrwt beam="1">  1       -2 0.22366382E-02 0.12646853E+03</pdfrwt>
<totfact> 0.20239025E+04</totfact>
</mgrwt>
</event>
<event>
 7    1  0.7800420E-006  0.1396640E+03  0.7546771E-02  0.1227100E+00
         -2   -1    0    0    0  501 -0.00000000000E+00  0.00000000000E+00  0.95999968398E+02  0.95999968398E+02  0.00000000000E+00 0.  1.
          2   -1    0    0  501    0  0.00000000000E+00 -0.00000000000E+00 -0.32817106958E+03  0.32817106958E+03  0.00000000000E+00 0. -1.
         23    2    1    2    0    0  0.86963561534E+00  0.62293236078E+02 -0.27639056053E+03  0.30967366622E+03  0.12499933630E+03 0.  0.
          5    1    3    3  502    0  0.88564359745E+01  0.77887938276E+01 -0.24649508360E+03  0.24682183454E+03  0.47000000000E+01 0.  1.
         -5    1    3    3    0  502 -0.79868003592E+01  0.54504442250E+02 -0.29895476930E+02  0.62851831683E+02  0.47000000000E+01 0.  1.
        -11    1    1    2    0    0  0.38128245975E+02 -0.35820401623E+02  0.38817492589E+01  0.52458862843E+02  0.00000000000E+00 0. -1.
         11    1    1    2    0    0 -0.38997881590E+02 -0.26472834455E+02  0.40337710089E+02  0.62038508910E+02  0.00000000000E+00 0.  1.
<mgrwt>
<rscale>  0 0.13023977E+03</rscale>
<asrwt>0</asrwt>
<pdfrwt beam="2">  1        2 0.50487858E-01 0.13966402E+03</pdfrwt>
<pdfrwt beam="1">  1       -2 0.14769226E-01 0.13966402E+03</pdfrwt>
<totfact> 0.33732390E+03</totfact>
</mgrwt>
</event>
<event>
 7    1  0.7800420E-006  0.2068828E+03  0.7546771E-02  0.1147704E+00
         -2   -1    0    0    0  501 -0.00000000000E+00  0.00000000000E+00  0.80238374076E+02  0.80238374076E+02  0.00000000000E+00 0.  1.
          2   -1    0    0  501    0  0.00000000000E+00 -0.00000000000E+00 -0.53525537543E+03  0.53525537543E+03  0.00000000000E+00 0. -1.
         23    2    1    2    0    0  0.12742452445E+03 -0.10458632579E+03 -0.32608134553E+03  0.38617295051E+03  0.12500077933E+03 0.  0.
          5    1    3    3  502    0  0.65841109749E+02 -0.64222198192E+02 -0.28954689468E+03  0.30384047902E+03  0.47000000000E+01 0. -1.
         -5    1    3    3    0  502  0.61583414705E+02 -0.40364127596E+02 -0.36534450848E+02  0.82332471493E+02  0.47000000000E+01 0. -1.
        -11    1    1    2    0    0 -0.10476291815E+03  0.12216850763E+03 -0.11068200377E+03  0.19532260298E+03  0.00000000000E+00 0.  1.
         11    1    1    2    0    0 -0.22661606302E+02 -0.17582181842E+02 -0.18253652058E+02  0.33998196011E+02  0.00000000000E+00 0. -1.
<mgrwt>
<rscale>  0 0.20243065E+03</rscale>
<asrwt>0</asrwt>
<pdfrwt beam="2">  1        2 0.82346978E-01 0.20688283E+03</pdfrwt>
<pdfrwt beam="1">  1       -2 0.12344366E-01 0.20688283E+03</pdfrwt>
<totfact> 0.26922432E+03</totfact>
</mgrwt>
</event>
<event>
 7    1  0.7800420E-006  0.1356552E+03  0.7546771E-02  0.1228150E+00
         -1   -1    0    0    0  501 -0.00000000000E+00  0.00000000000E+00  0.62960396361E+02  0.62960396361E+02  0.00000000000E+00 0.  1.
          1   -1    0    0  501    0  0.00000000000E+00 -0.00000000000E+00 -0.34392064420E+03  0.34392064420E+03  0.00000000000E+00 0. -1.
         23    2    1    2    0    0  0.41232026408E+02  0.55295567288E+02 -0.25843812920E+03  0.29187773645E+03  0.11681038759E+03 0.  0.
          5    1    3    3  502    0 -0.29160876669E+02  0.54446712872E+02 -0.15244898948E+03  0.16455268355E+03  0.47000000000E+01 0. -1.
         -5    1    3    3    0  502  0.70392903077E+02  0.84885441620E+00 -0.10598913972E+03  0.12732505290E+03  0.47000000000E+01 0.  1.
        -11    1    1    2    0    0  0.25127629454E+02 -0.65482644086E+01 -0.19736456329E+02  0.32616027305E+02  0.00000000000E+00 0.  1.
         11    1    1    2    0    0 -0.66359655861E+02 -0.48747302880E+02 -0.27856623059E+01  0.82387276800E+02  0.00000000000E+00 0. -1.
<mgrwt>
<rscale>  0 0.12953347E+03</rscale>
<asrwt>0</asrwt>
<pdfrwt beam="2">  1        1 0.52910870E-01 0.13565525E+03</pdfrwt>
<pdfrwt beam="1">  1       -1 0.96862146E-02 0.13565525E+03</pdfrwt>
<totfact> 0.45354734E+03</totfact>
</mgrwt>
</event>
<event>
 7    1  0.7800420E-006  0.1438985E+03  0.7546771E-02  0.1216208E+00
          2   -1    0    0  501    0  0.00000000000E+00  0.00000000000E+00  0.19277726763E+04  0.19277726763E+04  0.00000000000E+00 0.  1.
         -2   -1    0    0    0  501 -0.00000000000E+00 -0.00000000000E+00 -0.11582702753E+02  0.11582702753E+02  0.00000000000E+00 0. -1.
         23    2    1    2    0    0  0.57691347669E+02  0.41882450803E+02  0.14681732384E+04  0.14752082692E+04  0.12499739390E+03 0.  0.
          5    1    3    3  502    0  0.66106534301E+02  0.40339515036E+02  0.42712563139E+03  0.43411489878E+03  0.47000000000E+01 0.  1.
         -5    1    3    3    0  502 -0.84151866322E+01  0.15429357670E+01  0.10410476070E+04  0.10410933705E+04  0.47000000000E+01 0.  1.
        -11    1    1    2    0    0  0.13378304718E+02  0.33006339450E+01  0.75712556953E+01  0.15722504074E+02  0.00000000000E+00 0. -1.
         11    1    1    2    0    0 -0.71069652387E+02 -0.45183084749E+02  0.44044547949E+03  0.44842460575E+03  0.00000000000E+00 0.  1.
<mgrwt>
<rscale>  0 0.13788178E+03</rscale>
<asrwt>0</asrwt>
<pdfrwt beam="1">  1        2 0.29658016E+00 0.14389851E+03</pdfrwt>
<pdfrwt beam="2">  1       -2 0.17819558E-02 0.14389851E+03</pdfrwt>
<totfact> 0.73407198E+03</totfact>
</mgrwt>
</event>
<event>
 7    1  0.7800420E-006  0.1442533E+03  0.7546771E-02  0.1222109E+00
          3   -1    0    0  501    0  0.00000000000E+00  0.00000000000E+00  0.21680900535E+03  0.21680900535E+03  0.00000000000E+00 0. -1.
         -3   -1    0    0    0  501 -0.00000000000E+00 -0.00000000000E+00 -0.75697194801E+02  0.75697194801E+02  0.00000000000E+00 0.  1.
         23    2    1    2    0    0  0.46898615039E+02 -0.55456295838E+02  0.11085833537E+03  0.18193017251E+03  0.12463601529E+03 0.  0.
          5    1    3    3  502    0 -0.14339699898E+02  0.31131396690E+02  0.45887976795E+02  0.57468141325E+02  0.47000000000E+01 0. -1.
         -5    1    3    3    0  502  0.61238314937E+02 -0.86587692528E+02  0.64970358578E+02  0.12446203119E+03  0.47000000000E+01 0. -1.
        -11    1    1    2    0    0  0.25262032091E+01 -0.16957972084E+02 -0.17721279720E+01  0.17236442713E+02  0.00000000000E+00 0.  1.
         11    1    1    2    0    0 -0.49424818248E+02  0.72414267922E+02  0.32025603152E+02  0.93339584929E+02  0.00000000000E+00 0. -1.
<mgrwt>
<rscale>  0 0.13367055E+03</rscale>
<asrwt>0</asrwt>
<pdfrwt beam="1">  1        3 0.33355231E-01 0.14425331E+03</pdfrwt>
<pdfrwt beam="2">  1       -3 0.11645722E-01 0.14425331E+03</pdfrwt>
<totfact> 0.11693702E+03</totfact>
</mgrwt>
</event>
<event>
 7    1  0.7800420E-006  0.1365407E+03  0.7546771E-02  0.1229167E+00
          1   -1    0    0  501    0  0.00000000000E+00  0.00000000000E+00  0.11021367104E+02  0.11021367104E+02  0.00000000000E+00 0. -1.
         -1   -1    0    0    0  501 -0.00000000000E+00 -0.00000000000E+00 -0.13857178974E+04  0.13857178974E+04  0.00000000000E+00 0.  1.
         23    2    1    2    0    0  0.54814304211E+02  0.38771952315E+01 -0.86021253406E+03  0.87098161159E+03  0.12499489349E+03 0.  0.
          5    1    3    3  502    0  0.94658655060E+02  0.11950201766E+02 -0.61649734449E+03  0.62385425707E+03  0.47000000000E+01 0.  1.
         -5    1    3    3    0  502 -0.39844350849E+02 -0.80730065342E+01 -0.24371518956E+03  0.24712735452E+03  0.47000000000E+01 0.  1.
        -11    1    1    2    0    0 -0.79490035447E+02  0.12453301359E+01 -0.44003330839E+03  0.44715716373E+03  0.00000000000E+00 0.  1.
         11    1    1    2    0    0  0.24675731236E+02 -0.51225253674E+01 -0.74450687848E+02  0.78600489179E+02  0.00000000000E+00 0. -1.
<mgrwt>
<rscale>  0 0.12885358E+03</rscale>
<asrwt>0</asrwt>
<pdfrwt beam="1">  1        1 0.16955958E-02 0.13654070E+03</pdfrwt>
<pdfrwt beam="2">  1       -1 0.21318727E+00 0.13654070E+03</pdfrwt>
<totfact> 0.10244046E+03</totfact>
</mgrwt>
</event>
<event>
 7    1  0.7800420E-006  0.1311817E+03  0.7546771E-02  0.1240792E+00
         -2   -1    0    0    0  501 -0.00000000000E+00  0.00000000000E+00  0.46295918380E+03  0.46295918380E+03  0.00000000000E+00 0.  1.
          2   -1    0    0  501    0  0.00000000000E+00 -0.00000000000E+00 -0.27930346696E+02  0.27930346696E+02  0.00000000000E+00 0. -1.
         23    2    1    2    0    0 -0.36814747510E+02 -0.15116397454E+02  0.25099199053E+03  0.28320596742E+03  0.12499923826E+03 0.  0.
          5    1    3    3  502    0 -0.20989572012E+02  0.40606190118E+02  0.30424497131E+02  0.55110478448E+02  0.47000000000E+01 0.  1.
         -5    1    3    3    0  502 -0.15825175498E+02 -0.55722587571E+02  0.22056749340E+03  0.22809548897E+03  0.47000000000E+01 0.  1.
        -11    1    1    2    0    0  0.29594247707E+01  0.46306102271E+02  0.12128826139E+03  0.12986090887E+03  0.00000000000E+00 0.  1.
         11    1    1    2    0    0  0.33855322739E+02 -0.31189704818E+02  0.62748585186E+02  0.77822654204E+02  0.00000000000E+00 0. -1.
<mgrwt>
<rscale>  0 0.12140829E+03</rscale>
<asrwt>0</asrwt>
<pdfrwt beam="2">  1        2 0.42969767E-02 0.13118171E+03</pdfrwt>
<pdfrwt beam="1">  1       -2 0.71224484E-01 0.13118171E+03</pdfrwt>
<totfact> 0.33632182E+03</totfact>
</mgrwt>
</event>
<event>
 7    1  0.7800420E-006  0.1799325E+03  0.7546771E-02  0.1173443E+00
         -1   -1    0    0    0  501 -0.00000000000E+00  0.00000000000E+00  0.32130101044E+03  0.32130101044E+03  0.00000000000E+00 0.  1.
          1   -1    0    0  501    0  0.00000000000E+00 -0.00000000000E+00 -0.89168360513E+02  0.89168360513E+02  0.00000000000E+00 0. -1.
         23    2    1    2    0    0 -0.45162613263E+01 -0.12933942507E+03  0.13011352344E+03  0.22204780555E+03  0.12500646173E+03 0.  0.
          5    1    3    3  502    0  0.17882858004E+02 -0.11528549101E+03  0.14893891258E+03  0.18924965186E+03  0.47000000000E+01 0.  1.
         -5    1    3    3    0  502 -0.22399119330E+02 -0.14053934057E+02 -0.18825389139E+02  0.32798153690E+02  0.47000000000E+01 0.  1.
        -11    1    1    2    0    0  0.11376980411E+02  0.62095556647E+02 -0.33699540949E+01  0.63219066975E+02  0.00000000000E+00 0. -1.
         11    1    1    2    0    0 -0.68607190847E+01  0.67243868423E+02  0.10538908058E+03  0.12520249843E+03  0.00000000000E+00 0.  1.
<mgrwt>
<rscale>  0 0.17429307E+03</rscale>
<asrwt>0</asrwt>
<pdfrwt beam="2">  1        1 0.13718209E-01 0.17993248E+03</pdfrwt>
<pdfrwt beam="1">  1       -1 0.49430924E-01 0.17993248E+03</pdfrwt>
<totfact> 0.17358110E+03</totfact>
</mgrwt>
</event>
<event>
 7    1  0.7800420E-006  0.1314969E+03  0.7546771E-02  0.1238528E+00
          2   -1    0    0  501    0  0.00000000000E+00  0.00000000000E+00  0.26199672511E+03  0.26199672511E+03  0.00000000000E+00 0.  1.
         -2   -1    0    0    0  501 -0.00000000000E+00 -0.00000000000E+00 -0.52970688845E+02  0.52970688845E+02  0.00000000000E+00 0. -1.
         23    2    1    2    0    0  0.28347193102E+02 -0.29389088295E+02  0.14708084744E+03  0.19729220563E+03  0.12499662735E+03 0.  0.
          5    1    3    3  502    0 -0.53896323502E+01 -0.47130394759E+02  0.15132184202E+03  0.15865280369E+03  0.47000000000E+01 0.  1.
         -5    1    3    3    0  502  0.33736825452E+02  0.17741306464E+02 -0.42409945809E+01  0.38639401932E+02  0.47000000000E+01 0.  1.
        -11    1    1    2    0    0 -0.45164404218E+02  0.40583757971E+02  0.72754065896E+02  0.94762961772E+02  0.00000000000E+00 0.  1.
         11    1    1    2    0    0  0.16817211116E+02 -0.11194669675E+02 -0.10808877071E+02  0.22912246559E+02  0.00000000000E+00 0. -1.
<mgrwt>
<rscale>  0 0.12281242E+03</rscale>
<asrwt>0</asrwt>
<pdfrwt beam="1">  1        2 0.40307188E-01 0.13149692E+03</pdfrwt>
<pdfrwt beam="2">  1       -2 0.81493369E-02 0.13149692E+03</pdfrwt>
<totfact> 0.10951888E+04</totfact>
</mgrwt>
</event>
<event>
 7    1  0.7800420E-006  0.1284331E+03  0.7546771E-02  0.1244073E+00
         -2   -1    0    0    0  501 -0.00000000000E+00  0.00000000000E+00  0.13181384298E+03  0.13181384298E+03  0.00000000000E+00 0.  1.
          2   -1    0    0  501    0  0.00000000000E+00 -0.00000000000E+00 -0.10345086124E+03  0.10345086124E+03  0.00000000000E+00 0. -1.
         23    2    1    2    0    0  0.17270209717E+02 -0.23899373510E+02 -0.16205027693E+02  0.12945140496E+03  0.12500249247E+03 0.  0.
          5    1    3    3  502    0  0.51709782462E+02  0.15376439486E+02 -0.44290102204E+02  0.69957413094E+02  0.47000000000E+01 0. -1.
         -5    1    3    3    0  502 -0.34439572746E+02 -0.39275812996E+02  0.28085074511E+02  0.59493991862E+02  0.47000000000E+01 0. -1.
        -11    1    1    2    0    0 -0.33711216775E+02 -0.26534294678E+02  0.21066693534E+02  0.47794565663E+02  0.00000000000E+00 0. -1.
         11    1    1    2    0    0  0.16441007058E+02  0.50433668189E+02  0.23501315902E+02  0.58018733606E+02  0.00000000000E+00 0.  1.
<mgrwt>
<rscale>  0 0.11941010E+03</rscale>
<asrwt>0</asrwt>
<pdfrwt beam="2">  1        2 0.15915517E-01 0.12843311E+03</pdfrwt>
<pdfrwt beam="1">  1       -2 0.20279053E-01 0.12843311E+03</pdfrwt>
<totfact> 0.70228781E+03</totfact>
</mgrwt>
</event>
<event>
 6    1  0.7800420E-006  0.2320742E+03  0.7546771E-02  0.1149287E+00
         -2   -1    0    0    0  501 -0.00000000000E+00  0.00000000000E+00  0.86160559754E+02  0.86160559754E+02  0.00000000000E+00 0.  1.
          2   -1    0    0  501    0  0.00000000000E+00 -0.00000000000E+00 -0.15874785301E+04  0.15874785301E+04  0.00000000000E+00 0. -1.
          5    1    1    2  502    0 -0.74972493229E+02 -0.75377578947E+02 -0.14108795489E+04  0.14148872201E+04  0.47000000000E+01 0. -1.
         -5    1    1    2    0  502  0.54561746448E+02 -0.16360193423E+02 -0.11372890549E+03  0.12728312554E+03  0.47000000000E+01 0.  1.
        -11    1    1    2    0    0  0.11490877888E+02  0.68652433626E+02  0.56778851307E+02  0.89827806793E+02  0.00000000000E+00 0.  1.
         11    1    1    2    0    0  0.89198688930E+01  0.23085338744E+02 -0.33488367291E+02  0.41640937427E+02  0.00000000000E+00 0. -1.
<mgrwt>
<rscale>  0 0.20053710E+03</rscale>
<asrwt>0</asrwt>
<pdfrwt beam="2">  1        2 0.24422744E+00 0.23207420E+03</pdfrwt>
<pdfrwt beam="1">  1       -2 0.13255472E-01 0.23207420E+03</pdfrwt>
<totfact> 0.51966634E+02</totfact>
</mgrwt>
</event>
<event>
 7    1  0.7800420E-006  0.1667842E+03  0.7546771E-02  0.1188559E+00
          2   -1    0    0  501    0  0.00000000000E+00  0.00000000000E+00  0.21509508285E+03  0.21509508285E+03  0.00000000000E+00 0. -1.
         -2   -1    0    0    0  501 -0.00000000000E+00 -0.00000000000E+00 -0.11105660278E+03  0.11105660278E+03  0.00000000000E+00 0.  1.
         23    2    1    2    0    0  0.10996626190E+03 -0.10071356922E+02  0.66684130609E+02  0.17962109657E+03  0.12499181601E+03 0.  0.
          5    1    3    3  502    0  0.93338699079E+02  0.89701835420E+01 -0.14013053558E+02  0.94926458949E+02  0.47000000000E+01 0.  1.
         -5    1    3    3    0  502  0.16627562824E+02 -0.19041540464E+02  0.80697184168E+02  0.84694637618E+02  0.47000000000E+01 0.  1.
        -11    1    1    2    0    0 -0.61917024158E+02 -0.23004847254E+02  0.54604104788E+02  0.85700345025E+02  0.00000000000E+00 0. -1.
         11    1    1    2    0    0 -0.48049237744E+02  0.33076204176E+02 -0.17249755332E+02  0.60830244036E+02  0.00000000000E+00 0.  1.
<mgrwt>
<rscale>  0 0.16012179E+03</rscale>
<asrwt>0</asrwt>
<pdfrwt beam="1">  1        2 0.33091551E-01 0.16678419E+03</pdfrwt>
<pdfrwt beam="2">  1       -2 0.17085631E-01 0.16678419E+03</pdfrwt>
<totfact> 0.42020835E+03</totfact>
</mgrwt>
</event>
<event>
 7    1  0.7800420E-006  0.1606834E+03  0.7546771E-02  0.1195579E+00
          2   -1    0    0  501    0  0.00000000000E+00  0.00000000000E+00  0.18359008066E+03  0.18359008066E+03  0.00000000000E+00 0. -1.
         -2   -1    0    0    0  501 -0.00000000000E+00 -0.00000000000E+00 -0.19042455766E+03  0.19042455766E+03  0.00000000000E+00 0.  1.
         23    2    1    2    0    0  0.61278758444E+02 -0.80240722257E+02  0.11014336384E+03  0.19480943667E+03  0.12500198507E+03 0.  0.
          5    1    3    3  502    0 -0.18388458991E+02  0.20191088870E+02  0.33838207479E+01  0.27916943541E+02  0.47000000000E+01 0.  1.
         -5    1    3    3    0  502  0.79667217434E+02 -0.10043181113E+03  0.10675954309E+03  0.16689249312E+03  0.47000000000E+01 0.  1.
        -11    1    1    2    0    0 -0.68234935972E+02  0.67783525630E+02 -0.45648951686E+02  0.10646332525E+03  0.00000000000E+00 0. -1.
         11    1    1    2    0    0  0.69561775281E+01  0.12457196626E+02 -0.71328889158E+02  0.72741876400E+02  0.00000000000E+00 0.  1.
<mgrwt>
<rscale>  0 0.15405328E+03</rscale>
<asrwt>0</asrwt>
<pdfrwt beam="1">  1        2 0.28244628E-01 0.16068340E+03</pdfrwt>
<pdfrwt beam="2">  1       -2 0.29296086E-01 0.16068340E+03</pdfrwt>
<totfact> 0.19634565E+03</totfact>
</mgrwt>
</event>
<event>
 7    1  0.7800420E-006  0.1317346E+03  0.7546771E-02  0.1238422E+00
          1   -1    0    0  501    0  0.00000000000E+00  0.00000000000E+00  0.19021688546E+03  0.19021688546E+03  0.00000000000E+00 0. -1.
         -1   -1    0    0    0  501 -0.00000000000E+00 -0.00000000000E+00 -0.12820587753E+03  0.12820587753E+03  0.00000000000E+00 0.  1.
         23    2    1    2    0    0 -0.37300271992E+02  0.18391528926E+02  0.13969308620E+03  0.19201082636E+03  0.12499776189E+03 0.  0.
          5    1    3    3  502    0 -0.43690397397E+02 -0.28438082416E+02  0.92020674849E+01  0.53144551952E+02  0.47000000000E+01 0. -1.
         -5    1    3    3    0  502  0.63901254043E+01  0.46829611342E+02  0.13049101872E+03  0.13886627441E+03  0.47000000000E+01 0. -1.
        -11    1    1    2    0    0  0.63001398229E+02 -0.31788704477E+02 -0.51589673970E+02  0.87413914061E+02  0.00000000000E+00 0.  1.
         11    1    1    2    0    0 -0.25701126237E+02  0.13397175550E+02 -0.26092404297E+02  0.38998022572E+02  0.00000000000E+00 0. -1.
<mgrwt>
<rscale>  0 0.12287910E+03</rscale>
<asrwt>0</asrwt>
<pdfrwt beam="1">  1        1 0.29264136E-01 0.13173458E+03</pdfrwt>
<pdfrwt beam="2">  1       -1 0.19723981E-01 0.13173458E+03</pdfrwt>
<totfact> 0.31121700E+03</totfact>
</mgrwt>
</event>
<event>
 7    1  0.7800420E-006  0.1370628E+03  0.7546771E-02  0.1229018E+00
          1   -1    0    0  501    0  0.00000000000E+00  0.00000000000E+00  0.16581418364E+03  0.16581418364E+03  0.00000000000E+00 0. -1.
         -1   -1    0    0    0  501 -0.00000000000E+00 -0.00000000000E+00 -0.90106917962E+02  0.90106917962E+02  0.00000000000E+00 0.  1.
         23    2    1    2    0    0  0.31320567336E+02 -0.46692585076E+02  0.41052283706E+02  0.14307869295E+03  0.12500018776E+03 0.  0.
          5    1    3    3  502    0  0.10701657213E+02  0.33752000799E+02  0.47750476786E+02  0.59631544156E+02  0.47000000000E+01 0.  1.
         -5    1    3    3    0  502  0.20618910123E+02 -0.80444585875E+02 -0.66981930804E+01  0.83447148794E+02  0.47000000000E+01 0.  1.
        -11    1    1    2    0    0  0.20143766642E+02  0.28245188755E+02  0.45387908807E+02  0.57128139198E+02  0.00000000000E+00 0. -1.
         11    1    1    2    0    0 -0.51464333977E+02  0.18447396321E+02 -0.10732926833E+02  0.55714269457E+02  0.00000000000E+00 0.  1.
<mgrwt>
<rscale>  0 0.12895256E+03</rscale>
<asrwt>0</asrwt>
<pdfrwt beam="1">  1        1 0.25509874E-01 0.13706284E+03</pdfrwt>
<pdfrwt beam="2">  1       -1 0.13862603E-01 0.13706284E+03</pdfrwt>
<totfact> 0.64619092E+03</totfact>
</mgrwt>
</event>
<event>
 7    1  0.7800420E-006  0.2107152E+03  0.7546771E-02  0.1144682E+00
          1   -1    0    0  501    0  0.00000000000E+00  0.00000000000E+00  0.11337800141E+03  0.11337800141E+03  0.00000000000E+00 0. -1.
         -1   -1    0    0    0  501 -0.00000000000E+00 -0.00000000000E+00 -0.35941442772E+03  0.35941442772E+03  0.00000000000E+00 0.  1.
         23    2    1    2    0    0  0.13895113166E+03  0.97315168720E+02 -0.13417012172E+03  0.24980493543E+03  0.12499290040E+03 0.  0.
          5    1    3    3  502    0  0.12198765279E+03  0.10767171502E+03 -0.60988835647E+02  0.17382725253E+03  0.47000000000E+01 0. -1.
         -5    1    3    3    0  502  0.16963478870E+02 -0.10356546304E+02 -0.73181286076E+02  0.75977682898E+02  0.47000000000E+01 0. -1.
        -11    1    1    2    0    0 -0.46924351669E+02 -0.88845845543E+02 -0.59097564464E+02  0.11656758201E+03  0.00000000000E+00 0.  1.
         11    1    1    2    0    0 -0.92026779991E+02 -0.84693231769E+01 -0.52768740123E+02  0.10641991169E+03  0.00000000000E+00 0. -1.
<mgrwt>
<rscale>  0 0.20611204E+03</rscale>
<asrwt>0</asrwt>
<pdfrwt beam="1">  1        1 0.17442769E-01 0.21071517E+03</pdfrwt>
<pdfrwt beam="2">  1       -1 0.55294528E-01 0.21071517E+03</pdfrwt>
<totfact> 0.10341284E+03</totfact>
</mgrwt>
</event>
<event>
 7    1  0.7800420E-006  0.1257532E+03  0.7546771E-02  0.1248515E+00
          1   -1    0    0  501    0  0.00000000000E+00  0.00000000000E+00  0.18382231082E+03  0.18382231082E+03  0.00000000000E+00 0. -1.
         -1   -1    0    0    0  501 -0.00000000000E+00 -0.00000000000E+00 -0.88995618676E+02  0.88995618676E+02  0.00000000000E+00 0.  1.
         23    2    1    2    0    0 -0.58211103379E+01 -0.12460298722E+02  0.12224293888E+03  0.17537728368E+03  0.12499884462E+03 0.  0.
          5    1    3    3  502    0 -0.30685004380E+02  0.46760602684E+02  0.82229218414E+02  0.99558313657E+02  0.47000000000E+01 0.  1.
         -5    1    3    3    0  502  0.24863894042E+02 -0.59220901406E+02  0.40013720461E+02  0.75818970023E+02  0.47000000000E+01 0.  1.
        -11    1    1    2    0    0 -0.41232815696E+02  0.18415441273E+02 -0.65754725528E+01  0.45634530860E+02  0.00000000000E+00 0.  1.
         11    1    1    2    0    0  0.47053926034E+02 -0.59551425511E+01 -0.20840774182E+02  0.51806114953E+02  0.00000000000E+00 0. -1.
<mgrwt>
<rscale>  0 0.11677420E+03</rscale>
<asrwt>0</asrwt>
<pdfrwt beam="1">  1        1 0.28280355E-01 0.12575315E+03</pdfrwt>
<pdfrwt beam="2">  1       -1 0.13691634E-01 0.12575315E+03</pdfrwt>
<totfact> 0.57584262E+03</totfact>
</mgrwt>
</event>
<event>
 7    1  0.7800420E-006  0.1359569E+03  0.7546771E-02  0.1230625E+00
          1   -1    0    0  501    0  0.00000000000E+00  0.00000000000E+00  0.18934384076E+03  0.18934384076E+03  0.00000000000E+00 0. -1.
         -1   -1    0    0    0  501 -0.00000000000E+00 -0.00000000000E+00 -0.78613156080E+02  0.78613156080E+02  0.00000000000E+00 0.  1.
         23    2    1    2    0    0 -0.30961285955E+02 -0.43583359578E+02  0.77272848332E+02  0.15638211621E+03  0.12500465079E+03 0.  0.
          5    1    3    3  502    0 -0.35997115105E+02  0.30472275025E+02  0.65851692628E+02  0.81134994072E+02  0.47000000000E+01 0. -1.
         -5    1    3    3    0  502  0.50358291495E+01 -0.74055634604E+02  0.11421155704E+02  0.75247122134E+02  0.47000000000E+01 0. -1.
        -11    1    1    2    0    0  0.26000903623E+02 -0.59188984301E+01 -0.23786188290E+02  0.35733221254E+02  0.00000000000E+00 0.  1.
         11    1    1    2    0    0  0.49603823319E+01  0.49502258008E+02  0.57244024641E+02  0.75841659383E+02  0.00000000000E+00 0. -1.
<mgrwt>
<rscale>  0 0.12788728E+03</rscale>
<asrwt>0</asrwt>
<pdfrwt beam="1">  1        1 0.29129822E-01 0.13595688E+03</pdfrwt>
<pdfrwt beam="2">  1       -1 0.12094332E-01 0.13595688E+03</pdfrwt>
<totfact> 0.67612401E+03</totfact>
</mgrwt>
</event>
<event>
 7    1  0.7800420E-006  0.1428177E+03  0.7546771E-02  0.1219542E+00
          1   -1    0    0  501    0  0.00000000000E+00  0.00000000000E+00  0.15529840411E+03  0.15529840411E+03  0.00000000000E+00 0. -1.
         -1   -1    0    0    0  501 -0.00000000000E+00 -0.00000000000E+00 -0.15765485495E+03  0.15765485495E+03  0.00000000000E+00 0.  1.
         23    2    1    2    0    0 -0.22421588433E+02  0.65333433412E+02  0.86618512462E+02  0.16703189020E+03  0.12500280194E+03 0.  0.
          5    1    3    3  502    0 -0.28274920534E+02  0.69547660602E+02 -0.46425207944E+01  0.75365716514E+02  0.47000000000E+01 0. -1.
         -5    1    3    3    0  502  0.58533321018E+01 -0.42142271895E+01  0.91261033256E+02  0.91666173687E+02  0.47000000000E+01 0. -1.
        -11    1    1    2    0    0  0.94103279065E+01 -0.68904120770E+02 -0.15542142156E+02  0.71259317378E+02  0.00000000000E+00 0. -1.
         11    1    1    2    0    0  0.13011260526E+02  0.35706873582E+01 -0.73432821153E+02  0.74662051480E+02  0.00000000000E+00 0.  1.
<mgrwt>
<rscale>  0 0.13548127E+03</rscale>
<asrwt>0</asrwt>
<pdfrwt beam="1">  1        1 0.23892062E-01 0.14281767E+03</pdfrwt>
<pdfrwt beam="2">  1       -1 0.24254593E-01 0.14281767E+03</pdfrwt>
<totfact> 0.28805034E+03</totfact>
</mgrwt>
</event>
<event>
 7    1  0.8738180E-006  0.1941653E+03  0.7546771E-02  0.1158786E+00
          1   -1    0    0  501    0  0.00000000000E+00  0.00000000000E+00  0.33003516772E+03  0.33003516772E+03  0.00000000000E+00 0. -1.
         -1   -1    0    0    0  501 -0.00000000000E+00 -0.00000000000E+00 -0.11631700993E+03  0.11631700993E+03  0.00000000000E+00 0.  1.
         23    2    1    2    0    0 -0.91175902794E+02  0.11731300304E+03  0.18338494664E+03  0.26707711762E+03  0.12499904868E+03 0.  0.
          5    1    3    3  502    0 -0.10916226833E+03  0.93834285808E+02  0.91978949352E+02  0.17089028979E+03  0.47000000000E+01 0.  1.
         -5    1    3    3    0  502  0.17986365538E+02  0.23478717230E+02  0.91405997286E+02  0.96186827829E+02  0.47000000000E+01 0.  1.
        -11    1    1    2    0    0  0.82680631818E+02 -0.76206819892E+02 -0.19497479787E+02  0.11412150540E+03  0.00000000000E+00 0.  1.
         11    1    1    2    0    0  0.84952709757E+01 -0.41106183146E+02  0.49830690941E+02  0.65153554634E+02  0.00000000000E+00 0. -1.
<mgrwt>
<rscale>  0 0.18964081E+03</rscale>
<asrwt>0</asrwt>
<pdfrwt beam="1">  1        1 0.50774641E-01 0.19416526E+03</pdfrwt>
<pdfrwt beam="2">  1       -1 0.17894925E-01 0.19416526E+03</pdfrwt>
<totfact> 0.18581696E+03</totfact>
</mgrwt>
</event>
<event>
 7    1  0.7800420E-006  0.1302076E+03  0.7546771E-02  0.1241122E+00
         -1   -1    0    0    0  501 -0.00000000000E+00  0.00000000000E+00  0.98770848254E+01  0.98770848254E+01  0.00000000000E+00 0.  1.
          1   -1    0    0  501    0  0.00000000000E+00 -0.00000000000E+00 -0.14310420633E+04  0.14310420633E+04  0.00000000000E+00 0. -1.
         23    2    1    2    0    0  0.30268621717E+02 -0.20327024692E+02 -0.10063894800E+04  0.10147777100E+04  0.12499855140E+03 0.  0.
          5    1    3    3  502    0  0.34444694134E+01  0.33709219767E+01  0.94389468035E+00  0.67976776682E+01  0.47000000000E+01 0. -1.
         -5    1    3    3    0  502  0.26824152304E+02 -0.23697946669E+02 -0.10073333747E+04  0.10079800323E+04  0.47000000000E+01 0. -1.
        -11    1    1    2    0    0  0.20952015176E+02 -0.22648899419E+02 -0.13728346974E+03  0.14070789121E+03  0.00000000000E+00 0.  1.
         11    1    1    2    0    0 -0.51220636893E+02  0.42975924112E+02 -0.27749202874E+03  0.28543354692E+03  0.00000000000E+00 0. -1.
<mgrwt>
<rscale>  0 0.12120541E+03</rscale>
<asrwt>0</asrwt>
<pdfrwt beam="2">  1        1 0.22016030E+00 0.13020759E+03</pdfrwt>
<pdfrwt beam="1">  1       -1 0.15195516E-02 0.13020759E+03</pdfrwt>
<totfact> 0.79340674E+03</totfact>
</mgrwt>
</event>
<event>
 7    1  0.7800420E-006  0.1453365E+03  0.7546771E-02  0.1215938E+00
         -3   -1    0    0    0  501 -0.00000000000E+00  0.00000000000E+00  0.38101857147E+03  0.38101857147E+03  0.00000000000E+00 0.  1.
          3   -1    0    0  501    0  0.00000000000E+00 -0.00000000000E+00 -0.48768058769E+02  0.48768058769E+02  0.00000000000E+00 0. -1.
         23    2    1    2    0    0  0.69933189471E+02  0.24641508194E+02  0.12785666222E+03  0.19357175888E+03  0.12499937939E+03 0.  0.
          5    1    3    3  502    0  0.90209786489E+02  0.56787600000E+02  0.88099089476E+02  0.13836971005E+03  0.47000000000E+01 0.  1.
         -5    1    3    3    0  502 -0.20276597018E+02 -0.32146091806E+02  0.39757572745E+02  0.55202048835E+02  0.47000000000E+01 0.  1.
        -11    1    1    2    0    0 -0.75320402687E+01 -0.49171927013E+02  0.10668915966E+03  0.11771655290E+03  0.00000000000E+00 0.  1.
         11    1    1    2    0    0 -0.62401149202E+02  0.24530418819E+02  0.97704690818E+02  0.11849831846E+03  0.00000000000E+00 0. -1.
<mgrwt>
<rscale>  0 0.13807878E+03</rscale>
<asrwt>0</asrwt>
<pdfrwt beam="2">  1        3 0.75027785E-02 0.14533651E+03</pdfrwt>
<pdfrwt beam="1">  1       -3 0.58618240E-01 0.14533651E+03</pdfrwt>
<totfact> 0.79907177E+02</totfact>
</mgrwt>
</event>
<event>
 7    1  0.7800420E-006  0.3636445E+03  0.7546771E-02  0.1058526E+00
         -2   -1    0    0    0  501 -0.00000000000E+00  0.00000000000E+00  0.32691947984E+02  0.32691947984E+02  0.00000000000E+00 0.  1.
          2   -1    0    0  501    0  0.00000000000E+00 -0.00000000000E+00 -0.40017966848E+04  0.40017966848E+04  0.00000000000E+00 0. -1.
         23    2    1    2    0    0  0.34061180968E+03 -0.24420149661E+02 -0.23543914446E+04  0.23823090427E+04  0.12499820765E+03 0.  0.
          5    1    3    3  502    0  0.32129467683E+03 -0.35337770701E+02 -0.18963139725E+04  0.19236703979E+04  0.47000000000E+01 0. -1.
         -5    1    3    3    0  502  0.19317132842E+02  0.10917621039E+02 -0.45807747214E+03  0.45863864486E+03  0.47000000000E+01 0. -1.
        -11    1    1    2    0    0 -0.20693839235E+03  0.51512673280E+02 -0.95670515014E+03  0.98018457346E+03  0.00000000000E+00 0. -1.
         11    1    1    2    0    0 -0.13367341732E+03 -0.27092523619E+02 -0.65800814205E+03  0.67199501661E+03  0.00000000000E+00 0.  1.
<mgrwt>
<rscale>  0 0.36014692E+03</rscale>
<asrwt>0</asrwt>
<pdfrwt beam="2">  1        2 0.61566083E+00 0.36364447E+03</pdfrwt>
<pdfrwt beam="1">  1       -2 0.50295320E-02 0.36364447E+03</pdfrwt>
<totfact> 0.83636531E+01</totfact>
</mgrwt>
</event>
<event>
 7    1  0.7800420E-006  0.1479569E+03  0.7546771E-02  0.1211971E+00
          4   -1    0    0  501    0  0.00000000000E+00  0.00000000000E+00  0.16408899230E+03  0.16408899230E+03  0.00000000000E+00 0.  1.
         -4   -1    0    0    0  501 -0.00000000000E+00 -0.00000000000E+00 -0.11434885675E+03  0.11434885675E+03  0.00000000000E+00 0. -1.
         23    2    1    2    0    0 -0.75129801842E+02 -0.24889743809E+02  0.50552256315E+02  0.15635462759E+03  0.12500900959E+03 0.  0.
          5    1    3    3  502    0 -0.86513026273E+02 -0.62093703230E+02  0.24736110908E+02  0.10942621660E+03  0.47000000000E+01 0.  1.
         -5    1    3    3    0  502  0.11383224431E+02  0.37203959421E+02  0.25816145407E+02  0.46928410998E+02  0.47000000000E+01 0.  1.
        -11    1    1    2    0    0  0.23038577409E+02  0.51872121586E+02 -0.20280316305E+02  0.60272583123E+02  0.00000000000E+00 0. -1.
         11    1    1    2    0    0  0.52091224434E+02 -0.26982377777E+02  0.19468195535E+02  0.61810638331E+02  0.00000000000E+00 0.  1.
<mgrwt>
<rscale>  0 0.14101424E+03</rscale>
<asrwt>0</asrwt>
<pdfrwt beam="1">  1        4 0.25244460E-01 0.14795688E+03</pdfrwt>
<pdfrwt beam="2">  1       -4 0.17592132E-01 0.14795688E+03</pdfrwt>
<totfact> 0.70383331E+02</totfact>
</mgrwt>
</event>
<event>
 6    1  0.7800420E-006  0.2465350E+03  0.7546771E-02  0.1139383E+00
         -1   -1    0    0    0  501 -0.00000000000E+00  0.00000000000E+00  0.46964129786E+02  0.46964129786E+02  0.00000000000E+00 0.  1.
          1   -1    0    0  501    0  0.00000000000E+00 -0.00000000000E+00 -0.15615916591E+04  0.15615916591E+04  0.00000000000E+00 0. -1.
          5    1    1    2  502    0  0.12556063106E+03 -0.61916179959E+02 -0.12479902316E+04  0.12558267371E+04  0.47000000000E+01 0. -1.
         -5    1    1    2    0  502 -0.26317130774E+02  0.64235338043E+02 -0.17432435290E+03  0.18769613752E+03  0.47000000000E+01 0.  1.
        -11    1    1    2    0    0 -0.79016745756E+02  0.39518782608E+02 -0.73401302163E+02  0.11486135751E+03  0.00000000000E+00 0.  1.
         11    1    1    2    0    0 -0.20226754535E+02 -0.41837940692E+02 -0.18911642632E+02  0.50171556757E+02  0.00000000000E+00 0. -1.
<mgrwt>
<rscale>  0 0.21277976E+03</rscale>
<asrwt>0</asrwt>
<pdfrwt beam="2">  1        1 0.24024490E+00 0.24653501E+03</pdfrwt>
<pdfrwt beam="1">  1       -1 0.72252497E-02 0.24653501E+03</pdfrwt>
<totfact> 0.65832136E+02</totfact>
</mgrwt>
</event>
<event>
 6    1  0.7800420E-006  0.2047971E+03  0.7546771E-02  0.1160705E+00
         -2   -1    0    0    0  501 -0.00000000000E+00  0.00000000000E+00  0.17132004913E+03  0.17132004913E+03  0.00000000000E+00 0.  1.
          2   -1    0    0  501    0  0.00000000000E+00 -0.00000000000E+00 -0.18799828934E+03  0.18799828934E+03  0.00000000000E+00 0. -1.
          5    1    1    2  502    0  0.72880802140E+02  0.91940470047E+02 -0.98877891788E+02  0.15350436097E+03  0.47000000000E+01 0. -1.
         -5    1    1    2    0  502  0.17231489851E+02 -0.27612059620E+02  0.47374560809E+02  0.57669654852E+02  0.47000000000E+01 0.  1.
        -11    1    1    2    0    0  0.14604054548E+02 -0.92443750943E+00 -0.10061759703E+02  0.17758716234E+02  0.00000000000E+00 0.  1.
         11    1    1    2    0    0 -0.10471634654E+03 -0.63403972917E+02  0.44886850466E+02  0.13038560641E+03  0.00000000000E+00 0. -1.
<mgrwt>
<rscale>  0 0.18753321E+03</rscale>
<asrwt>0</asrwt>
<pdfrwt beam="2">  1        2 0.28922814E-01 0.20479715E+03</pdfrwt>
<pdfrwt beam="1">  1       -2 0.26356930E-01 0.20479715E+03</pdfrwt>
<totfact> 0.23314368E+03</totfact>
</mgrwt>
</event>
<event>
 7    1  0.7800420E-006  0.1475194E+03  0.7546771E-02  0.1212692E+00
         -2   -1    0    0    0  501 -0.00000000000E+00  0.00000000000E+00  0.46676132459E+02  0.46676132459E+02  0.00000000000E+00 0.  1.
          2   -1    0    0  501    0  0.00000000000E+00 -0.00000000000E+00 -0.39254687910E+03  0.39254687910E+03  0.00000000000E+00 0. -1.
         23    2    1    2    0    0 -0.25573819964E+02 -0.74028805714E+02 -0.21546590817E+03  0.26112741704E+03  0.12501074356E+03 0.  0.
          5    1    3    3  502    0  0.80838740123E+00  0.19636252176E+01 -0.16703385711E+03  0.16711346066E+03  0.47000000000E+01 0.  1.
         -5    1    3    3    0  502 -0.26382207365E+02 -0.75992430932E+02 -0.48432051066E+02  0.94013956384E+02  0.47000000000E+01 0.  1.
        -11    1    1    2    0    0  0.33037896447E+02  0.57001004785E+02 -0.24062090552E+02  0.70139869902E+02  0.00000000000E+00 0.  1.
         11    1    1    2    0    0 -0.74640764825E+01  0.17027800930E+02 -0.10634274792E+03  0.10795572462E+03  0.00000000000E+00 0. -1.
<mgrwt>
<rscale>  0 0.14047469E+03</rscale>
<asrwt>0</asrwt>
<pdfrwt beam="2">  1        2 0.60391828E-01 0.14751939E+03</pdfrwt>
<pdfrwt beam="1">  1       -2 0.71809434E-02 0.14751939E+03</pdfrwt>
<totfact> 0.87330362E+03</totfact>
</mgrwt>
</event>
<event>
 7    1  0.7800420E-006  0.1455661E+03  0.7546771E-02  0.1215900E+00
          1   -1    0    0  501    0  0.00000000000E+00  0.00000000000E+00  0.11648526918E+04  0.11648526918E+04  0.00000000000E+00 0. -1.
         -1   -1    0    0    0  501 -0.00000000000E+00 -0.00000000000E+00 -0.14908762824E+02  0.14908762824E+02  0.00000000000E+00 0.  1.
         23    2    1    2    0    0  0.41041588161E+02  0.62283976937E+02  0.62330472040E+03  0.64007676197E+03  0.12500312392E+03 0.  0.
          5    1    3    3  502    0  0.31031067052E+02  0.82139815646E+02  0.23187659448E+03  0.24798935765E+03  0.47000000000E+01 0.  1.
         -5    1    3    3    0  502  0.10010521109E+02 -0.19855838710E+02  0.39142812592E+03  0.39208740432E+03  0.47000000000E+01 0.  1.
        -11    1    1    2    0    0  0.15938404515E+01 -0.73760233600E+02  0.33336842294E+03  0.34143464646E+03  0.00000000000E+00 0.  1.
         11    1    1    2    0    0 -0.42635428612E+02  0.11476256663E+02  0.19327078560E+03  0.19825004617E+03  0.00000000000E+00 0. -1.
<mgrwt>
<rscale>  0 0.13810641E+03</rscale>
<asrwt>0</asrwt>
<pdfrwt beam="1">  1        1 0.17920803E+00 0.14556609E+03</pdfrwt>
<pdfrwt beam="2">  1       -1 0.22936567E-02 0.14556609E+03</pdfrwt>
<totfact> 0.66416246E+03</totfact>
</mgrwt>
</event>
<event>
 7    1  0.7800420E-006  0.1487211E+03  0.7546771E-02  0.1211046E+00
         -1   -1    0    0    0  501 -0.00000000000E+00  0.00000000000E+00  0.77148244890E+02  0.77148244890E+02  0.00000000000E+00 0.  1.
          1   -1    0    0  501    0  0.00000000000E+00 -0.00000000000E+00 -0.26915546507E+03  0.26915546507E+03  0.00000000000E+00 0. -1.
         23    2    1    2    0    0  0.57233962513E+02 -0.56725734144E+02 -0.16234176282E+03  0.22016544626E+03  0.12499776155E+03 0.  0.
          5    1    3    3  502    0  0.17852133072E+02  0.36407004253E+02 -0.79480308372E+02  0.89349751162E+02  0.47000000000E+01 0.  1.
         -5    1    3    3    0  502  0.39381829442E+02 -0.93132738397E+02 -0.82861454447E+02  0.13081569510E+03  0.47000000000E+01 0.  1.
        -11    1    1    2    0    0 -0.44638729672E+02  0.42121433236E+02  0.26427604430E+02  0.66822523152E+02  0.00000000000E+00 0.  1.
         11    1    1    2    0    0 -0.12595232842E+02  0.14604300908E+02 -0.56093061787E+02  0.59315740541E+02  0.00000000000E+00 0. -1.
<mgrwt>
<rscale>  0 0.14171061E+03</rscale>
<asrwt>0</asrwt>
<pdfrwt beam="2">  1        1 0.41408533E-01 0.14872113E+03</pdfrwt>
<pdfrwt beam="1">  1       -1 0.11868961E-01 0.14872113E+03</pdfrwt>
<totfact> 0.45232305E+03</totfact>
</mgrwt>
</event>
<event>
 7    1  0.7800420E-006  0.2086941E+03  0.7546771E-02  0.1146038E+00
         -2   -1    0    0    0  501 -0.00000000000E+00  0.00000000000E+00  0.83017447669E+02  0.83017447669E+02  0.00000000000E+00 0.  1.
          2   -1    0    0  501    0  0.00000000000E+00 -0.00000000000E+00 -0.50426380103E+03  0.50426380103E+03  0.00000000000E+00 0. -1.
         23    2    1    2    0    0  0.16633353854E+03  0.16146795939E+02 -0.27766736130E+03  0.34735050965E+03  0.12500259181E+03 0.  0.
          5    1    3    3  502    0  0.75128269054E+02 -0.54238909379E+02 -0.13710023291E+03  0.16554358932E+03  0.47000000000E+01 0. -1.
         -5    1    3    3    0  502  0.91205269486E+02  0.70385705318E+02 -0.14056712840E+03  0.18180692033E+03  0.47000000000E+01 0. -1.
        -11    1    1    2    0    0 -0.14744506283E+03 -0.33382123128E+02 -0.79214741995E+02  0.17067333725E+03  0.00000000000E+00 0. -1.
         11    1    1    2    0    0 -0.18888475712E+02  0.17235327189E+02 -0.64364250063E+02  0.69257401801E+02  0.00000000000E+00 0.  1.
<mgrwt>
<rscale>  0 0.20444998E+03</rscale>
<asrwt>0</asrwt>
<pdfrwt beam="2">  1        2 0.77579048E-01 0.20869407E+03</pdfrwt>
<pdfrwt beam="1">  1       -2 0.12771915E-01 0.20869407E+03</pdfrwt>
<totfact> 0.27249465E+03</totfact>
</mgrwt>
</event>
<event>
 7    1  0.7800420E-006  0.1468860E+03  0.7546771E-02  0.1214994E+00
         -1   -1    0    0    0  501 -0.00000000000E+00  0.00000000000E+00  0.17283023073E+03  0.17283023073E+03  0.00000000000E+00 0.  1.
          1   -1    0    0  501    0  0.00000000000E+00 -0.00000000000E+00 -0.10730149353E+03  0.10730149353E+03  0.00000000000E+00 0. -1.
         23    2    1    2    0    0  0.60880854412E+02 -0.47338537251E+02  0.18159548233E+01  0.14689725813E+03  0.12501236423E+03 0.  0.
          5    1    3    3  502    0  0.69215413159E+02 -0.52626665245E+02 -0.45560292896E+02  0.98275986906E+02  0.47000000000E+01 0. -1.
         -5    1    3    3    0  502 -0.83345587471E+01  0.52881279944E+01  0.47376247719E+02  0.48621271221E+02  0.47000000000E+01 0. -1.
        -11    1    1    2    0    0 -0.76596582271E+02  0.26462199981E+02  0.69164661945E+02  0.10654123570E+03  0.00000000000E+00 0.  1.
         11    1    1    2    0    0  0.15715727860E+02  0.20876337270E+02 -0.54518795611E+01  0.26693230428E+02  0.00000000000E+00 0. -1.
<mgrwt>
<rscale>  0 0.13876954E+03</rscale>
<asrwt>0</asrwt>
<pdfrwt beam="2">  1        1 0.16507922E-01 0.14688603E+03</pdfrwt>
<pdfrwt beam="1">  1       -1 0.26589266E-01 0.14688603E+03</pdfrwt>
<totfact> 0.39711039E+03</totfact>
</mgrwt>
</event>
<event>
 7    1  0.7800420E-006  0.1609322E+03  0.7546771E-02  0.1195128E+00
          2   -1    0    0  501    0  0.00000000000E+00  0.00000000000E+00  0.88659757885E+03  0.88659757885E+03  0.00000000000E+00 0. -1.
         -2   -1    0    0    0  501 -0.00000000000E+00 -0.00000000000E+00 -0.28482755990E+02  0.28482755990E+02  0.00000000000E+00 0.  1.
         23    2    1    2    0    0  0.80997686082E+02  0.61005091399E+02  0.62083042222E+03  0.64134980437E+03  0.12496764412E+03 0.  0.
          5    1    3    3  502    0  0.76720892750E+02 -0.11575866225E+02  0.20616024644E+03  0.22032755905E+03  0.47000000000E+01 0. -1.
         -5    1    3    3    0  502  0.42767933323E+01  0.72580957624E+02  0.41467017578E+03  0.42102224532E+03  0.47000000000E+01 0. -1.
        -11    1    1    2    0    0 -0.74213726054E+02 -0.32598123713E+02  0.80463976843E+02  0.11421368733E+03  0.00000000000E+00 0.  1.
         11    1    1    2    0    0 -0.67839600284E+01 -0.28406967686E+02  0.15682042379E+03  0.15951684314E+03  0.00000000000E+00 0. -1.
<mgrwt>
<rscale>  0 0.15443394E+03</rscale>
<asrwt>0</asrwt>
<pdfrwt beam="1">  1        2 0.13639961E+00 0.16093215E+03</pdfrwt>
<pdfrwt beam="2">  1       -2 0.43819631E-02 0.16093215E+03</pdfrwt>
<totfact> 0.72389160E+03</totfact>
</mgrwt>
</event>
<event>
 7    1  0.7800420E-006  0.1219484E+03  0.7546771E-02  0.1254394E+00
          2   -1    0    0  501    0  0.00000000000E+00  0.00000000000E+00  0.43219149563E+03  0.43219149563E+03  0.00000000000E+00 0. -1.
         -2   -1    0    0    0  501 -0.00000000000E+00 -0.00000000000E+00 -0.26961366568E+02  0.26961366568E+02  0.00000000000E+00 0.  1.
         23    2    1    2    0    0  0.13938832622E+02  0.27234215669E+02  0.26725983236E+03  0.29376730646E+03  0.11804837479E+03 0.  0.
          5    1    3    3  502    0  0.47643163315E+02  0.18047417625E+02  0.24874428069E+03  0.25395154552E+03  0.47000000000E+01 0. -1.
         -5    1    3    3    0  502 -0.33704330693E+02  0.91867980442E+01  0.18515551673E+02  0.39815760943E+02  0.47000000000E+01 0.  1.
        -11    1    1    2    0    0  0.14347946137E+02  0.21001336006E+02  0.83634013308E+02  0.87416061765E+02  0.00000000000E+00 0. -1.
         11    1    1    2    0    0 -0.28286778759E+02 -0.48235551675E+02  0.54336283391E+02  0.77969493974E+02  0.00000000000E+00 0.  1.
<mgrwt>
<rscale>  0 0.11340316E+03</rscale>
<asrwt>0</asrwt>
<pdfrwt beam="1">  1        2 0.66490994E-01 0.12194840E+03</pdfrwt>
<pdfrwt beam="2">  1       -2 0.41479029E-02 0.12194840E+03</pdfrwt>
<totfact> 0.17766681E+04</totfact>
</mgrwt>
</event>
<event>
 7    1  0.7800420E-006  0.1336356E+03  0.7546771E-02  0.1235471E+00
         -4   -1    0    0    0  501 -0.00000000000E+00  0.00000000000E+00  0.10447038392E+03  0.10447038392E+03  0.00000000000E+00 0.  1.
          4   -1    0    0  501    0  0.00000000000E+00 -0.00000000000E+00 -0.14193471904E+03  0.14193471904E+03  0.00000000000E+00 0. -1.
         23    2    1    2    0    0  0.24749765940E+02 -0.40268120992E+02 -0.52997769803E+02  0.14376105702E+03  0.12499762169E+03 0.  0.
          5    1    3    3  502    0 -0.45000656050E+02 -0.38954513626E+02 -0.41959987330E+02  0.72974267475E+02  0.47000000000E+01 0.  1.
         -5    1    3    3    0  502  0.69750421990E+02 -0.13136073667E+01 -0.11037782473E+02  0.70786789544E+02  0.47000000000E+01 0.  1.
        -11    1    1    2    0    0 -0.12564623323E+02  0.65056138492E+02 -0.74970990736E+01  0.66681162327E+02  0.00000000000E+00 0.  1.
         11    1    1    2    0    0 -0.12185142616E+02 -0.24788017500E+02  0.23030533759E+02  0.35962883607E+02  0.00000000000E+00 0. -1.
<mgrwt>
<rscale>  0 0.12474335E+03</rscale>
<asrwt>0</asrwt>
<pdfrwt beam="2">  1        4 0.21836111E-01 0.13363562E+03</pdfrwt>
<pdfrwt beam="1">  1       -4 0.16072367E-01 0.13363562E+03</pdfrwt>
<totfact> 0.10553906E+03</totfact>
</mgrwt>
</event>
<event>
 7    1  0.7800420E-006  0.1429744E+03  0.7546771E-02  0.1219206E+00
          1   -1    0    0  501    0  0.00000000000E+00  0.00000000000E+00  0.70741641887E+03  0.70741641887E+03  0.00000000000E+00 0. -1.
         -1   -1    0    0    0  501 -0.00000000000E+00 -0.00000000000E+00 -0.28734815920E+02  0.28734815920E+02  0.00000000000E+00 0.  1.
         23    2    1    2    0    0  0.66867711623E+02 -0.18557852923E+02  0.52150449922E+03  0.54074820637E+03  0.12500398086E+03 0.  0.
          5    1    3    3  502    0  0.11599979222E+02  0.22869980301E+01  0.43892395041E+03  0.43910831707E+03  0.47000000000E+01 0. -1.
         -5    1    3    3    0  502  0.55267732401E+02 -0.20844850953E+02  0.82580548805E+02  0.10163988930E+03  0.47000000000E+01 0. -1.
        -11    1    1    2    0    0 -0.53658308130E+02 -0.32412288480E+02  0.96395018670E+02  0.11498595610E+03  0.00000000000E+00 0.  1.
         11    1    1    2    0    0 -0.13209403493E+02  0.50970141403E+02  0.60782085061E+02  0.80417072314E+02  0.00000000000E+00 0. -1.
<mgrwt>
<rscale>  0 0.13572058E+03</rscale>
<asrwt>0</asrwt>
<pdfrwt beam="1">  1        1 0.10883328E+00 0.14297440E+03</pdfrwt>
<pdfrwt beam="2">  1       -1 0.44207414E-02 0.14297440E+03</pdfrwt>
<totfact> 0.57003328E+03</totfact>
</mgrwt>
</event>
<event>
 6    1  0.7800420E-006  0.1681494E+03  0.7546771E-02  0.1201764E+00
         -2   -1    0    0    0  501 -0.00000000000E+00  0.00000000000E+00  0.16131569035E+02  0.16131569035E+02  0.00000000000E+00 0.  1.
          2   -1    0    0  501    0  0.00000000000E+00 -0.00000000000E+00 -0.11910735955E+04  0.11910735955E+04  0.00000000000E+00 0. -1.
          5    1    1    2  502    0  0.30817684803E+02 -0.45212253649E+02 -0.73235632723E+03  0.73441252550E+03  0.47000000000E+01 0. -1.
         -5    1    1    2    0  502  0.14724301211E+02  0.55489003650E+02 -0.10599234147E+03  0.12063291849E+03  0.47000000000E+01 0.  1.
        -11    1    1    2    0    0 -0.34710117761E+02  0.33619144419E+02 -0.97368915922E+02  0.10870025269E+03  0.00000000000E+00 0.  1.
         11    1    1    2    0    0 -0.10831868253E+02 -0.43895894419E+02 -0.23922444182E+03  0.24345946784E+03  0.00000000000E+00 0. -1.
<mgrwt>
<rscale>  0 0.14895423E+03</rscale>
<asrwt>0</asrwt>
<pdfrwt beam="2">  1        2 0.18324210E+00 0.16814940E+03</pdfrwt>
<pdfrwt beam="1">  1       -2 0.24817798E-02 0.16814940E+03</pdfrwt>
<totfact> 0.11104822E+04</totfact>
</mgrwt>
</event>
<event>
 7    1  0.7800420E-006  0.2407697E+03  0.7546771E-02  0.1121746E+00
          1   -1    0    0  501    0  0.00000000000E+00  0.00000000000E+00  0.19566407408E+04  0.19566407408E+04  0.00000000000E+00 0. -1.
         -1   -1    0    0    0  501 -0.00000000000E+00 -0.00000000000E+00 -0.29519114511E+02  0.29519114511E+02  0.00000000000E+00 0.  1.
         23    2    1    2    0    0  0.10566448560E+03 -0.17657695753E+03  0.12251842239E+04  0.12486178027E+04  0.12500251726E+03 0.  0.
          5    1    3    3  502    0 -0.10577533006E+02 -0.70945846857E+02  0.58641932089E+03  0.59080868926E+03  0.47000000000E+01 0.  1.
         -5    1    3    3    0  502  0.11624201861E+03 -0.10563111067E+03  0.63876490299E+03  0.65780911344E+03  0.47000000000E+01 0.  1.
        -11    1    1    2    0    0 -0.44307431484E+02  0.37492539299E+02  0.34090248245E+03  0.34580824387E+03  0.00000000000E+00 0. -1.
         11    1    1    2    0    0 -0.61357054117E+02  0.13908441823E+03  0.36103492000E+03  0.39173380878E+03  0.00000000000E+00 0.  1.
<mgrwt>
<rscale>  0 0.23709116E+03</rscale>
<asrwt>0</asrwt>
<pdfrwt beam="1">  1        1 0.30102155E+00 0.24076967E+03</pdfrwt>
<pdfrwt beam="2">  1       -1 0.45414038E-02 0.24076967E+03</pdfrwt>
<totfact> 0.73452430E+02</totfact>
</mgrwt>
</event>
<event>
 7    1  0.7800420E-006  0.1605479E+03  0.7546771E-02  0.1195768E+00
         -2   -1    0    0    0  501 -0.00000000000E+00  0.00000000000E+00  0.45385385210E+02  0.45385385210E+02  0.00000000000E+00 0.  1.
          2   -1    0    0  501    0  0.00000000000E+00 -0.00000000000E+00 -0.48873416191E+03  0.48873416191E+03  0.00000000000E+00 0. -1.
         23    2    1    2    0    0  0.90875445963E+02  0.43765943743E+02 -0.26921438801E+03  0.31345176547E+03  0.12490723780E+03 0.  0.
          5    1    3    3  502    0  0.98690980137E+02  0.42427797438E+02 -0.27960129287E+03  0.29956468505E+03  0.47000000000E+01 0. -1.
         -5    1    3    3    0  502 -0.78155341737E+01  0.13381463045E+01  0.10386904861E+02  0.13887080419E+02  0.47000000000E+01 0. -1.
        -11    1    1    2    0    0 -0.10287525243E+03 -0.33789003330E+02 -0.17414213730E+03  0.20506218152E+03  0.00000000000E+00 0. -1.
         11    1    1    2    0    0  0.11999806467E+02 -0.99769404134E+01  0.77486054511E-02  0.15605600127E+02  0.00000000000E+00 0.  1.
<mgrwt>
<rscale>  0 0.15389392E+03</rscale>
<asrwt>0</asrwt>
<pdfrwt beam="2">  1        2 0.75189874E-01 0.16054788E+03</pdfrwt>
<pdfrwt beam="1">  1       -2 0.69823667E-02 0.16054788E+03</pdfrwt>
<totfact> 0.72276846E+03</totfact>
</mgrwt>
</event>
<event>
 7    1  0.7800420E-006  0.1307271E+03  0.7546771E-02  0.1238521E+00
          2   -1    0    0  501    0  0.00000000000E+00  0.00000000000E+00  0.34361895706E+03  0.34361895706E+03  0.00000000000E+00 0. -1.
         -2   -1    0    0    0  501 -0.00000000000E+00 -0.00000000000E+00 -0.89241989958E+02  0.89241989958E+02  0.00000000000E+00 0.  1.
         23    2    1    2    0    0 -0.32918165532E+02  0.18902504351E+02  0.29542390619E+03  0.32305549819E+03  0.12509460528E+03 0.  0.
          5    1    3    3  502    0  0.20629936372E+02 -0.35991207470E+02  0.17726087423E+03  0.18211114414E+03  0.47000000000E+01 0. -1.
         -5    1    3    3    0  502 -0.53548101904E+02  0.54893711820E+02  0.11816303196E+03  0.14094435405E+03  0.47000000000E+01 0. -1.
        -11    1    1    2    0    0  0.27541569920E+02  0.11879055895E+02 -0.64235837839E+02  0.70893532184E+02  0.00000000000E+00 0.  1.
         11    1    1    2    0    0  0.53765956121E+01 -0.30781560246E+02  0.23188898750E+02  0.38911916642E+02  0.00000000000E+00 0. -1.
<mgrwt>
<rscale>  0 0.12281715E+03</rscale>
<asrwt>0</asrwt>
<pdfrwt beam="1">  1        2 0.52864454E-01 0.13072708E+03</pdfrwt>
<pdfrwt beam="2">  1       -2 0.13729537E-01 0.13072708E+03</pdfrwt>
<totfact> 0.36058129E+03</totfact>
</mgrwt>
</event>
<event>
 7    1  0.7800420E-006  0.2203870E+03  0.7546771E-02  0.1136887E+00
          2   -1    0    0  501    0  0.00000000000E+00  0.00000000000E+00  0.37891651157E+03  0.37891651157E+03  0.00000000000E+00 0. -1.
         -2   -1    0    0    0  501 -0.00000000000E+00 -0.00000000000E+00 -0.11985273438E+03  0.11985273438E+03  0.00000000000E+00 0.  1.
         23    2    1    2    0    0 -0.17025127315E+03 -0.62916665989E+02  0.16106312903E+03  0.27296846448E+03  0.12500579267E+03 0.  0.
          5    1    3    3  502    0 -0.18385597339E+03 -0.59980020753E+02  0.16846281259E+03  0.25651984537E+03  0.47000000000E+01 0. -1.
         -5    1    3    3    0  502  0.13604700248E+02 -0.29366452355E+01 -0.73996835549E+01  0.16448619115E+02  0.47000000000E+01 0. -1.
        -11    1    1    2    0    0  0.34001447540E+02  0.55517288947E+02  0.17658972402E+02  0.67454481787E+02  0.00000000000E+00 0. -1.
         11    1    1    2    0    0  0.13624982560E+03  0.73993770414E+01  0.80341675762E+02  0.15834629968E+03  0.00000000000E+00 0.  1.
<mgrwt>
<rscale>  0 0.21601843E+03</rscale>
<asrwt>0</asrwt>
<pdfrwt beam="1">  1        2 0.58294847E-01 0.22038705E+03</pdfrwt>
<pdfrwt beam="2">  1       -2 0.18438882E-01 0.22038705E+03</pdfrwt>
<totfact> 0.20327522E+03</totfact>
</mgrwt>
</event>
<event>
 7    1  0.7800420E-006  0.1620303E+03  0.7546771E-02  0.1193355E+00
         -2   -1    0    0    0  501 -0.00000000000E+00  0.00000000000E+00  0.92823400540E+02  0.92823400540E+02  0.00000000000E+00 0.  1.
          2   -1    0    0  501    0  0.00000000000E+00 -0.00000000000E+00 -0.24441522708E+03  0.24441522708E+03  0.00000000000E+00 0. -1.
         23    2    1    2    0    0  0.53865544784E+02 -0.87889294279E+02 -0.75500932084E+02  0.17875744550E+03  0.12501123395E+03 0.  0.
          5    1    3    3  502    0  0.17490909158E+02 -0.49794982574E+02 -0.10542897914E+03  0.11799505004E+03  0.47000000000E+01 0.  1.
         -5    1    3    3    0  502  0.36374635625E+02 -0.38094311706E+02  0.29928047055E+02  0.60762395457E+02  0.47000000000E+01 0.  1.
        -11    1    1    2    0    0 -0.16423643689E+01  0.42150469297E+02 -0.78393405151E+02  0.89021825379E+02  0.00000000000E+00 0. -1.
         11    1    1    2    0    0 -0.52223180415E+02  0.45738824982E+02  0.23025106939E+01  0.69459356741E+02  0.00000000000E+00 0.  1.
<mgrwt>
<rscale>  0 0.15594315E+03</rscale>
<asrwt>0</asrwt>
<pdfrwt beam="2">  1        2 0.37602343E-01 0.16203035E+03</pdfrwt>
<pdfrwt beam="1">  1       -2 0.14280523E-01 0.16203035E+03</pdfrwt>
<totfact> 0.49141182E+03</totfact>
</mgrwt>
</event>
<event>
 7    1  0.7800420E-006  0.1709142E+03  0.7546771E-02  0.1182740E+00
         -2   -1    0    0    0  501 -0.00000000000E+00  0.00000000000E+00  0.76107425650E+03  0.76107425650E+03  0.00000000000E+00 0.  1.
          2   -1    0    0  501    0  0.00000000000E+00 -0.00000000000E+00 -0.47706062502E+02  0.47706062502E+02  0.00000000000E+00 0. -1.
         23    2    1    2    0    0  0.11530702023E+03 -0.16932510088E+02  0.15528288125E+03  0.23092086633E+03  0.12501701677E+03 0.  0.
          5    1    3    3  502    0 -0.13487761539E+02 -0.35720491000E+02  0.52070944643E+02  0.64740609085E+02  0.47000000000E+01 0.  1.
         -5    1    3    3    0  502  0.12879478177E+03  0.18787980912E+02  0.10321193661E+03  0.16618025724E+03  0.47000000000E+01 0.  1.
        -11    1    1    2    0    0  0.39048115471E+01  0.10150075046E+02  0.48894860441E+01  0.11923868938E+02  0.00000000000E+00 0. -1.
         11    1    1    2    0    0 -0.11921183178E+03  0.67824350413E+01  0.55319582670E+03  0.56593558374E+03  0.00000000000E+00 0.  1.
<mgrwt>
<rscale>  0 0.16539239E+03</rscale>
<asrwt>0</asrwt>
<pdfrwt beam="2">  1        2 0.73393948E-02 0.17091423E+03</pdfrwt>
<pdfrwt beam="1">  1       -2 0.11708834E+00 0.17091423E+03</pdfrwt>
<totfact> 0.55359003E+02</totfact>
</mgrwt>
</event>
<event>
 7    1  0.7800420E-006  0.1454311E+03  0.7546771E-02  0.1216331E+00
         -2   -1    0    0    0  501 -0.00000000000E+00  0.00000000000E+00  0.42402719343E+02  0.42402719343E+02  0.00000000000E+00 0.  1.
          2   -1    0    0  501    0  0.00000000000E+00 -0.00000000000E+00 -0.40701728790E+03  0.40701728790E+03  0.00000000000E+00 0. -1.
         23    2    1    2    0    0  0.72424069999E+02 -0.16672335894E+02 -0.19529371238E+03  0.24349502285E+03  0.12500791719E+03 0.  0.
          5    1    3    3  502    0  0.60192252253E+02  0.48508035884E+02 -0.12231410499E+03  0.14477212113E+03  0.47000000000E+01 0.  1.
         -5    1    3    3    0  502  0.12231817746E+02 -0.65180371778E+02 -0.72979607385E+02  0.98722901723E+02  0.47000000000E+01 0.  1.
        -11    1    1    2    0    0 -0.85163721294E+02 -0.11387011713E+02 -0.11625704959E+03  0.14456218399E+03  0.00000000000E+00 0.  1.
         11    1    1    2    0    0  0.12739651295E+02  0.28059347607E+02 -0.53063806591E+02  0.61362800402E+02  0.00000000000E+00 0. -1.
<mgrwt>
<rscale>  0 0.13779188E+03</rscale>
<asrwt>0</asrwt>
<pdfrwt beam="2">  1        2 0.62618045E-01 0.14543106E+03</pdfrwt>
<pdfrwt beam="1">  1       -2 0.65234952E-02 0.14543106E+03</pdfrwt>
<totfact> 0.97220042E+03</totfact>
</mgrwt>
</event>
<event>
 7    1  0.7800420E-006  0.1462140E+03  0.7546771E-02  0.1215295E+00
          1   -1    0    0  501    0  0.00000000000E+00  0.00000000000E+00  0.86390730258E+03  0.86390730258E+03  0.00000000000E+00 0. -1.
         -1   -1    0    0    0  501 -0.00000000000E+00 -0.00000000000E+00 -0.20945893183E+02  0.20945893183E+02  0.00000000000E+00 0.  1.
         23    2    1    2    0    0 -0.72127304752E+02 -0.23487924832E+02  0.54900245993E+03  0.56813928621E+03  0.12499806726E+03 0.  0.
          5    1    3    3  502    0  0.29439033016E+02 -0.23816084653E+02  0.23522208159E+03  0.23829683217E+03  0.47000000000E+01 0.  1.
         -5    1    3    3    0  502 -0.10156633777E+03  0.32815982133E+00  0.31378037834E+03  0.32984245404E+03  0.47000000000E+01 0.  1.
        -11    1    1    2    0    0 -0.67433672945E+01  0.33948334318E+02  0.56269831642E+02  0.66062518560E+02  0.00000000000E+00 0.  1.
         11    1    1    2    0    0  0.78870672047E+02 -0.10460409486E+02  0.23768911783E+03  0.25065139100E+03  0.00000000000E+00 0. -1.
<mgrwt>
<rscale>  0 0.13854869E+03</rscale>
<asrwt>0</asrwt>
<pdfrwt beam="1">  1        1 0.13290879E+00 0.14621405E+03</pdfrwt>
<pdfrwt beam="2">  1       -1 0.32224458E-02 0.14621405E+03</pdfrwt>
<totfact> 0.67299429E+03</totfact>
</mgrwt>
</event>
<event>
 7    1  0.7800420E-006  0.1608833E+03  0.7546771E-02  0.1194957E+00
          2   -1    0    0  501    0  0.00000000000E+00  0.00000000000E+00  0.11761177493E+03  0.11761177493E+03  0.00000000000E+00 0.  1.
         -2   -1    0    0    0  501 -0.00000000000E+00 -0.00000000000E+00 -0.20156515025E+03  0.20156515025E+03  0.00000000000E+00 0. -1.
         23    2    1    2    0    0  0.25915668174E+02 -0.97913457329E+02 -0.50036363464E+01  0.16096105364E+03  0.12499902972E+03 0.  0.
          5    1    3    3  502    0 -0.36458632264E+02 -0.71683152926E+02 -0.33684743924E+02  0.87318143895E+02  0.47000000000E+01 0.  1.
         -5    1    3    3    0  502  0.62374300438E+02 -0.26230304403E+02  0.28681107577E+02  0.73642909747E+02  0.47000000000E+01 0.  1.
        -11    1    1    2    0    0 -0.60684554834E+02  0.68864464680E+02 -0.51725008645E+02  0.10535846530E+03  0.00000000000E+00 0. -1.
         11    1    1    2    0    0  0.34768886660E+02  0.29048992649E+02 -0.27224730326E+02  0.52857406244E+02  0.00000000000E+00 0.  1.
<mgrwt>
<rscale>  0 0.15457903E+03</rscale>
<asrwt>0</asrwt>
<pdfrwt beam="1">  1        2 0.18094119E-01 0.16088326E+03</pdfrwt>
<pdfrwt beam="2">  1       -2 0.31010023E-01 0.16088326E+03</pdfrwt>
<totfact> 0.29192850E+03</totfact>
</mgrwt>
</event>
<event>
 7    1  0.7800420E-006  0.1352829E+03  0.7546771E-02  0.1231639E+00
         -1   -1    0    0    0  501 -0.00000000000E+00  0.00000000000E+00  0.13766299315E+03  0.13766299315E+03  0.00000000000E+00 0.  1.
          1   -1    0    0  501    0  0.00000000000E+00 -0.00000000000E+00 -0.41191636438E+03  0.41191636438E+03  0.00000000000E+00 0. -1.
         23    2    1    2    0    0 -0.94724732554E+01 -0.50860600960E+02 -0.37795072535E+03  0.40143271048E+03  0.12499976709E+03 0.  0.
          5    1    3    3  502    0 -0.24752187166E+02 -0.30910515684E+01 -0.59953056856E+01  0.26081776388E+02  0.47000000000E+01 0. -1.
         -5    1    3    3    0  502  0.15279713911E+02 -0.47769549391E+02 -0.37195541967E+03  0.37535093410E+03  0.47000000000E+01 0. -1.
        -11    1    1    2    0    0 -0.25966570025E+02  0.24301699772E+02  0.19220227357E+00  0.35565043405E+02  0.00000000000E+00 0. -1.
         11    1    1    2    0    0  0.35439043281E+02  0.26558901187E+02  0.10350515185E+03  0.11258160365E+03  0.00000000000E+00 0.  1.
<mgrwt>
<rscale>  0 0.12722041E+03</rscale>
<asrwt>0</asrwt>
<pdfrwt beam="2">  1        1 0.63371747E-01 0.13528293E+03</pdfrwt>
<pdfrwt beam="1">  1       -1 0.21178922E-01 0.13528293E+03</pdfrwt>
<totfact> 0.10640291E+03</totfact>
</mgrwt>
</event>
<event>
 7    1  0.7800420E-006  0.2006610E+03  0.7546771E-02  0.1153068E+00
          2   -1    0    0  501    0  0.00000000000E+00  0.00000000000E+00  0.27350850929E+03  0.27350850929E+03  0.00000000000E+00 0.  1.
         -2   -1    0    0    0  501 -0.00000000000E+00 -0.00000000000E+00 -0.15102758377E+03  0.15102758377E+03  0.00000000000E+00 0. -1.
         23    2    1    2    0    0  0.13995367016E+03  0.71091165084E+02  0.13373650148E+03  0.24114374917E+03  0.12499548948E+03 0.  0.
          5    1    3    3  502    0  0.15187378129E+02 -0.19168116761E+02  0.70212699160E+02  0.74498230032E+02  0.47000000000E+01 0.  1.
         -5    1    3    3    0  502  0.12476629203E+03  0.90259281845E+02  0.63523802324E+02  0.16664551914E+03  0.47000000000E+01 0.  1.
        -11    1    1    2    0    0 -0.80253215372E+02  0.35190087034E+01 -0.30486924027E+02  0.85920978442E+02  0.00000000000E+00 0. -1.
         11    1    1    2    0    0 -0.59700454791E+02 -0.74610173788E+02  0.19231348055E+02  0.97471365451E+02  0.00000000000E+00 0.  1.
<mgrwt>
<rscale>  0 0.19610458E+03</rscale>
<asrwt>0</asrwt>
<pdfrwt beam="1">  1        2 0.42078232E-01 0.20066105E+03</pdfrwt>
<pdfrwt beam="2">  1       -2 0.23235013E-01 0.20066105E+03</pdfrwt>
<totfact> 0.19362410E+03</totfact>
</mgrwt>
</event>
<event>
 7    1  0.7800420E-006  0.1463651E+03  0.7546771E-02  0.1214942E+00
          1   -1    0    0  501    0  0.00000000000E+00  0.00000000000E+00  0.71854398674E+02  0.71854398674E+02  0.00000000000E+00 0. -1.
         -1   -1    0    0    0  501 -0.00000000000E+00 -0.00000000000E+00 -0.26053099165E+03  0.26053099165E+03  0.00000000000E+00 0.  1.
         23    2    1    2    0    0 -0.61354151471E+02 -0.45107956170E+02 -0.61888561659E+02  0.15891176206E+03  0.12499477767E+03 0.  0.
          5    1    3    3  502    0 -0.22378239973E+01 -0.39688203436E+02 -0.85848930911E+02  0.94722174208E+02  0.47000000000E+01 0.  1.
         -5    1    3    3    0  502 -0.59116327473E+02 -0.54197527345E+01  0.23960369252E+02  0.64189587850E+02  0.47000000000E+01 0.  1.
        -11    1    1    2    0    0  0.25767003288E+02  0.63548523646E+02 -0.43951886520E+02  0.81450117524E+02  0.00000000000E+00 0. -1.
         11    1    1    2    0    0  0.35587148183E+02 -0.18440567476E+02 -0.82836144801E+02  0.92023510747E+02  0.00000000000E+00 0.  1.
<mgrwt>
<rscale>  0 0.13880771E+03</rscale>
<asrwt>0</asrwt>
<pdfrwt beam="1">  1        1 0.11054523E-01 0.14636514E+03</pdfrwt>
<pdfrwt beam="2">  1       -1 0.40081691E-01 0.14636514E+03</pdfrwt>
<totfact> 0.33304155E+03</totfact>
</mgrwt>
</event>
<event>
 7    1  0.7800420E-006  0.1477627E+03  0.7546771E-02  0.1211874E+00
          2   -1    0    0  501    0  0.00000000000E+00  0.00000000000E+00  0.48981165082E+03  0.48981165082E+03  0.00000000000E+00 0. -1.
         -2   -1    0    0    0  501 -0.00000000000E+00 -0.00000000000E+00 -0.37938525785E+02  0.37938525785E+02  0.00000000000E+00 0.  1.
         23    2    1    2    0    0 -0.63961965822E+02  0.46014064605E+02  0.27870152571E+03  0.31544947274E+03  0.12500160881E+03 0.  0.
          5    1    3    3  502    0 -0.74574409598E+02 -0.22113336014E+02  0.16323321252E+03  0.18087983266E+03  0.47000000000E+01 0. -1.
         -5    1    3    3    0  502  0.10612443776E+02  0.68127400619E+02  0.11546831320E+03  0.13456964008E+03  0.47000000000E+01 0. -1.
        -11    1    1    2    0    0 -0.68281165642E+01 -0.49121915047E+02  0.51480716789E+02  0.71483214217E+02  0.00000000000E+00 0.  1.
         11    1    1    2    0    0  0.70790082386E+02  0.31078504415E+01  0.12169088253E+03  0.14081748965E+03  0.00000000000E+00 0. -1.
<mgrwt>
<rscale>  0 0.14108647E+03</rscale>
<asrwt>0</asrwt>
<pdfrwt beam="1">  1        2 0.75355634E-01 0.14776275E+03</pdfrwt>
<pdfrwt beam="2">  1       -2 0.58366966E-02 0.14776275E+03</pdfrwt>
<totfact> 0.94306322E+03</totfact>
</mgrwt>
</event>
<event>
 6    1  0.7800420E-006  0.1571206E+03  0.7546771E-02  0.1212626E+00
          2   -1    0    0  501    0  0.00000000000E+00  0.00000000000E+00  0.22522493017E+03  0.22522493017E+03  0.00000000000E+00 0. -1.
         -2   -1    0    0    0  501 -0.00000000000E+00 -0.00000000000E+00 -0.11200256518E+03  0.11200256518E+03  0.00000000000E+00 0.  1.
          5    1    1    2  502    0 -0.46546022346E+02 -0.51177673556E+02  0.58075668097E+02  0.90446446540E+02  0.47000000000E+01 0. -1.
         -5    1    1    2    0  502  0.74279189092E+02  0.44161980366E+02  0.10375874623E+03  0.13511345552E+03  0.47000000000E+01 0.  1.
        -11    1    1    2    0    0  0.25686813693E+02  0.32359354280E+02 -0.22316556188E+02  0.46957096239E+02  0.00000000000E+00 0.  1.
         11    1    1    2    0    0 -0.53419980440E+02 -0.25343661090E+02 -0.26295493156E+02  0.64710497046E+02  0.00000000000E+00 0. -1.
<mgrwt>
<rscale>  0 0.14052387E+03</rscale>
<asrwt>0</asrwt>
<pdfrwt beam="1">  1        2 0.34649989E-01 0.15712063E+03</pdfrwt>
<pdfrwt beam="2">  1       -2 0.17231164E-01 0.15712063E+03</pdfrwt>
<totfact> 0.39303777E+03</totfact>
</mgrwt>
</event>
<event>
 7    1  0.7800420E-006  0.1272427E+03  0.7546771E-02  0.1240653E+00
         -1   -1    0    0    0  501 -0.00000000000E+00  0.00000000000E+00  0.57211195983E+02  0.57211195983E+02  0.00000000000E+00 0.  1.
          1   -1    0    0  501    0  0.00000000000E+00 -0.00000000000E+00 -0.23730043630E+03  0.23730043630E+03  0.00000000000E+00 0. -1.
         23    2    1    2    0    0 -0.77144343864E+01 -0.56651893758E+02 -0.10079920489E+03  0.16233048426E+03  0.11367390575E+03 0.  0.
          5    1    3    3  502    0  0.47016276156E+02 -0.42973535127E+02 -0.79189687556E+02  0.10173667756E+03  0.47000000000E+01 0. -1.
         -5    1    3    3    0  502 -0.54730710543E+02 -0.13678358631E+02 -0.21609517337E+02  0.60593806704E+02  0.47000000000E+01 0.  1.
        -11    1    1    2    0    0 -0.14621210394E+02  0.43330261666E+01  0.15428061240E+02  0.21692855569E+02  0.00000000000E+00 0. -1.
         11    1    1    2    0    0  0.22335644780E+02  0.52318867591E+02 -0.94718096660E+02  0.11048829245E+03  0.00000000000E+00 0.  1.
<mgrwt>
<rscale>  0 0.12149374E+03</rscale>
<asrwt>0</asrwt>
<pdfrwt beam="2">  1        1 0.36507761E-01 0.12724271E+03</pdfrwt>
<pdfrwt beam="1">  1       -1 0.88017221E-02 0.12724271E+03</pdfrwt>
<totfact> 0.82664238E+03</totfact>
</mgrwt>
</event>
<event>
 7    1  0.7800420E-006  0.1334980E+03  0.7546771E-02  0.1235093E+00
         -1   -1    0    0    0  501 -0.00000000000E+00  0.00000000000E+00  0.25080563540E+02  0.25080563540E+02  0.00000000000E+00 0.  1.
          1   -1    0    0  501    0  0.00000000000E+00 -0.00000000000E+00 -0.63085126199E+03  0.63085126199E+03  0.00000000000E+00 0. -1.
         23    2    1    2    0    0  0.36444623920E+02 -0.29465505419E+02 -0.45034025331E+03  0.46971060898E+03  0.12500114324E+03 0.  0.
          5    1    3    3  502    0  0.55867735041E+02  0.32716153315E+01 -0.41081192048E+03  0.41463288737E+03  0.47000000000E+01 0. -1.
         -5    1    3    3    0  502 -0.19423111121E+02 -0.32737120751E+02 -0.39528332838E+02  0.55077721609E+02  0.47000000000E+01 0. -1.
        -11    1    1    2    0    0 -0.52806436983E+02  0.37482135357E+02 -0.15501392057E+03  0.16799626731E+03  0.00000000000E+00 0. -1.
         11    1    1    2    0    0  0.16361813063E+02 -0.80166299375E+01 -0.41652456732E+00  0.18224949245E+02  0.00000000000E+00 0.  1.
<mgrwt>
<rscale>  0 0.12498461E+03</rscale>
<asrwt>0</asrwt>
<pdfrwt beam="2">  1        1 0.97054031E-01 0.13349799E+03</pdfrwt>
<pdfrwt beam="1">  1       -1 0.38585486E-02 0.13349799E+03</pdfrwt>
<totfact> 0.81503859E+03</totfact>
</mgrwt>
</event>
<event>
 7    1  0.7800420E-006  0.1527354E+03  0.7546771E-02  0.1205336E+00
          1   -1    0    0  501    0  0.00000000000E+00  0.00000000000E+00  0.21159910482E+03  0.21159910482E+03  0.00000000000E+00 0. -1.
         -1   -1    0    0    0  501 -0.00000000000E+00 -0.00000000000E+00 -0.94965096863E+02  0.94965096863E+02  0.00000000000E+00 0.  1.
         23    2    1    2    0    0  0.86388403870E+02  0.15476134720E+02  0.85027773591E+02  0.17480794674E+03  0.12500251555E+03 0.  0.
          5    1    3    3  502    0  0.70003378773E+02 -0.43381727186E+02  0.18846845738E+02  0.84615252098E+02  0.47000000000E+01 0. -1.
         -5    1    3    3    0  502  0.16385025097E+02  0.58857861905E+02  0.66180927853E+02  0.90192694643E+02  0.47000000000E+01 0. -1.
        -11    1    1    2    0    0 -0.22324494344E+02 -0.28935573900E+02 -0.25761626061E+02  0.44713665271E+02  0.00000000000E+00 0.  1.
         11    1    1    2    0    0 -0.64063909526E+02  0.13459439181E+02  0.57367860426E+02  0.87042589672E+02  0.00000000000E+00 0. -1.
<mgrwt>
<rscale>  0 0.14611007E+03</rscale>
<asrwt>0</asrwt>
<pdfrwt beam="1">  1        1 0.32553708E-01 0.15273538E+03</pdfrwt>
<pdfrwt beam="2">  1       -1 0.14610015E-01 0.15273538E+03</pdfrwt>
<totfact> 0.44190230E+03</totfact>
</mgrwt>
</event>
<event>
 7    1  0.7800420E-006  0.1519329E+03  0.7546771E-02  0.1207201E+00
          2   -1    0    0  501    0  0.00000000000E+00  0.00000000000E+00  0.15238027806E+04  0.15238027806E+04  0.00000000000E+00 0. -1.
         -2   -1    0    0    0  501 -0.00000000000E+00 -0.00000000000E+00 -0.14551095420E+02  0.14551095420E+02  0.00000000000E+00 0.  1.
         23    2    1    2    0    0 -0.78873250559E+02 -0.35161741460E+02  0.11012105534E+04  0.11116421655E+04  0.12500513308E+03 0.  0.
          5    1    3    3  502    0 -0.40567251504E+02  0.38325020475E+02  0.24033187645E+03  0.24677116916E+03  0.47000000000E+01 0.  1.
         -5    1    3    3    0  502 -0.38305999055E+02 -0.73486761935E+02  0.86087867698E+03  0.86487099629E+03  0.47000000000E+01 0.  1.
        -11    1    1    2    0    0  0.86502605936E+02  0.53924606430E+02  0.36775201764E+03  0.38161775442E+03  0.00000000000E+00 0. -1.
         11    1    1    2    0    0 -0.76293553768E+01 -0.18762864970E+02  0.40289114084E+02  0.45093956125E+02  0.00000000000E+00 0.  1.
<mgrwt>
<rscale>  0 0.14465333E+03</rscale>
<asrwt>0</asrwt>
<pdfrwt beam="1">  1        2 0.23443107E+00 0.15193295E+03</pdfrwt>
<pdfrwt beam="2">  1       -2 0.22386313E-02 0.15193295E+03</pdfrwt>
<totfact> 0.85159258E+03</totfact>
</mgrwt>
</event>
<event>
 7    1  0.7800420E-006  0.1292855E+03  0.7546771E-02  0.1241892E+00
         -2   -1    0    0    0  501 -0.00000000000E+00  0.00000000000E+00  0.10188639483E+02  0.10188639483E+02  0.00000000000E+00 0.  1.
          2   -1    0    0  501    0  0.00000000000E+00 -0.00000000000E+00 -0.15843561883E+04  0.15843561883E+04  0.00000000000E+00 0. -1.
         23    2    1    2    0    0 -0.32903608525E+02  0.25767428204E+01 -0.12248173225E+04  0.12316217844E+04  0.12500183778E+03 0.  0.
          5    1    3    3  502    0  0.28933692050E+02  0.15627065145E+02 -0.90371769155E+03  0.90432799344E+03  0.47000000000E+01 0. -1.
         -5    1    3    3    0  502 -0.61837300575E+02 -0.13050322325E+02 -0.32109963091E+03  0.32729379100E+03  0.47000000000E+01 0. -1.
        -11    1    1    2    0    0  0.18613130198E+02 -0.46620713370E+02 -0.14673682328E+03  0.15508589503E+03  0.00000000000E+00 0.  1.
         11    1    1    2    0    0  0.14290478327E+02  0.44043970549E+02 -0.20261340305E+03  0.20783714829E+03  0.00000000000E+00 0. -1.
<mgrwt>
<rscale>  0 0.12073328E+03</rscale>
<asrwt>0</asrwt>
<pdfrwt beam="2">  1        2 0.24374699E+00 0.12928552E+03</pdfrwt>
<pdfrwt beam="1">  1       -2 0.15674837E-02 0.12928552E+03</pdfrwt>
<totfact> 0.13195379E+04</totfact>
</mgrwt>
</event>
<event>
 7    1  0.7800420E-006  0.1426730E+03  0.7546771E-02  0.1220297E+00
          1   -1    0    0  501    0  0.00000000000E+00  0.00000000000E+00  0.14535831769E+04  0.14535831769E+04  0.00000000000E+00 0. -1.
         -1   -1    0    0    0  501 -0.00000000000E+00 -0.00000000000E+00 -0.12503973567E+02  0.12503973567E+02  0.00000000000E+00 0.  1.
         23    2    1    2    0    0  0.42045839183E+02  0.54407341060E+02  0.10147807565E+04  0.10247612308E+04  0.12501033980E+03 0.  0.
          5    1    3    3  502    0 -0.37785010705E+02  0.30831746925E+02  0.20838280678E+03  0.21406491495E+03  0.47000000000E+01 0. -1.
         -5    1    3    3    0  502  0.79830849888E+02  0.23575594135E+02  0.80639794973E+03  0.81069631586E+03  0.47000000000E+01 0. -1.
        -11    1    1    2    0    0  0.27876593965E+02 -0.12506809462E+02  0.81944957925E+02  0.87455708237E+02  0.00000000000E+00 0.  1.
         11    1    1    2    0    0 -0.69922433148E+02 -0.41900531598E+02  0.34435348889E+03  0.35387021140E+03  0.00000000000E+00 0. -1.
<mgrwt>
<rscale>  0 0.13494558E+03</rscale>
<asrwt>0</asrwt>
<pdfrwt beam="1">  1        1 0.22362805E+00 0.14267304E+03</pdfrwt>
<pdfrwt beam="2">  1       -1 0.19236894E-02 0.14267304E+03</pdfrwt>
<totfact> 0.54826574E+03</totfact>
</mgrwt>
</event>
<event>
 7    1  0.7800420E-006  0.1452915E+03  0.7546771E-02  0.1217318E+00
         -1   -1    0    0    0  501 -0.00000000000E+00  0.00000000000E+00  0.37964248653E+02  0.37964248653E+02  0.00000000000E+00 0.  1.
          1   -1    0    0  501    0  0.00000000000E+00 -0.00000000000E+00 -0.52280743736E+03  0.52280743736E+03  0.00000000000E+00 0. -1.
         23    2    1    2    0    0  0.46440022869E+02 -0.57726130675E+02 -0.37288737211E+03  0.40019322474E+03  0.12498257062E+03 0.  0.
          5    1    3    3  502    0 -0.24082451353E+02  0.17421617543E+01 -0.11437567217E+02  0.27127615719E+02  0.47000000000E+01 0.  1.
         -5    1    3    3    0  502  0.70522474222E+02 -0.59468292429E+02 -0.36144980489E+03  0.37306560902E+03  0.47000000000E+01 0.  1.
        -11    1    1    2    0    0 -0.21429412755E+02  0.71999725654E+02 -0.44693721178E+02  0.87411148820E+02  0.00000000000E+00 0.  1.
         11    1    1    2    0    0 -0.25010610114E+02 -0.14273594979E+02 -0.67262095420E+02  0.73167312457E+02  0.00000000000E+00 0. -1.
<mgrwt>
<rscale>  0 0.13707639E+03</rscale>
<asrwt>0</asrwt>
<pdfrwt beam="2">  1        1 0.80431907E-01 0.14529152E+03</pdfrwt>
<pdfrwt beam="1">  1       -1 0.58406541E-02 0.14529152E+03</pdfrwt>
<totfact> 0.57169938E+03</totfact>
</mgrwt>
</event>
<event>
 7    1  0.7800420E-006  0.1271489E+03  0.7546771E-02  0.1247080E+00
         -2   -1    0    0    0  501 -0.00000000000E+00  0.00000000000E+00  0.20690369162E+03  0.20690369162E+03  0.00000000000E+00 0.  1.
          2   -1    0    0  501    0  0.00000000000E+00 -0.00000000000E+00 -0.64090339703E+02  0.64090339703E+02  0.00000000000E+00 0. -1.
         23    2    1    2    0    0  0.23277768228E+02  0.20844449687E+00  0.42330205989E+02  0.13401001587E+03  0.12499976028E+03 0.  0.
          5    1    3    3  502    0  0.39954320750E+02  0.32280901691E+02 -0.25095567823E+02  0.57360978765E+02  0.47000000000E+01 0. -1.
         -5    1    3    3    0  502 -0.16676552522E+02 -0.32072457194E+02  0.67425773812E+02  0.76649037102E+02  0.47000000000E+01 0. -1.
        -11    1    1    2    0    0  0.77080695453E+01  0.16206380012E+02  0.10032602389E+03  0.10191845838E+03  0.00000000000E+00 0.  1.
         11    1    1    2    0    0 -0.30985837773E+02 -0.16414824509E+02  0.15712204494E+00  0.35065557082E+02  0.00000000000E+00 0. -1.
<mgrwt>
<rscale>  0 0.11761772E+03</rscale>
<asrwt>0</asrwt>
<pdfrwt beam="2">  1        2 0.98600524E-02 0.12714888E+03</pdfrwt>
<pdfrwt beam="1">  1       -2 0.31831337E-01 0.12714888E+03</pdfrwt>
<totfact> 0.56458914E+03</totfact>
</mgrwt>
</event>
<event>
 7    1  0.7800420E-006  0.1504186E+03  0.7546771E-02  0.1207966E+00
         -2   -1    0    0    0  501 -0.00000000000E+00  0.00000000000E+00  0.42879922853E+02  0.42879922853E+02  0.00000000000E+00 0. -1.
          2   -1    0    0  501    0  0.00000000000E+00 -0.00000000000E+00 -0.51138891789E+03  0.51138891789E+03  0.00000000000E+00 0.  1.
         23    2    1    2    0    0  0.13625829353E+02 -0.82551695550E+02 -0.34971962572E+03  0.38069615608E+03  0.12500120390E+03 0.  0.
          5    1    3    3  502    0 -0.54469330905E+02 -0.27880776629E+02 -0.17209346071E+03  0.18270877082E+03  0.47000000000E+01 0. -1.
         -5    1    3    3    0  502  0.68095160258E+02 -0.54670918921E+02 -0.17762616501E+03  0.19798738526E+03  0.47000000000E+01 0. -1.
        -11    1    1    2    0    0  0.56653112090E+01  0.57581149836E+02 -0.80391265097E+01  0.58414999123E+02  0.00000000000E+00 0. -1.
         11    1    1    2    0    0 -0.19291140562E+02  0.24970545714E+02 -0.11075024281E+03  0.11515768555E+03  0.00000000000E+00 0.  1.
<mgrwt>
<rscale>  0 0.14406128E+03</rscale>
<asrwt>0</asrwt>
<pdfrwt beam="2">  1        2 0.78675213E-01 0.15041857E+03</pdfrwt>
<pdfrwt beam="1">  1       -2 0.65969116E-02 0.15041857E+03</pdfrwt>
<totfact> 0.74716416E+03</totfact>
</mgrwt>
</event>
<event>
 7    1  0.7800420E-006  0.1316079E+03  0.7546771E-02  0.1239188E+00
         -2   -1    0    0    0  501 -0.00000000000E+00  0.00000000000E+00  0.10963578292E+03  0.10963578292E+03  0.00000000000E+00 0.  1.
          2   -1    0    0  501    0  0.00000000000E+00 -0.00000000000E+00 -0.12236589301E+03  0.12236589301E+03  0.00000000000E+00 0. -1.
         23    2    1    2    0    0  0.26827957269E+02  0.31225623548E+02 -0.20643542433E+02  0.13321708560E+03  0.12500342873E+03 0.  0.
          5    1    3    3  502    0 -0.32026495146E+02  0.28987464795E+02 -0.50827626437E+02  0.66869328662E+02  0.47000000000E+01 0.  1.
         -5    1    3    3    0  502  0.58854452415E+02  0.22381587534E+01  0.30184084004E+02  0.66347756939E+02  0.47000000000E+01 0.  1.
        -11    1    1    2    0    0 -0.50998095226E+02 -0.46739466562E+02  0.10411261440E+02  0.69955541711E+02  0.00000000000E+00 0. -1.
         11    1    1    2    0    0  0.24170137958E+02  0.15513843014E+02 -0.24978290910E+01  0.28829048616E+02  0.00000000000E+00 0.  1.
<mgrwt>
<rscale>  0 0.12240080E+03</rscale>
<asrwt>0</asrwt>
<pdfrwt beam="2">  1        2 0.18825522E-01 0.13160789E+03</pdfrwt>
<pdfrwt beam="1">  1       -2 0.16867044E-01 0.13160789E+03</pdfrwt>
<totfact> 0.78959112E+03</totfact>
</mgrwt>
</event>
<event>
 7    1  0.7800420E-006  0.1257687E+03  0.7546771E-02  0.1243494E+00
          1   -1    0    0  501    0  0.00000000000E+00  0.00000000000E+00  0.19250617742E+02  0.19250617742E+02  0.00000000000E+00 0. -1.
         -1   -1    0    0    0  501 -0.00000000000E+00 -0.00000000000E+00 -0.68789537847E+03  0.68789537847E+03  0.00000000000E+00 0.  1.
         23    2    1    2    0    0 -0.47553915032E+02  0.45984156827E+00 -0.39914532200E+03  0.41849103666E+03  0.11643098130E+03 0.  0.
          5    1    3    3  502    0 -0.42880954219E+02 -0.53997340259E+02 -0.25688472428E+03  0.26601943643E+03  0.47000000000E+01 0. -1.
         -5    1    3    3    0  502 -0.46729608136E+01  0.54457181828E+02 -0.14226059772E+03  0.15247160024E+03  0.47000000000E+01 0.  1.
        -11    1    1    2    0    0  0.31216889076E+02  0.34740013190E+02 -0.22416880238E+03  0.22898256405E+03  0.00000000000E+00 0.  1.
         11    1    1    2    0    0  0.16337025957E+02 -0.35199854759E+02 -0.45330636353E+02  0.59672395497E+02  0.00000000000E+00 0. -1.
<mgrwt>
<rscale>  0 0.11975962E+03</rscale>
<asrwt>0</asrwt>
<pdfrwt beam="1">  1        1 0.29616337E-02 0.12576868E+03</pdfrwt>
<pdfrwt beam="2">  1       -1 0.10583005E+00 0.12576868E+03</pdfrwt>
<totfact> 0.29517307E+03</totfact>
</mgrwt>
</event>
<event>
 7    1  0.7800420E-006  0.1259124E+03  0.7546771E-02  0.1248522E+00
          2   -1    0    0  501    0  0.00000000000E+00  0.00000000000E+00  0.11345668430E+04  0.11345668430E+04  0.00000000000E+00 0. -1.
         -2   -1    0    0    0  501 -0.00000000000E+00 -0.00000000000E+00 -0.14775197016E+02  0.14775197016E+02  0.00000000000E+00 0.  1.
         23    2    1    2    0    0 -0.47690353765E+01  0.14324551456E+02  0.92385591050E+03  0.93239674054E+03  0.12500400765E+03 0.  0.
          5    1    3    3  502    0 -0.19407028057E+01  0.22201409988E+02  0.26308199078E+02  0.34797704976E+02  0.47000000000E+01 0.  1.
         -5    1    3    3    0  502 -0.28283325708E+01 -0.78768585321E+01  0.89754771143E+03  0.89759903557E+03  0.47000000000E+01 0.  1.
        -11    1    1    2    0    0 -0.78812856341E+01 -0.50345737220E+02  0.79684478930E+02  0.94585538545E+02  0.00000000000E+00 0.  1.
         11    1    1    2    0    0  0.12650321011E+02  0.36021185765E+02  0.11625125658E+03  0.12235976096E+03  0.00000000000E+00 0. -1.
<mgrwt>
<rscale>  0 0.11677011E+03</rscale>
<asrwt>0</asrwt>
<pdfrwt beam="1">  1        2 0.17454868E+00 0.12591242E+03</pdfrwt>
<pdfrwt beam="2">  1       -2 0.22731081E-02 0.12591242E+03</pdfrwt>
<totfact> 0.13370867E+04</totfact>
</mgrwt>
</event>
<event>
 7    1  0.7800420E-006  0.3970236E+03  0.7546771E-02  0.1045667E+00
          2   -1    0    0  501    0  0.00000000000E+00  0.00000000000E+00  0.10305812220E+04  0.10305812220E+04  0.00000000000E+00 0. -1.
         -2   -1    0    0    0  501 -0.00000000000E+00 -0.00000000000E+00 -0.16682930616E+03  0.16682930616E+03  0.00000000000E+00 0.  1.
         23    2    1    2    0    0 -0.45047924296E+02  0.37413011708E+03  0.63087049583E+03  0.74540276855E+03  0.12500017949E+03 0.  0.
          5    1    3    3  502    0  0.10256909889E+02  0.21240434924E+03  0.44271827947E+03  0.49116430729E+03  0.47000000000E+01 0. -1.
         -5    1    3    3    0  502 -0.55304834185E+02  0.16172576783E+03  0.18815221636E+03  0.25423846127E+03  0.47000000000E+01 0. -1.
        -11    1    1    2    0    0  0.14991549030E+02 -0.15895396846E+02 -0.29729355852E+01  0.22051043721E+02  0.00000000000E+00 0.  1.
         11    1    1    2    0    0  0.30056375266E+02 -0.35823472023E+03  0.23585435560E+03  0.42995671588E+03  0.00000000000E+00 0. -1.
<mgrwt>
<rscale>  0 0.39459499E+03</rscale>
<asrwt>0</asrwt>
<pdfrwt beam="1">  1        2 0.15855095E+00 0.39702356E+03</pdfrwt>
<pdfrwt beam="2">  1       -2 0.25666048E-01 0.39702356E+03</pdfrwt>
<totfact> 0.33918884E+02</totfact>
</mgrwt>
</event>
<event>
 7    1  0.8824327E-006  0.1776321E+03  0.7546771E-02  0.1174537E+00
          3   -1    0    0  501    0  0.00000000000E+00  0.00000000000E+00  0.26864194832E+03  0.26864194832E+03  0.00000000000E+00 0. -1.
         -3   -1    0    0    0  501 -0.00000000000E+00 -0.00000000000E+00 -0.10776642749E+03  0.10776642749E+03  0.00000000000E+00 0.  1.
         23    2    1    2    0    0  0.11657318321E+03 -0.48357795039E+02  0.10507270925E+03  0.20638181125E+03  0.12500157759E+03 0.  0.
          5    1    3    3  502    0  0.16453796989E+01 -0.60835605342E+02  0.46292003808E+02  0.76607556862E+02  0.47000000000E+01 0.  1.
         -5    1    3    3    0  502  0.11492780351E+03  0.12477810303E+02  0.58780705442E+02  0.12977425439E+03  0.47000000000E+01 0.  1.
        -11    1    1    2    0    0 -0.30818529508E+02 -0.58823790877E+00  0.63909323207E+02  0.70954417605E+02  0.00000000000E+00 0. -1.
         11    1    1    2    0    0 -0.85754653699E+02  0.48946032948E+02 -0.81065116288E+01  0.99072146959E+02  0.00000000000E+00 0.  1.
<mgrwt>
<rscale>  0 0.17321411E+03</rscale>
<asrwt>0</asrwt>
<pdfrwt beam="1">  1        3 0.41329530E-01 0.17763214E+03</pdfrwt>
<pdfrwt beam="2">  1       -3 0.16579450E-01 0.17763214E+03</pdfrwt>
<totfact> 0.43776060E+02</totfact>
</mgrwt>
</event>
<event>
 7    1  0.7800420E-006  0.1649464E+03  0.7546771E-02  0.1191202E+00
          2   -1    0    0  501    0  0.00000000000E+00  0.00000000000E+00  0.15604377855E+04  0.15604377855E+04  0.00000000000E+00 0. -1.
         -2   -1    0    0    0  501 -0.00000000000E+00 -0.00000000000E+00 -0.15503109465E+02  0.15503109465E+02  0.00000000000E+00 0.  1.
         23    2    1    2    0    0  0.10620731210E+03  0.17402049707E+02  0.10137099657E+04  0.10270419626E+04  0.12499789576E+03 0.  0.
          5    1    3    3  502    0  0.26111281383E+02 -0.33322844838E+02  0.64171061303E+03  0.64312270359E+03  0.47000000000E+01 0.  1.
         -5    1    3    3    0  502  0.80096030718E+02  0.50724894545E+02  0.37199935267E+03  0.38391925903E+03  0.47000000000E+01 0.  1.
        -11    1    1    2    0    0 -0.48441608952E+02 -0.44251475713E+02  0.17238029791E+03  0.18444443523E+03  0.00000000000E+00 0.  1.
         11    1    1    2    0    0 -0.57765703149E+02  0.26849426006E+02  0.35884441240E+03  0.36445449708E+03  0.00000000000E+00 0. -1.
<mgrwt>
<rscale>  0 0.15780064E+03</rscale>
<asrwt>0</asrwt>
<pdfrwt beam="1">  1        2 0.24006723E+00 0.16494635E+03</pdfrwt>
<pdfrwt beam="2">  1       -2 0.23850950E-02 0.16494635E+03</pdfrwt>
<totfact> 0.74473628E+03</totfact>
</mgrwt>
</event>
<event>
 7    1  0.7800420E-006  0.1317880E+03  0.7546771E-02  0.1238112E+00
          1   -1    0    0  501    0  0.00000000000E+00  0.00000000000E+00  0.11956014368E+03  0.11956014368E+03  0.00000000000E+00 0. -1.
         -1   -1    0    0    0  501 -0.00000000000E+00 -0.00000000000E+00 -0.20068034198E+03  0.20068034198E+03  0.00000000000E+00 0.  1.
         23    2    1    2    0    0  0.17483135849E+02  0.37926173673E+02  0.61892627282E+02  0.14559802952E+03  0.12499613674E+03 0.  0.
          5    1    3    3  502    0 -0.19610725864E+02 -0.77561694226E+01  0.80777918419E+02  0.83617586889E+02  0.47000000000E+01 0.  1.
         -5    1    3    3    0  502  0.37093861713E+02  0.45682343095E+02 -0.18885291138E+02  0.61980442632E+02  0.47000000000E+01 0.  1.
        -11    1    1    2    0    0 -0.44999484139E+02 -0.77496348291E+01 -0.11854522299E+03  0.12703535061E+03  0.00000000000E+00 0.  1.
         11    1    1    2    0    0  0.27516348290E+02 -0.30176538844E+02 -0.24467602588E+02  0.47607105522E+02  0.00000000000E+00 0. -1.
<mgrwt>
<rscale>  0 0.12307314E+03</rscale>
<asrwt>0</asrwt>
<pdfrwt beam="1">  1        1 0.18393868E-01 0.13178805E+03</pdfrwt>
<pdfrwt beam="2">  1       -1 0.30873899E-01 0.13178805E+03</pdfrwt>
<totfact> 0.26778544E+03</totfact>
</mgrwt>
</event>
<event>
 7    1  0.7800420E-006  0.1832515E+03  0.7546771E-02  0.1170060E+00
          1   -1    0    0  501    0  0.00000000000E+00  0.00000000000E+00  0.15520924726E+03  0.15520924726E+03  0.00000000000E+00 0. -1.
         -1   -1    0    0    0  501 -0.00000000000E+00 -0.00000000000E+00 -0.22279872881E+03  0.22279872881E+03  0.00000000000E+00 0.  1.
         23    2    1    2    0    0  0.57281797669E+02  0.12114120731E+03  0.34584522989E+02  0.18648646615E+03  0.12499886549E+03 0.  0.
          5    1    3    3  502    0  0.10083309682E+02  0.11698781320E+03 -0.14137009905E+02  0.11836285997E+03  0.47000000000E+01 0.  1.
         -5    1    3    3    0  502  0.47198487987E+02  0.41533941084E+01  0.48721532894E+02  0.68123606176E+02  0.47000000000E+01 0.  1.
        -11    1    1    2    0    0 -0.56374279198E+02 -0.13249377579E+03 -0.75640936699E+02  0.16264750623E+03  0.00000000000E+00 0. -1.
         11    1    1    2    0    0 -0.90751847033E+00  0.11352568481E+02 -0.26533067832E+02  0.28874003696E+02  0.00000000000E+00 0.  1.
<mgrwt>
<rscale>  0 0.17768801E+03</rscale>
<asrwt>0</asrwt>
<pdfrwt beam="1">  1        1 0.23878346E-01 0.18325150E+03</pdfrwt>
<pdfrwt beam="2">  1       -1 0.34276727E-01 0.18325150E+03</pdfrwt>
<totfact> 0.16275622E+03</totfact>
</mgrwt>
</event>
<event>
 7    1  0.7800420E-006  0.1339361E+03  0.7546771E-02  0.1235120E+00
          1   -1    0    0  501    0  0.00000000000E+00  0.00000000000E+00  0.58915429726E+03  0.58915429726E+03  0.00000000000E+00 0. -1.
         -1   -1    0    0    0  501 -0.00000000000E+00 -0.00000000000E+00 -0.23852191309E+02  0.23852191309E+02  0.00000000000E+00 0.  1.
         23    2    1    2    0    0 -0.45908946778E+02 -0.14383345232E+02  0.35673359359E+03  0.38104821075E+03  0.12499748040E+03 0.  0.
          5    1    3    3  502    0 -0.61055392124E+02  0.37260406494E+02  0.13524964284E+03  0.15307075059E+03  0.47000000000E+01 0.  1.
         -5    1    3    3    0  502  0.15146445347E+02 -0.51643751726E+02  0.22148395076E+03  0.22797746016E+03  0.47000000000E+01 0.  1.
        -11    1    1    2    0    0  0.46427452114E+02  0.41410996600E+02  0.18789513685E+03  0.19792665662E+03  0.00000000000E+00 0. -1.
         11    1    1    2    0    0 -0.51850533629E+00 -0.27027651368E+02  0.20673375509E+02  0.34031621196E+02  0.00000000000E+00 0.  1.
<mgrwt>
<rscale>  0 0.12496778E+03</rscale>
<asrwt>0</asrwt>
<pdfrwt beam="1">  1        1 0.90639112E-01 0.13393611E+03</pdfrwt>
<pdfrwt beam="2">  1       -1 0.36695683E-02 0.13393611E+03</pdfrwt>
<totfact> 0.96339282E+03</totfact>
</mgrwt>
</event>
<event>
 7    1  0.7800420E-006  0.1261975E+03  0.7546771E-02  0.1246844E+00
         -1   -1    0    0    0  501 -0.00000000000E+00  0.00000000000E+00  0.60911013046E+02  0.60911013046E+02  0.00000000000E+00 0.  1.
          1   -1    0    0  501    0  0.00000000000E+00 -0.00000000000E+00 -0.22741605995E+03  0.22741605995E+03  0.00000000000E+00 0. -1.
         23    2    1    2    0    0 -0.15136505143E+02 -0.84932388379E+01 -0.14117534032E+03  0.18935753818E+03  0.12499820660E+03 0.  0.
          5    1    3    3  502    0 -0.38419984923E+02  0.47628332210E+02 -0.47515736410E+02  0.77616934217E+02  0.47000000000E+01 0. -1.
         -5    1    3    3    0  502  0.23283479780E+02 -0.56121571048E+02 -0.93659603915E+02  0.11174060396E+03  0.47000000000E+01 0. -1.
        -11    1    1    2    0    0  0.13319007945E+01  0.49235092886E+02 -0.40803754765E+00  0.49254794953E+02  0.00000000000E+00 0.  1.
         11    1    1    2    0    0  0.13804604348E+02 -0.40741854048E+02 -0.24921669027E+02  0.49714739863E+02  0.00000000000E+00 0. -1.
<mgrwt>
<rscale>  0 0.11775670E+03</rscale>
<asrwt>0</asrwt>
<pdfrwt beam="2">  1        1 0.34987087E-01 0.12619747E+03</pdfrwt>
<pdfrwt beam="1">  1       -1 0.93709249E-02 0.12619747E+03</pdfrwt>
<totfact> 0.79182485E+03</totfact>
</mgrwt>
</event>
<event>
 7    1  0.7800420E-006  0.1309487E+03  0.7546771E-02  0.1239506E+00
         -2   -1    0    0    0  501 -0.00000000000E+00  0.00000000000E+00  0.34647074054E+02  0.34647074054E+02  0.00000000000E+00 0.  1.
          2   -1    0    0  501    0  0.00000000000E+00 -0.00000000000E+00 -0.53353829585E+03  0.53353829585E+03  0.00000000000E+00 0. -1.
         23    2    1    2    0    0 -0.38688361032E+02  0.50961805267E+01 -0.42410142327E+03  0.44385761420E+03  0.12499921648E+03 0.  0.
          5    1    3    3  502    0 -0.28503408442E+02  0.34312626268E+02 -0.40439359347E+03  0.40687352956E+03  0.47000000000E+01 0.  1.
         -5    1    3    3    0  502 -0.10184952590E+02 -0.29216445741E+02 -0.19707829803E+02  0.36984084638E+02  0.47000000000E+01 0.  1.
        -11    1    1    2    0    0  0.49214659794E+02 -0.29689403606E+02 -0.15882083339E+02  0.59630394903E+02  0.00000000000E+00 0.  1.
         11    1    1    2    0    0 -0.10526298761E+02  0.24593223079E+02 -0.58907715180E+02  0.64697360802E+02  0.00000000000E+00 0. -1.
<mgrwt>
<rscale>  0 0.12220300E+03</rscale>
<asrwt>0</asrwt>
<pdfrwt beam="2">  1        2 0.82082807E-01 0.13094871E+03</pdfrwt>
<pdfrwt beam="1">  1       -2 0.53303196E-02 0.13094871E+03</pdfrwt>
<totfact> 0.97641640E+03</totfact>
</mgrwt>
</event>
<event>
 7    1  0.7800420E-006  0.1384111E+03  0.7546771E-02  0.1226468E+00
          2   -1    0    0  501    0  0.00000000000E+00  0.00000000000E+00  0.95178304104E+03  0.95178304104E+03  0.00000000000E+00 0. -1.
         -2   -1    0    0    0  501 -0.00000000000E+00 -0.00000000000E+00 -0.16224693503E+02  0.16224693503E+02  0.00000000000E+00 0.  1.
         23    2    1    2    0    0 -0.27143597034E+02 -0.52883366172E+02  0.50290516089E+03  0.52160447294E+03  0.12499680018E+03 0.  0.
          5    1    3    3  502    0  0.37364026182E+02 -0.43366468900E+02  0.35874283822E+03  0.36331148489E+03  0.47000000000E+01 0.  1.
         -5    1    3    3    0  502 -0.64507623216E+02 -0.95168972720E+01  0.14416232268E+03  0.15829298805E+03  0.47000000000E+01 0.  1.
        -11    1    1    2    0    0  0.54883656231E+02  0.13529503092E+02  0.30007907087E+03  0.30535669625E+03  0.00000000000E+00 0. -1.
         11    1    1    2    0    0 -0.27740059197E+02  0.39353863080E+02  0.13257411578E+03  0.14104656535E+03  0.00000000000E+00 0.  1.
<mgrwt>
<rscale>  0 0.13066773E+03</rscale>
<asrwt>0</asrwt>
<pdfrwt beam="1">  1        2 0.14642812E+00 0.13841107E+03</pdfrwt>
<pdfrwt beam="2">  1       -2 0.24961074E-02 0.13841107E+03</pdfrwt>
<totfact> 0.15018395E+04</totfact>
</mgrwt>
</event>
<event>
 7    1  0.7800420E-006  0.1882514E+03  0.7546771E-02  0.1164938E+00
         -1   -1    0    0    0  501 -0.00000000000E+00  0.00000000000E+00  0.36559986055E+02  0.36559986055E+02  0.00000000000E+00 0.  1.
          1   -1    0    0  501    0  0.00000000000E+00 -0.00000000000E+00 -0.12047506805E+04  0.12047506805E+04  0.00000000000E+00 0. -1.
         23    2    1    2    0    0 -0.99625405365E+01 -0.14043652548E+03 -0.93556004284E+03  0.95431188791E+03  0.12496765876E+03 0.  0.
          5    1    3    3  502    0 -0.34765005298E+01 -0.16263969557E+03 -0.85561403633E+03  0.87095420419E+03  0.47000000000E+01 0.  1.
         -5    1    3    3    0  502 -0.64860400067E+01  0.22203170096E+02 -0.79946006514E+02  0.83357683718E+02  0.47000000000E+01 0.  1.
        -11    1    1    2    0    0  0.25473087574E+02  0.56661325696E+02 -0.33891923974E+02  0.70767552811E+02  0.00000000000E+00 0.  1.
         11    1    1    2    0    0 -0.15510547037E+02  0.83775199781E+02 -0.19873872763E+03  0.21623122584E+03  0.00000000000E+00 0. -1.
<mgrwt>
<rscale>  0 0.18299255E+03</rscale>
<asrwt>0</asrwt>
<pdfrwt beam="2">  1        1 0.18534623E+00 0.18825139E+03</pdfrwt>
<pdfrwt beam="1">  1       -1 0.56246140E-02 0.18825139E+03</pdfrwt>
<totfact> 0.16740937E+03</totfact>
</mgrwt>
</event>
<event>
 7    1  0.7800420E-006  0.1680169E+03  0.7546771E-02  0.1186523E+00
          1   -1    0    0  501    0  0.00000000000E+00  0.00000000000E+00  0.12560588411E+04  0.12560588411E+04  0.00000000000E+00 0. -1.
         -1   -1    0    0    0  501 -0.00000000000E+00 -0.00000000000E+00 -0.19688129566E+02  0.19688129566E+02  0.00000000000E+00 0.  1.
         23    2    1    2    0    0  0.25075739380E+02  0.10941438909E+03  0.60121261269E+03  0.62424856614E+03  0.12501746049E+03 0.  0.
          5    1    3    3  502    0  0.87465788289E-01  0.92301323980E+02  0.57916646609E+03  0.58649418369E+03  0.47000000000E+01 0. -1.
         -5    1    3    3    0  502  0.24988273591E+02  0.17113065108E+02  0.22046146603E+02  0.37754382454E+02  0.47000000000E+01 0. -1.
        -11    1    1    2    0    0  0.13236625125E+02 -0.10326614518E+02  0.15663764117E+02  0.22960851866E+02  0.00000000000E+00 0.  1.
         11    1    1    2    0    0 -0.38312364504E+02 -0.99087774570E+02  0.61949433470E+03  0.62853755263E+03  0.00000000000E+00 0. -1.
<mgrwt>
<rscale>  0 0.16194032E+03</rscale>
<asrwt>0</asrwt>
<pdfrwt beam="1">  1        1 0.19323976E+00 0.16801686E+03</pdfrwt>
<pdfrwt beam="2">  1       -1 0.30289440E-02 0.16801686E+03</pdfrwt>
<totfact> 0.38533984E+03</totfact>
</mgrwt>
</event>
<event>
 7    1  0.7800420E-006  0.1263314E+03  0.7546771E-02  0.1250041E+00
          2   -1    0    0  501    0  0.00000000000E+00  0.00000000000E+00  0.30927529635E+03  0.30927529635E+03  0.00000000000E+00 0. -1.
         -2   -1    0    0    0  501 -0.00000000000E+00 -0.00000000000E+00 -0.45542250333E+02  0.45542250333E+02  0.00000000000E+00 0.  1.
         23    2    1    2    0    0  0.55441956146E+01 -0.17417474050E+02  0.22349857301E+03  0.25673181690E+03  0.12500202863E+03 0.  0.
          5    1    3    3  502    0  0.47727684703E+02 -0.33110812756E+02  0.48023483854E+02  0.75515579916E+02  0.47000000000E+01 0. -1.
         -5    1    3    3    0  502 -0.42183489089E+02  0.15693338706E+02  0.17547508916E+03  0.18121623698E+03  0.47000000000E+01 0. -1.
        -11    1    1    2    0    0 -0.36446400750E+02  0.28760657764E+02  0.45198547391E+02  0.64795248660E+02  0.00000000000E+00 0. -1.
         11    1    1    2    0    0  0.30902205136E+02 -0.11343183714E+02 -0.49640743855E+01  0.33290481125E+02  0.00000000000E+00 0.  1.
<mgrwt>
<rscale>  0 0.11588659E+03</rscale>
<asrwt>0</asrwt>
<pdfrwt beam="1">  1        2 0.47580813E-01 0.12633136E+03</pdfrwt>
<pdfrwt beam="2">  1       -2 0.70065002E-02 0.12633136E+03</pdfrwt>
<totfact> 0.11551872E+04</totfact>
</mgrwt>
</event>
<event>
 7    1  0.7800420E-006  0.1439007E+03  0.7546771E-02  0.1218048E+00
          1   -1    0    0  501    0  0.00000000000E+00  0.00000000000E+00  0.11603091319E+04  0.11603091319E+04  0.00000000000E+00 0. -1.
         -1   -1    0    0    0  501 -0.00000000000E+00 -0.00000000000E+00 -0.16966853210E+02  0.16966853210E+02  0.00000000000E+00 0.  1.
         23    2    1    2    0    0 -0.52209269362E+02  0.48585522176E+02  0.84062137518E+03  0.85284917814E+03  0.12498425284E+03 0.  0.
          5    1    3    3  502    0 -0.65142690296E+02  0.77742107523E+02  0.74617279291E+03  0.75304935580E+03  0.47000000000E+01 0. -1.
         -5    1    3    3    0  502  0.12933420934E+02 -0.29156585347E+02  0.94448582269E+02  0.99799822339E+02  0.47000000000E+01 0. -1.
        -11    1    1    2    0    0  0.52005045903E+02 -0.63977471641E+02  0.29662545000E+03  0.30787058851E+03  0.00000000000E+00 0. -1.
         11    1    1    2    0    0  0.20422345834E+00  0.15391949465E+02  0.60954534533E+01  0.16556218419E+02  0.00000000000E+00 0.  1.
<mgrwt>
<rscale>  0 0.13654970E+03</rscale>
<asrwt>0</asrwt>
<pdfrwt beam="1">  1        1 0.17850904E+00 0.14390074E+03</pdfrwt>
<pdfrwt beam="2">  1       -1 0.26102860E-02 0.14390074E+03</pdfrwt>
<totfact> 0.55426969E+03</totfact>
</mgrwt>
</event>
<event>
 7    1  0.7800420E-006  0.2340497E+03  0.7546771E-02  0.1127193E+00
         -1   -1    0    0    0  501 -0.00000000000E+00  0.00000000000E+00  0.27618815826E+03  0.27618815826E+03  0.00000000000E+00 0.  1.
          1   -1    0    0  501    0  0.00000000000E+00 -0.00000000000E+00 -0.21487226108E+03  0.21487226108E+03  0.00000000000E+00 0. -1.
         23    2    1    2    0    0  0.19498005157E+03 -0.33705419085E+02 -0.63085475724E+02  0.24240262328E+03  0.12500391489E+03 0.  0.
          5    1    3    3  502    0  0.13719108508E+03  0.22870686815E+02  0.90781366923E+00  0.13916672112E+03  0.47000000000E+01 0. -1.
         -5    1    3    3    0  502  0.57788966484E+02 -0.56576105900E+02 -0.63993289394E+02  0.10323590215E+03  0.47000000000E+01 0. -1.
        -11    1    1    2    0    0 -0.62844630032E+02 -0.23787832735E+02  0.18102820964E+02  0.69591814439E+02  0.00000000000E+00 0. -1.
         11    1    1    2    0    0 -0.13213542154E+03  0.57493251820E+02  0.10629855194E+03  0.17906598162E+03  0.00000000000E+00 0.  1.
<mgrwt>
<rscale>  0 0.22921504E+03</rscale>
<asrwt>0</asrwt>
<pdfrwt beam="2">  1        1 0.33057271E-01 0.23404968E+03</pdfrwt>
<pdfrwt beam="1">  1       -1 0.42490486E-01 0.23404968E+03</pdfrwt>
<totfact> 0.74270521E+02</totfact>
</mgrwt>
</event>
<event>
 7    1  0.7800420E-006  0.1342353E+03  0.7546771E-02  0.1229278E+00
         -3   -1    0    0    0  501 -0.00000000000E+00  0.00000000000E+00  0.11341971281E+02  0.11341971281E+02  0.00000000000E+00 0.  1.
          3   -1    0    0  501    0  0.00000000000E+00 -0.00000000000E+00 -0.26919021328E+04  0.26919021328E+04  0.00000000000E+00 0. -1.
         23    2    1    2    0    0  0.42091148443E+02 -0.53063151025E+02 -0.23470061243E+04  0.23508417330E+04  0.11589539796E+03 0.  0.
          5    1    3    3  502    0 -0.23174996916E+02  0.22994703790E+02 -0.46997298463E+03  0.47112899843E+03  0.47000000000E+01 0. -1.
         -5    1    3    3    0  502  0.65266145360E+02 -0.76057854816E+02 -0.18770331397E+04  0.18797127345E+04  0.47000000000E+01 0.  1.
        -11    1    1    2    0    0 -0.34000274229E+02  0.79076181964E+02 -0.26522460750E+03  0.27884252478E+03  0.00000000000E+00 0. -1.
         11    1    1    2    0    0 -0.80908742141E+01 -0.26013030939E+02 -0.68329429700E+02  0.73559846297E+02  0.00000000000E+00 0.  1.
<mgrwt>
<rscale>  0 0.12877933E+03</rscale>
<asrwt>0</asrwt>
<pdfrwt beam="2">  1        3 0.41413930E+00 0.13423526E+03</pdfrwt>
<pdfrwt beam="1">  1       -3 0.17449165E-02 0.13423526E+03</pdfrwt>
<totfact> 0.33077606E+01</totfact>
</mgrwt>
</event>
<event>
 6    1  0.7800420E-006  0.1512763E+03  0.7546771E-02  0.1213036E+00
         -1   -1    0    0    0  501 -0.00000000000E+00  0.00000000000E+00  0.36543519980E+03  0.36543519980E+03  0.00000000000E+00 0.  1.
          1   -1    0    0  501    0  0.00000000000E+00 -0.00000000000E+00 -0.55813504774E+02  0.55813504774E+02  0.00000000000E+00 0. -1.
          5    1    1    2  502    0  0.80021403423E+02  0.83443582435E+01  0.21166615596E+02  0.83325679932E+02  0.47000000000E+01 0. -1.
         -5    1    1    2    0  502 -0.33535353627E+02 -0.50716383131E+02  0.71930715356E+02  0.94302117009E+02  0.47000000000E+01 0.  1.
        -11    1    1    2    0    0  0.10879469599E+02  0.51341261561E+02  0.12007748224E+03  0.13104537282E+03  0.00000000000E+00 0.  1.
         11    1    1    2    0    0 -0.57365519396E+02 -0.89692366741E+01  0.96446881839E+02  0.11257553481E+03  0.00000000000E+00 0. -1.
<mgrwt>
<rscale>  0 0.14021817E+03</rscale>
<asrwt>0</asrwt>
<pdfrwt beam="2">  1        1 0.85866933E-02 0.15127631E+03</pdfrwt>
<pdfrwt beam="1">  1       -1 0.56220799E-01 0.15127631E+03</pdfrwt>
<totfact> 0.25284210E+03</totfact>
</mgrwt>
</event>
<event>
 7    1  0.7800420E-006  0.1291946E+03  0.7546771E-02  0.1242354E+00
         -2   -1    0    0    0  501 -0.00000000000E+00  0.00000000000E+00  0.16717331020E+03  0.16717331020E+03  0.00000000000E+00 0.  1.
          2   -1    0    0  501    0  0.00000000000E+00 -0.00000000000E+00 -0.89255721888E+02  0.89255721888E+02  0.00000000000E+00 0. -1.
         23    2    1    2    0    0  0.28549470945E+02  0.15857470612E+02 -0.36112732976E+01  0.12924509978E+03  0.12499889142E+03 0.  0.
          5    1    3    3  502    0  0.72249523385E+02  0.19730832911E+02 -0.26443213601E+02  0.79565274727E+02  0.47000000000E+01 0.  1.
         -5    1    3    3    0  502 -0.43700052440E+02 -0.38733622995E+01  0.22831940304E+02  0.49679825048E+02  0.47000000000E+01 0.  1.
        -11    1    1    2    0    0 -0.50715078964E+02 -0.20773695864E+00  0.85847516568E+02  0.99708868662E+02  0.00000000000E+00 0.  1.
         11    1    1    2    0    0  0.22165608019E+02 -0.15649733653E+02 -0.43186549533E+01  0.27475063655E+02  0.00000000000E+00 0. -1.
<mgrwt>
<rscale>  0 0.12045175E+03</rscale>
<asrwt>0</asrwt>
<pdfrwt beam="2">  1        2 0.13731650E-01 0.12919464E+03</pdfrwt>
<pdfrwt beam="1">  1       -2 0.25718971E-01 0.12919464E+03</pdfrwt>
<totfact> 0.55471392E+03</totfact>
</mgrwt>
</event>
<event>
 7    1  0.7800420E-006  0.1433830E+03  0.7546771E-02  0.1219640E+00
          1   -1    0    0  501    0  0.00000000000E+00  0.00000000000E+00  0.31272186340E+02  0.31272186340E+02  0.00000000000E+00 0. -1.
         -1   -1    0    0    0  501 -0.00000000000E+00 -0.00000000000E+00 -0.75201808872E+03  0.75201808872E+03  0.00000000000E+00 0.  1.
         23    2    1    2    0    0 -0.34832583775E+02  0.60998711819E+02 -0.17738896161E+03  0.22809106329E+03  0.12499815084E+03 0.  0.
          5    1    3    3  502    0 -0.40740993452E+02  0.66975105085E+02 -0.36030006676E+02  0.86404540562E+02  0.47000000000E+01 0.  1.
         -5    1    3    3    0  502  0.59084096776E+01 -0.59763932661E+01 -0.14135895494E+03  0.14168652273E+03  0.47000000000E+01 0.  1.
        -11    1    1    2    0    0  0.13170876049E+02  0.23210749867E+02 -0.14888555612E+03  0.15125845334E+03  0.00000000000E+00 0.  1.
         11    1    1    2    0    0  0.21661707726E+02 -0.84209461686E+02 -0.39447138465E+03  0.40394075844E+03  0.00000000000E+00 0. -1.
<mgrwt>
<rscale>  0 0.13541147E+03</rscale>
<asrwt>0</asrwt>
<pdfrwt beam="1">  1        1 0.48111052E-02 0.14338302E+03</pdfrwt>
<pdfrwt beam="2">  1       -1 0.11569510E+00 0.14338302E+03</pdfrwt>
<totfact> 0.12427680E+03</totfact>
</mgrwt>
</event>
<event>
 7    1  0.7800420E-006  0.1302695E+03  0.7546771E-02  0.1240271E+00
         -2   -1    0    0    0  501 -0.00000000000E+00  0.00000000000E+00  0.19199786748E+02  0.19199786748E+02  0.00000000000E+00 0.  1.
          2   -1    0    0  501    0  0.00000000000E+00 -0.00000000000E+00 -0.68692097431E+03  0.68692097431E+03  0.00000000000E+00 0. -1.
         23    2    1    2    0    0  0.34106047086E+02  0.13441394988E+02 -0.38867474767E+03  0.40992463927E+03  0.12500502735E+03 0.  0.
          5    1    3    3  502    0 -0.26940422112E+02 -0.87526916269E+01 -0.18710392874E+02  0.34271923724E+02  0.47000000000E+01 0. -1.
         -5    1    3    3    0  502  0.61046469198E+02  0.22194086615E+02 -0.36996435479E+03  0.37565271555E+03  0.47000000000E+01 0. -1.
        -11    1    1    2    0    0  0.17588012271E+02 -0.34434288974E+02 -0.71550390140E+02  0.81329679466E+02  0.00000000000E+00 0.  1.
         11    1    1    2    0    0 -0.51694059357E+02  0.20992893986E+02 -0.20749604976E+03  0.21486644232E+03  0.00000000000E+00 0. -1.
<mgrwt>
<rscale>  0 0.12172941E+03</rscale>
<asrwt>0</asrwt>
<pdfrwt beam="2">  1        2 0.10568014E+00 0.13026953E+03</pdfrwt>
<pdfrwt beam="1">  1       -2 0.29538137E-02 0.13026953E+03</pdfrwt>
<totfact> 0.17579298E+04</totfact>
</mgrwt>
</event>
<event>
 7    1  0.7800420E-006  0.2183692E+03  0.7546771E-02  0.1138412E+00
          1   -1    0    0  501    0  0.00000000000E+00  0.00000000000E+00  0.56415092301E+03  0.56415092301E+03  0.00000000000E+00 0. -1.
         -1   -1    0    0    0  501 -0.00000000000E+00 -0.00000000000E+00 -0.84985439843E+02  0.84985439843E+02  0.00000000000E+00 0.  1.
         23    2    1    2    0    0  0.17669038308E+03  0.28997863544E+02  0.34050186422E+03  0.40450785591E+03  0.12499887356E+03 0.  0.
          5    1    3    3  502    0  0.11841961320E+03 -0.42316720192E+02  0.20715094048E+03  0.24237885993E+03  0.47000000000E+01 0. -1.
         -5    1    3    3    0  502  0.58270769880E+02  0.71314583736E+02  0.13335092374E+03  0.16212899598E+03  0.47000000000E+01 0. -1.
        -11    1    1    2    0    0 -0.85997947186E+02  0.14324207549E+02  0.10951286302E+03  0.13997820191E+03  0.00000000000E+00 0. -1.
         11    1    1    2    0    0 -0.90692435895E+02 -0.43322071093E+02  0.29150755918E+02  0.10465030503E+03  0.00000000000E+00 0.  1.
<mgrwt>
<rscale>  0 0.21403261E+03</rscale>
<asrwt>0</asrwt>
<pdfrwt beam="1">  1        1 0.86792447E-01 0.21836915E+03</pdfrwt>
<pdfrwt beam="2">  1       -1 0.13074683E-01 0.21836915E+03</pdfrwt>
<totfact> 0.15284066E+03</totfact>
</mgrwt>
</event>
<event>
 7    1  0.7800420E-006  0.1890603E+03  0.7546771E-02  0.1164355E+00
          2   -1    0    0  501    0  0.00000000000E+00  0.00000000000E+00  0.33126135206E+03  0.33126135206E+03  0.00000000000E+00 0. -1.
         -2   -1    0    0    0  501 -0.00000000000E+00 -0.00000000000E+00 -0.10373677147E+03  0.10373677147E+03  0.00000000000E+00 0.  1.
         23    2    1    2    0    0 -0.26607348609E+02 -0.13932305734E+03  0.17802166124E+03  0.25968349286E+03  0.12499975714E+03 0.  0.
          5    1    3    3  502    0 -0.17664897965E+02 -0.15552824989E+03  0.11626092551E+03  0.19503788846E+03  0.47000000000E+01 0. -1.
         -5    1    3    3    0  502 -0.89424506443E+01  0.16205192555E+02  0.61760735735E+02  0.64645604397E+02  0.47000000000E+01 0. -1.
        -11    1    1    2    0    0  0.36928768399E+02  0.67618279698E+02  0.65500971914E+02  0.10112538260E+03  0.00000000000E+00 0. -1.
         11    1    1    2    0    0 -0.10321419790E+02  0.71704777641E+02 -0.15998052564E+02  0.74189248068E+02  0.00000000000E+00 0.  1.
<mgrwt>
<rscale>  0 0.18360910E+03</rscale>
<asrwt>0</asrwt>
<pdfrwt beam="1">  1        2 0.50963285E-01 0.18906032E+03</pdfrwt>
<pdfrwt beam="2">  1       -2 0.15959503E-01 0.18906032E+03</pdfrwt>
<totfact> 0.29777827E+03</totfact>
</mgrwt>
</event>
<event>
 7    1  0.7800420E-006  0.1132668E+03  0.7546771E-02  0.1263769E+00
          2   -1    0    0  501    0  0.00000000000E+00  0.00000000000E+00  0.26084508771E+03  0.26084508771E+03  0.00000000000E+00 0. -1.
         -2   -1    0    0    0  501 -0.00000000000E+00 -0.00000000000E+00 -0.71509733175E+02  0.71509733175E+02  0.00000000000E+00 0.  1.
         23    2    1    2    0    0  0.23701866900E+02 -0.62123902729E-01  0.20711632456E+03  0.23606469302E+03  0.11075913072E+03 0.  0.
          5    1    3    3  502    0  0.43530169178E+02  0.28076751826E+01  0.21066250973E+03  0.21518257754E+03  0.47000000000E+01 0. -1.
         -5    1    3    3    0  502 -0.19828302278E+02 -0.28697990853E+01 -0.35461851669E+01  0.20882115488E+02  0.47000000000E+01 0.  1.
        -11    1    1    2    0    0 -0.28331714821E+02  0.41697661419E+02 -0.20245543158E+02  0.54325528532E+02  0.00000000000E+00 0.  1.
         11    1    1    2    0    0  0.46298479216E+01 -0.41635537516E+02  0.24645731271E+01  0.41964599328E+02  0.00000000000E+00 0. -1.
<mgrwt>
<rscale>  0 0.10829015E+03</rscale>
<asrwt>0</asrwt>
<pdfrwt beam="1">  1        2 0.40130013E-01 0.11326680E+03</pdfrwt>
<pdfrwt beam="2">  1       -2 0.11001498E-01 0.11326680E+03</pdfrwt>
<totfact> 0.68120678E+03</totfact>
</mgrwt>
</event>
<event>
 7    1  0.7800420E-006  0.1309594E+03  0.7546771E-02  0.1238402E+00
         -1   -1    0    0    0  501 -0.00000000000E+00  0.00000000000E+00  0.52760613693E+02  0.52760613693E+02  0.00000000000E+00 0.  1.
          1   -1    0    0  501    0  0.00000000000E+00 -0.00000000000E+00 -0.25637395491E+03  0.25637395491E+03  0.00000000000E+00 0. -1.
         23    2    1    2    0    0  0.38024198636E+02 -0.89140605357E+01 -0.11023762472E+03  0.17118030815E+03  0.12500025535E+03 0.  0.
          5    1    3    3  502    0  0.51699896109E+02  0.48841969958E+02 -0.56073197036E+02  0.90690190831E+02  0.47000000000E+01 0. -1.
         -5    1    3    3    0  502 -0.13675697473E+02 -0.57756030493E+02 -0.54164427688E+02  0.80490117322E+02  0.47000000000E+01 0. -1.
        -11    1    1    2    0    0 -0.31975335068E+02 -0.22422209578E+02  0.23340510200E+00  0.39054218889E+02  0.00000000000E+00 0.  1.
         11    1    1    2    0    0 -0.60488635674E+01  0.31336270114E+02 -0.93609121598E+02  0.98900041565E+02  0.00000000000E+00 0. -1.
<mgrwt>
<rscale>  0 0.12289161E+03</rscale>
<asrwt>0</asrwt>
<pdfrwt beam="2">  1        1 0.39442147E-01 0.13095940E+03</pdfrwt>
<pdfrwt beam="1">  1       -1 0.81170175E-02 0.13095940E+03</pdfrwt>
<totfact> 0.85097146E+03</totfact>
</mgrwt>
</event>
<event>
 7    1  0.7800420E-006  0.1295896E+03  0.7546771E-02  0.1234613E+00
         -1   -1    0    0    0  501 -0.00000000000E+00  0.00000000000E+00  0.49303564327E+02  0.49303564327E+02  0.00000000000E+00 0. -1.
          1   -1    0    0  501    0  0.00000000000E+00 -0.00000000000E+00 -0.57519408518E+03  0.57519408518E+03  0.00000000000E+00 0.  1.
         23    2    1    2    0    0  0.29383889550E+02  0.17453622004E+02 -0.48827135681E+03  0.50517558888E+03  0.12500166335E+03 0.  0.
          5    1    3    3  502    0  0.38206941693E+02  0.67557380988E+02 -0.32051358056E+03  0.32981027188E+03  0.47000000000E+01 0. -1.
         -5    1    3    3    0  502 -0.88230521435E+01 -0.50103758984E+02 -0.16775777625E+03  0.17536531700E+03  0.47000000000E+01 0. -1.
        -11    1    1    2    0    0 -0.34086694099E+02 -0.73006885092E+01 -0.73709464616E+02  0.81537034171E+02  0.00000000000E+00 0.  1.
         11    1    1    2    0    0  0.47028045496E+01 -0.10152933494E+02  0.36090300568E+02  0.37785026456E+02  0.00000000000E+00 0. -1.
<mgrwt>
<rscale>  0 0.12529229E+03</rscale>
<asrwt>0</asrwt>
<pdfrwt beam="2">  1        1 0.88491398E-01 0.12958957E+03</pdfrwt>
<pdfrwt beam="1">  1       -1 0.75851637E-02 0.12958957E+03</pdfrwt>
<totfact> 0.33866858E+03</totfact>
</mgrwt>
</event>
<event>
 7    1  0.7800420E-006  0.1364000E+03  0.7546771E-02  0.1227641E+00
          2   -1    0    0  501    0  0.00000000000E+00  0.00000000000E+00  0.11433849114E+04  0.11433849114E+04  0.00000000000E+00 0. -1.
         -2   -1    0    0    0  501 -0.00000000000E+00 -0.00000000000E+00 -0.22068226999E+02  0.22068226999E+02  0.00000000000E+00 0.  1.
         23    2    1    2    0    0  0.41191803454E+02 -0.35807634172E+02  0.95614277773E+03  0.96582295102E+03  0.12500403983E+03 0.  0.
          5    1    3    3  502    0  0.75984536435E+02 -0.35795174009E+02  0.40938527178E+03  0.41793939155E+03  0.47000000000E+01 0. -1.
         -5    1    3    3    0  502 -0.34792732981E+02 -0.12460162780E-01  0.54675750595E+03  0.54788355947E+03  0.47000000000E+01 0. -1.
        -11    1    1    2    0    0  0.31362675898E+02  0.47541959172E+01  0.33644964510E+02  0.46240712097E+02  0.00000000000E+00 0.  1.
         11    1    1    2    0    0 -0.72554479352E+02  0.31053438255E+02  0.13152894215E+03  0.15338947528E+03  0.00000000000E+00 0. -1.
<mgrwt>
<rscale>  0 0.12987537E+03</rscale>
<asrwt>0</asrwt>
<pdfrwt beam="1">  1        2 0.17590533E+00 0.13640000E+03</pdfrwt>
<pdfrwt beam="2">  1       -2 0.33951127E-02 0.13640000E+03</pdfrwt>
<totfact> 0.73754367E+03</totfact>
</mgrwt>
</event>
<event>
 7    1  0.7800420E-006  0.1463979E+03  0.7546771E-02  0.1214418E+00
          1   -1    0    0  501    0  0.00000000000E+00  0.00000000000E+00  0.14108559409E+03  0.14108559409E+03  0.00000000000E+00 0. -1.
         -1   -1    0    0    0  501 -0.00000000000E+00 -0.00000000000E+00 -0.12544108544E+03  0.12544108544E+03  0.00000000000E+00 0.  1.
         23    2    1    2    0    0 -0.76114374331E+02 -0.36277141258E+01  0.66314702044E+01  0.14654800817E+03  0.12500313601E+03 0.  0.
          5    1    3    3  502    0 -0.10918384278E+03 -0.16494652300E+01  0.18880400161E+02  0.11091614747E+03  0.47000000000E+01 0.  1.
         -5    1    3    3    0  502  0.33069468445E+02 -0.19782488958E+01 -0.12248929957E+02  0.35631860701E+02  0.47000000000E+01 0.  1.
        -11    1    1    2    0    0  0.12922384657E+02 -0.37930487694E+02  0.17781415961E+02  0.43839350765E+02  0.00000000000E+00 0.  1.
         11    1    1    2    0    0  0.63191989674E+02  0.41558201820E+02 -0.87683775172E+01  0.76139320602E+02  0.00000000000E+00 0. -1.
<mgrwt>
<rscale>  0 0.13919380E+03</rscale>
<asrwt>0</asrwt>
<pdfrwt beam="1">  1        1 0.21705476E-01 0.14639789E+03</pdfrwt>
<pdfrwt beam="2">  1       -1 0.19298628E-01 0.14639789E+03</pdfrwt>
<totfact> 0.47162959E+03</totfact>
</mgrwt>
</event>
<event>
 7    1  0.7800420E-006  0.1456242E+03  0.7546771E-02  0.1213756E+00
          2   -1    0    0  501    0  0.00000000000E+00  0.00000000000E+00  0.13527116848E+04  0.13527116848E+04  0.00000000000E+00 0. -1.
         -2   -1    0    0    0  501 -0.00000000000E+00 -0.00000000000E+00 -0.14259217690E+02  0.14259217690E+02  0.00000000000E+00 0.  1.
         23    2    1    2    0    0 -0.42088273252E+02  0.61711154304E+02  0.89213196177E+03  0.90393907354E+03  0.12500688839E+03 0.  0.
          5    1    3    3  502    0  0.11123902094E+01 -0.34227855226E+02  0.34764461822E+03  0.34935891868E+03  0.47000000000E+01 0. -1.
         -5    1    3    3    0  502 -0.43200663461E+02  0.95939009530E+02  0.54448734355E+03  0.55458015486E+03  0.47000000000E+01 0. -1.
        -11    1    1    2    0    0 -0.16443413307E+02 -0.62039652036E+02  0.21132910622E+03  0.22086035272E+03  0.00000000000E+00 0.  1.
         11    1    1    2    0    0  0.58531686558E+02  0.32849773159E+00  0.23499139911E+03  0.24217147623E+03  0.00000000000E+00 0. -1.
<mgrwt>
<rscale>  0 0.13968285E+03</rscale>
<asrwt>0</asrwt>
<pdfrwt beam="1">  1        2 0.20810939E+00 0.14562421E+03</pdfrwt>
<pdfrwt beam="2">  1       -2 0.21937269E-02 0.14562421E+03</pdfrwt>
<totfact> 0.10779732E+04</totfact>
</mgrwt>
</event>
<event>
 7    1  0.7800420E-006  0.1327094E+03  0.7546771E-02  0.1234803E+00
          4   -1    0    0  501    0  0.00000000000E+00  0.00000000000E+00  0.22655739228E+03  0.22655739228E+03  0.00000000000E+00 0. -1.
         -4   -1    0    0    0  501 -0.00000000000E+00 -0.00000000000E+00 -0.62583934478E+02  0.62583934478E+02  0.00000000000E+00 0.  1.
         23    2    1    2    0    0 -0.32443227706E+02 -0.38691844779E+02  0.99943937893E+02  0.16613416968E+03  0.12272795011E+03 0.  0.
          5    1    3    3  502    0  0.37774371964E+02 -0.60529657623E+01  0.75549889589E+02  0.84814016463E+02  0.47000000000E+01 0. -1.
         -5    1    3    3    0  502 -0.70217599670E+02 -0.32638879016E+02  0.24394048304E+02  0.81320153219E+02  0.47000000000E+01 0.  1.
        -11    1    1    2    0    0 -0.30950591105E+02  0.17309057683E+02  0.95414678870E+01  0.36723046947E+02  0.00000000000E+00 0.  1.
         11    1    1    2    0    0  0.63393818811E+02  0.21382787096E+02  0.54488052023E+02  0.86284110129E+02  0.00000000000E+00 0. -1.
<mgrwt>
<rscale>  0 0.12517077E+03</rscale>
<asrwt>0</asrwt>
<pdfrwt beam="1">  1        4 0.34854983E-01 0.13270935E+03</pdfrwt>
<pdfrwt beam="2">  1       -4 0.96282977E-02 0.13270935E+03</pdfrwt>
<totfact> 0.10592390E+03</totfact>
</mgrwt>
</event>
<event>
 7    1  0.7800420E-006  0.1280131E+03  0.7546771E-02  0.1243817E+00
         -2   -1    0    0    0  501 -0.00000000000E+00  0.00000000000E+00  0.53211166318E+02  0.53211166318E+02  0.00000000000E+00 0.  1.
          2   -1    0    0  501    0  0.00000000000E+00 -0.00000000000E+00 -0.24027785284E+03  0.24027785284E+03  0.00000000000E+00 0. -1.
         23    2    1    2    0    0  0.36010310858E+01 -0.27376378571E+02 -0.11767221680E+03  0.17387954730E+03  0.12499965133E+03 0.  0.
          5    1    3    3  502    0 -0.48304586593E+02 -0.13624763879E+02 -0.10790664949E+03  0.11910038741E+03  0.47000000000E+01 0. -1.
         -5    1    3    3    0  502  0.51905617679E+02 -0.13751614692E+02 -0.97655673120E+01  0.54779159889E+02  0.47000000000E+01 0. -1.
        -11    1    1    2    0    0  0.39369447914E+02  0.18968864491E+02 -0.60981302042E+02  0.75023266044E+02  0.00000000000E+00 0. -1.
         11    1    1    2    0    0 -0.42970479000E+02  0.84075140797E+01 -0.84131676741E+01  0.44586205813E+02  0.00000000000E+00 0.  1.
<mgrwt>
<rscale>  0 0.11956492E+03</rscale>
<asrwt>0</asrwt>
<pdfrwt beam="2">  1        2 0.36965823E-01 0.12801307E+03</pdfrwt>
<pdfrwt beam="1">  1       -2 0.81863334E-02 0.12801307E+03</pdfrwt>
<totfact> 0.11897898E+04</totfact>
</mgrwt>
</event>
<event>
 7    1  0.7800420E-006  0.1302118E+03  0.7546771E-02  0.1240998E+00
         -1   -1    0    0    0  501 -0.00000000000E+00  0.00000000000E+00  0.18000778451E+03  0.18000778451E+03  0.00000000000E+00 0.  1.
          1   -1    0    0  501    0  0.00000000000E+00 -0.00000000000E+00 -0.86269253201E+02  0.86269253201E+02  0.00000000000E+00 0. -1.
         23    2    1    2    0    0 -0.54860527502E+01 -0.36064642590E+02 -0.65019744703E+00  0.13021339291E+03  0.12499739884E+03 0.  0.
          5    1    3    3  502    0  0.10169324097E+02 -0.27959358527E+02  0.59860873381E+02  0.67011603800E+02  0.47000000000E+01 0. -1.
         -5    1    3    3    0  502 -0.15655376847E+02 -0.81052840625E+01 -0.60511070828E+02  0.63201789110E+02  0.47000000000E+01 0. -1.
        -11    1    1    2    0    0 -0.32786000661E+02  0.37467164751E+02  0.81781728698E+02  0.95744250077E+02  0.00000000000E+00 0.  1.
         11    1    1    2    0    0  0.38272053411E+02 -0.14025221609E+01  0.12607000060E+02  0.40319394728E+02  0.00000000000E+00 0. -1.
<mgrwt>
<rscale>  0 0.12128153E+03</rscale>
<asrwt>0</asrwt>
<pdfrwt beam="2">  1        1 0.13272193E-01 0.13021177E+03</pdfrwt>
<pdfrwt beam="1">  1       -1 0.27693505E-01 0.13021177E+03</pdfrwt>
<totfact> 0.48894651E+03</totfact>
</mgrwt>
</event>
<event>
 7    1  0.7800420E-006  0.1395084E+03  0.7546771E-02  0.1225123E+00
          3   -1    0    0  501    0  0.00000000000E+00  0.00000000000E+00  0.28910938622E+04  0.28910938622E+04  0.00000000000E+00 0. -1.
         -3   -1    0    0    0  501 -0.00000000000E+00 -0.00000000000E+00 -0.86699133101E+01  0.86699133101E+01  0.00000000000E+00 0.  1.
         23    2    1    2    0    0  0.64347261315E+01 -0.61609247285E+02  0.24322216535E+04  0.24362193593E+04  0.12500195825E+03 0.  0.
          5    1    3    3  502    0  0.25186360223E+02  0.39565209736E+01  0.18214460531E+04  0.18216305391E+04  0.47000000000E+01 0.  1.
         -5    1    3    3    0  502 -0.18751634092E+02 -0.65565768259E+02  0.61077560044E+03  0.61458882014E+03  0.47000000000E+01 0.  1.
        -11    1    1    2    0    0 -0.25830096218E+02 -0.94254102158E+01  0.54434692185E+02  0.60984981279E+02  0.00000000000E+00 0.  1.
         11    1    1    2    0    0  0.19395370087E+02  0.71034657501E+02  0.39576760317E+03  0.40255943495E+03  0.00000000000E+00 0. -1.
<mgrwt>
<rscale>  0 0.13158507E+03</rscale>
<asrwt>0</asrwt>
<pdfrwt beam="1">  1        3 0.44478290E+00 0.13950840E+03</pdfrwt>
<pdfrwt beam="2">  1       -3 0.13338351E-02 0.13950840E+03</pdfrwt>
<totfact> 0.34980802E+01</totfact>
</mgrwt>
</event>
<event>
 7    1  0.7800420E-006  0.1573332E+03  0.7546771E-02  0.1194792E+00
          1   -1    0    0  501    0  0.00000000000E+00  0.00000000000E+00  0.10323461342E+03  0.10323461342E+03  0.00000000000E+00 0. -1.
         -1   -1    0    0    0  501 -0.00000000000E+00 -0.00000000000E+00 -0.50631754548E+03  0.50631754548E+03  0.00000000000E+00 0.  1.
         23    2    1    2    0    0 -0.89272322255E+02 -0.56063489615E+02  0.22793757208E+02  0.15897572229E+03  0.11679495932E+03 0.  0.
          5    1    3    3  502    0 -0.52490462490E+02 -0.47765495283E+02  0.69038641865E+02  0.99122223859E+02  0.47000000000E+01 0. -1.
         -5    1    3    3    0  502 -0.36781859764E+02 -0.82979943315E+01 -0.46244884657E+02  0.59853498433E+02  0.47000000000E+01 0.  1.
        -11    1    1    2    0    0 -0.23320367967E+02  0.11459756071E+02 -0.79491136610E+02  0.83630176198E+02  0.00000000000E+00 0.  1.
         11    1    1    2    0    0  0.11259269022E+03  0.44603733544E+02 -0.34638555266E+03  0.36694626041E+03  0.00000000000E+00 0. -1.
<mgrwt>
<rscale>  0 0.15471872E+03</rscale>
<asrwt>0</asrwt>
<pdfrwt beam="1">  1        1 0.15882248E-01 0.15733317E+03</pdfrwt>
<pdfrwt beam="2">  1       -1 0.77895007E-01 0.15733317E+03</pdfrwt>
<totfact> 0.59506016E+02</totfact>
</mgrwt>
</event>
<event>
 7    1  0.7800420E-006  0.1432264E+03  0.7546771E-02  0.1222045E+00
          1   -1    0    0  501    0  0.00000000000E+00  0.00000000000E+00  0.42864274007E+02  0.42864274007E+02  0.00000000000E+00 0. -1.
         -1   -1    0    0    0  501 -0.00000000000E+00 -0.00000000000E+00 -0.52452602879E+03  0.52452602879E+03  0.00000000000E+00 0.  1.
         23    2    1    2    0    0 -0.44644945295E+02 -0.53810014427E+02 -0.11133147406E+03  0.18140701420E+03  0.12500047556E+03 0.  0.
          5    1    3    3  502    0 -0.37742868238E+02  0.41756807866E+01  0.15823239048E+02  0.41405619266E+02  0.47000000000E+01 0.  1.
         -5    1    3    3    0  502 -0.69020770566E+01 -0.57985695214E+02 -0.12715471311E+03  0.14000139493E+03  0.47000000000E+01 0.  1.
        -11    1    1    2    0    0  0.66366497615E+02  0.26768571378E+02 -0.28558825226E+03  0.29441759160E+03  0.00000000000E+00 0.  1.
         11    1    1    2    0    0 -0.21721552320E+02  0.27041443049E+02 -0.84742028469E+02  0.91565696996E+02  0.00000000000E+00 0. -1.
<mgrwt>
<rscale>  0 0.13371490E+03</rscale>
<asrwt>0</asrwt>
<pdfrwt beam="1">  1        1 0.65945035E-02 0.14322642E+03</pdfrwt>
<pdfrwt beam="2">  1       -1 0.80696315E-01 0.14322642E+03</pdfrwt>
<totfact> 0.17728699E+03</totfact>
</mgrwt>
</event>
<event>
 7    1  0.7800420E-006  0.1287344E+03  0.7546771E-02  0.1244834E+00
         -2   -1    0    0    0  501 -0.00000000000E+00  0.00000000000E+00  0.34013995563E+02  0.34013995563E+02  0.00000000000E+00 0. -1.
          2   -1    0    0  501    0  0.00000000000E+00 -0.00000000000E+00 -0.53472167994E+03  0.53472167994E+03  0.00000000000E+00 0.  1.
         23    2    1    2    0    0  0.12918364329E+02 -0.27910045713E+02 -0.43634360370E+03  0.45493768557E+03  0.12500680971E+03 0.  0.
          5    1    3    3  502    0 -0.47768146498E+02 -0.18563253060E+02 -0.31160481243E+03  0.31582596364E+03  0.47000000000E+01 0. -1.
         -5    1    3    3    0  502  0.60686510827E+02 -0.93467926530E+01 -0.12473879127E+03  0.13911172192E+03  0.47000000000E+01 0. -1.
        -11    1    1    2    0    0  0.14791601418E+02 -0.26840000382E+02 -0.11266236829E+02  0.32651266213E+02  0.00000000000E+00 0. -1.
         11    1    1    2    0    0 -0.27709965747E+02  0.54750046095E+02 -0.53097843846E+02  0.81146723718E+02  0.00000000000E+00 0.  1.
<mgrwt>
<rscale>  0 0.11895319E+03</rscale>
<asrwt>0</asrwt>
<pdfrwt beam="2">  1        2 0.82264868E-01 0.12873444E+03</pdfrwt>
<pdfrwt beam="1">  1       -2 0.52329228E-02 0.12873444E+03</pdfrwt>
<totfact> 0.10002195E+04</totfact>
</mgrwt>
</event>
<event>
 7    1  0.7800420E-006  0.1443807E+03  0.7546771E-02  0.1217950E+00
         -2   -1    0    0    0  501 -0.00000000000E+00  0.00000000000E+00  0.11179236969E+02  0.11179236969E+02  0.00000000000E+00 0.  1.
          2   -1    0    0  501    0  0.00000000000E+00 -0.00000000000E+00 -0.15470102033E+04  0.15470102033E+04  0.00000000000E+00 0. -1.
         23    2    1    2    0    0  0.61104525885E+02 -0.32478450219E+02 -0.96490528911E+03  0.97564747718E+03  0.12671688899E+03 0.  0.
          5    1    3    3  502    0  0.87654882538E+02 -0.59370248273E+02 -0.73773400468E+03  0.74530648492E+03  0.47000000000E+01 0. -1.
         -5    1    3    3    0  502 -0.26550356653E+02  0.26891798054E+02 -0.22717128443E+03  0.23034099225E+03  0.47000000000E+01 0. -1.
        -11    1    1    2    0    0 -0.30868503478E+02  0.64324752321E+02 -0.32675631832E+03  0.33445512379E+03  0.00000000000E+00 0.  1.
         11    1    1    2    0    0 -0.30236022407E+02 -0.31846302102E+02 -0.24416935890E+03  0.24808683930E+03  0.00000000000E+00 0. -1.
<mgrwt>
<rscale>  0 0.13662051E+03</rscale>
<asrwt>0</asrwt>
<pdfrwt beam="2">  1        2 0.23800147E+00 0.14438069E+03</pdfrwt>
<pdfrwt beam="1">  1       -2 0.17198833E-02 0.14438069E+03</pdfrwt>
<totfact> 0.12127142E+04</totfact>
</mgrwt>
</event>
<event>
 6    1  0.7800420E-006  0.2202251E+03  0.7546771E-02  0.1152567E+00
         -2   -1    0    0    0  501 -0.00000000000E+00  0.00000000000E+00  0.92004363735E+02  0.92004363735E+02  0.00000000000E+00 0. -1.
          2   -1    0    0  501    0  0.00000000000E+00 -0.00000000000E+00 -0.36012263475E+03  0.36012263475E+03  0.00000000000E+00 0.  1.
          5    1    1    2  502    0 -0.82842804372E+02 -0.11517596209E+03 -0.15352109886E+03  0.20909148781E+03  0.47000000000E+01 0. -1.
         -5    1    1    2    0  502 -0.13008070314E+02  0.72891992831E+02 -0.41149323427E+02  0.84839904118E+02  0.47000000000E+01 0.  1.
        -11    1    1    2    0    0  0.49410656231E+02  0.69658869718E+02 -0.53156228276E+02  0.10059500825E+03  0.00000000000E+00 0. -1.
         11    1    1    2    0    0  0.46440218455E+02 -0.27374900457E+02 -0.20291620451E+02  0.57600598310E+02  0.00000000000E+00 0.  1.
<mgrwt>
<rscale>  0 0.19668382E+03</rscale>
<asrwt>0</asrwt>
<pdfrwt beam="2">  1        2 0.55403482E-01 0.22022509E+03</pdfrwt>
<pdfrwt beam="1">  1       -2 0.14154518E-01 0.22022509E+03</pdfrwt>
<totfact> 0.33364745E+03</totfact>
</mgrwt>
</event>
<event>
 7    1  0.7800420E-006  0.3317675E+03  0.7546771E-02  0.1070357E+00
          1   -1    0    0  501    0  0.00000000000E+00  0.00000000000E+00  0.36118433944E+03  0.36118433944E+03  0.00000000000E+00 0. -1.
         -1   -1    0    0    0  501 -0.00000000000E+00 -0.00000000000E+00 -0.76186650493E+02  0.76186650493E+02  0.00000000000E+00 0.  1.
         23    2    1    2    0    0  0.73256410818E+02  0.15953985401E+02  0.18935910788E+03  0.23896346455E+03  0.12500253708E+03 0.  0.
          5    1    3    3  502    0  0.44238159366E+02 -0.43051058292E+02  0.14978667863E+03  0.16207574606E+03  0.47000000000E+01 0. -1.
         -5    1    3    3    0  502  0.29018251452E+02  0.59005043694E+02  0.39572429242E+02  0.76887718491E+02  0.47000000000E+01 0. -1.
        -11    1    1    2    0    0 -0.85696828396E+02  0.48780608045E+02  0.87786130431E+02  0.13202234210E+03  0.00000000000E+00 0.  1.
         11    1    1    2    0    0  0.12440417578E+02 -0.64734593446E+02  0.78524506408E+01  0.66385183281E+02  0.00000000000E+00 0. -1.
<mgrwt>
<rscale>  0 0.33176754E+03</rscale>
<asrwt>0</asrwt>
<pdfrwt beam="1">  1        1 0.55566821E-01 0.33176754E+03</pdfrwt>
<pdfrwt beam="2">  1       -1 0.11721023E-01 0.33176754E+03</pdfrwt>
<totfact> 0.32910358E+03</totfact>
</mgrwt>
</event>
<event>
 6    1  0.7800420E-006  0.1771340E+03  0.7546771E-02  0.1179535E+00
          1   -1    0    0  501    0  0.00000000000E+00  0.00000000000E+00  0.39602072932E+03  0.39602072932E+03  0.00000000000E+00 0. -1.
         -1   -1    0    0    0  501 -0.00000000000E+00 -0.00000000000E+00 -0.65445181843E+02  0.65445181843E+02  0.00000000000E+00 0.  1.
          5    1    1    2  502    0  0.12529066159E+02  0.41841623692E+02  0.18440406034E+03  0.18956435962E+03  0.47000000000E+01 0. -1.
         -5    1    1    2    0  502  0.55495658865E+01  0.69249471784E+02  0.50717585724E+01  0.69814753161E+02  0.47000000000E+01 0.  1.
        -11    1    1    2    0    0  0.36985417816E+02 -0.41162993258E+02  0.60783662292E+02  0.82200770961E+02  0.00000000000E+00 0.  1.
         11    1    1    2    0    0 -0.55064049862E+02 -0.69928102218E+02  0.80316066274E+02  0.11988602741E+03  0.00000000000E+00 0. -1.
<mgrwt>
<rscale>  0 0.16839235E+03</rscale>
<asrwt>0</asrwt>
<pdfrwt beam="1">  1        1 0.60926265E-01 0.17713396E+03</pdfrwt>
<pdfrwt beam="2">  1       -1 0.10068490E-01 0.17713396E+03</pdfrwt>
<totfact> 0.36251753E+03</totfact>
</mgrwt>
</event>
<event>
 7    1  0.7800420E-006  0.1295378E+03  0.7546771E-02  0.1241620E+00
          2   -1    0    0  501    0  0.00000000000E+00  0.00000000000E+00  0.41847629230E+03  0.41847629230E+03  0.00000000000E+00 0. -1.
         -2   -1    0    0    0  501 -0.00000000000E+00 -0.00000000000E+00 -0.46636345982E+02  0.46636345982E+02  0.00000000000E+00 0.  1.
         23    2    1    2    0    0  0.19966779786E+02 -0.27496904405E+02  0.33665040009E+03  0.36071255022E+03  0.12500119986E+03 0.  0.
          5    1    3    3  502    0 -0.26278743651E+02  0.34199463304E+02  0.19077983571E+03  0.19565073823E+03  0.47000000000E+01 0. -1.
         -5    1    3    3    0  502  0.46245523437E+02 -0.61696367708E+02  0.14587056437E+03  0.16506181199E+03  0.47000000000E+01 0. -1.
        -11    1    1    2    0    0 -0.13860892828E+01  0.52845579638E+02  0.47087522683E+02  0.70794147521E+02  0.00000000000E+00 0. -1.
         11    1    1    2    0    0 -0.18580690503E+02 -0.25348675234E+02 -0.11897976451E+02  0.33605940536E+02  0.00000000000E+00 0.  1.
<mgrwt>
<rscale>  0 0.12089982E+03</rscale>
<asrwt>0</asrwt>
<pdfrwt beam="1">  1        2 0.64380966E-01 0.12953784E+03</pdfrwt>
<pdfrwt beam="2">  1       -2 0.71748227E-02 0.12953784E+03</pdfrwt>
<totfact> 0.80954853E+03</totfact>
</mgrwt>
</event>
<event>
 7    1  0.7800420E-006  0.2451607E+03  0.7546771E-02  0.1119605E+00
         -1   -1    0    0    0  501 -0.00000000000E+00  0.00000000000E+00  0.14539014056E+03  0.14539014056E+03  0.00000000000E+00 0.  1.
          1   -1    0    0  501    0  0.00000000000E+00 -0.00000000000E+00 -0.38583789139E+03  0.38583789139E+03  0.00000000000E+00 0. -1.
         23    2    1    2    0    0  0.15003816600E+03  0.14821160358E+03 -0.15122511835E+03  0.28805000509E+03  0.12500255324E+03 0.  0.
          5    1    3    3  502    0  0.13803622427E+03  0.61648979777E+02 -0.12630996469E+03  0.19705555841E+03  0.47000000000E+01 0.  1.
         -5    1    3    3    0  502  0.12001941730E+02  0.86562623801E+02 -0.24915153661E+02  0.90994446679E+02  0.47000000000E+01 0.  1.
        -11    1    1    2    0    0 -0.41681183611E+02 -0.15509679771E+02  0.94594743971E+01  0.45468152477E+02  0.00000000000E+00 0.  1.
         11    1    1    2    0    0 -0.10835698239E+03 -0.13270192381E+03 -0.98682106874E+02  0.19770987439E+03  0.00000000000E+00 0. -1.
<mgrwt>
<rscale>  0 0.24028145E+03</rscale>
<asrwt>0</asrwt>
<pdfrwt beam="2">  1        1 0.59359674E-01 0.24516070E+03</pdfrwt>
<pdfrwt beam="1">  1       -1 0.22367715E-01 0.24516070E+03</pdfrwt>
<totfact> 0.10648143E+03</totfact>
</mgrwt>
</event>
<event>
 7    1  0.7800420E-006  0.2243614E+03  0.7546771E-02  0.1133967E+00
         -2   -1    0    0    0  501 -0.00000000000E+00  0.00000000000E+00  0.77492938304E+02  0.77492938304E+02  0.00000000000E+00 0.  1.
          2   -1    0    0  501    0  0.00000000000E+00 -0.00000000000E+00 -0.64496693519E+03  0.64496693519E+03  0.00000000000E+00 0. -1.
         23    2    1    2    0    0 -0.18208919737E+03  0.39455844054E+02 -0.38938787042E+03  0.44940064308E+03  0.12499913976E+03 0.  0.
          5    1    3    3  502    0 -0.15478172583E+03  0.76827140722E+02 -0.26301311484E+03  0.31473446075E+03  0.47000000000E+01 0.  1.
         -5    1    3    3    0  502 -0.27307471539E+02 -0.37371296668E+02 -0.12637475557E+03  0.13466618233E+03  0.47000000000E+01 0.  1.
        -11    1    1    2    0    0  0.16988039215E+02 -0.19894680278E+02  0.40281706896E+01  0.26469188481E+02  0.00000000000E+00 0.  1.
         11    1    1    2    0    0  0.16510115816E+03 -0.19561163776E+02 -0.18211429716E+03  0.24659004194E+03  0.00000000000E+00 0. -1.
<mgrwt>
<rscale>  0 0.21988758E+03</rscale>
<asrwt>0</asrwt>
<pdfrwt beam="2">  1        2 0.99225683E-01 0.22436137E+03</pdfrwt>
<pdfrwt beam="1">  1       -2 0.11921990E-01 0.22436137E+03</pdfrwt>
<totfact> 0.23014451E+03</totfact>
</mgrwt>
</event>
<event>
 7    1  0.7800420E-006  0.1464084E+03  0.7546771E-02  0.1214841E+00
         -2   -1    0    0    0  501 -0.00000000000E+00  0.00000000000E+00  0.32380677893E+02  0.32380677893E+02  0.00000000000E+00 0.  1.
          2   -1    0    0  501    0  0.00000000000E+00 -0.00000000000E+00 -0.57093629867E+03  0.57093629867E+03  0.00000000000E+00 0. -1.
         23    2    1    2    0    0 -0.49087708086E+02 -0.58318241784E+02 -0.36371043298E+03  0.39207230255E+03  0.12499916384E+03 0.  0.
          5    1    3    3  502    0 -0.41343800356E+02 -0.23283874624E+02 -0.35022304066E+03  0.35345398124E+03  0.47000000000E+01 0. -1.
         -5    1    3    3    0  502 -0.77439077301E+01 -0.35034367160E+02 -0.13487392318E+02  0.38618321310E+02  0.47000000000E+01 0. -1.
        -11    1    1    2    0    0  0.75413457200E+02  0.35826611142E+02 -0.11512888158E+03  0.14221601516E+03  0.00000000000E+00 0. -1.
         11    1    1    2    0    0 -0.26325749113E+02  0.22491630642E+02 -0.59716306219E+02  0.69028658858E+02  0.00000000000E+00 0.  1.
<mgrwt>
<rscale>  0 0.13888246E+03</rscale>
<asrwt>0</asrwt>
<pdfrwt beam="2">  1        2 0.87836360E-01 0.14640837E+03</pdfrwt>
<pdfrwt beam="1">  1       -2 0.49816424E-02 0.14640837E+03</pdfrwt>
<totfact> 0.10096034E+04</totfact>
</mgrwt>
</event>
<event>
 7    1  0.7800420E-006  0.1408088E+03  0.7546771E-02  0.1222535E+00
          1   -1    0    0  501    0  0.00000000000E+00  0.00000000000E+00  0.59797602325E+02  0.59797602325E+02  0.00000000000E+00 0. -1.
         -1   -1    0    0    0  501 -0.00000000000E+00 -0.00000000000E+00 -0.31445949553E+03  0.31445949553E+03  0.00000000000E+00 0.  1.
         23    2    1    2    0    0  0.40666172711E+02  0.50467605927E+02 -0.69173225810E+02  0.15688233569E+03  0.12500566080E+03 0.  0.
          5    1    3    3  502    0 -0.40605798927E+02  0.38100203867E+02 -0.13504991146E+02  0.57488531266E+02  0.47000000000E+01 0.  1.
         -5    1    3    3    0  502  0.81271971638E+02  0.12367402060E+02 -0.55668234664E+02  0.99393804426E+02  0.47000000000E+01 0.  1.
        -11    1    1    2    0    0 -0.23899024572E+02 -0.28143036676E+02 -0.18582030409E+03  0.18945284189E+03  0.00000000000E+00 0.  1.
         11    1    1    2    0    0 -0.16767148139E+02 -0.22324569251E+02  0.33163669211E+00  0.27921920275E+02  0.00000000000E+00 0. -1.
<mgrwt>
<rscale>  0 0.13337283E+03</rscale>
<asrwt>0</asrwt>
<pdfrwt beam="1">  1        1 0.91996313E-02 0.14080885E+03</pdfrwt>
<pdfrwt beam="2">  1       -1 0.48378383E-01 0.14080885E+03</pdfrwt>
<totfact> 0.30312201E+03</totfact>
</mgrwt>
</event>
<event>
 7    1  0.7800420E-006  0.2018073E+03  0.7546771E-02  0.1152903E+00
         -2   -1    0    0    0  501 -0.00000000000E+00  0.00000000000E+00  0.50082107917E+02  0.50082107917E+02  0.00000000000E+00 0.  1.
          2   -1    0    0  501    0  0.00000000000E+00 -0.00000000000E+00 -0.74559148617E+03  0.74559148617E+03  0.00000000000E+00 0. -1.
         23    2    1    2    0    0 -0.71884572077E+02 -0.14119375349E+03 -0.30944626500E+03  0.36943632375E+03  0.12499255442E+03 0.  0.
          5    1    3    3  502    0 -0.38529188767E+02 -0.24243167513E+02 -0.20190238603E+03  0.20702389486E+03  0.47000000000E+01 0. -1.
         -5    1    3    3    0  502 -0.33355383310E+02 -0.11695058597E+03 -0.10754387897E+03  0.16241242889E+03  0.47000000000E+01 0. -1.
        -11    1    1    2    0    0  0.30187435672E+02  0.12232870220E+03 -0.21540863790E+03  0.24955254744E+03  0.00000000000E+00 0. -1.
         11    1    1    2    0    0  0.41697136405E+02  0.18865051292E+02 -0.17065447536E+03  0.17668472289E+03  0.00000000000E+00 0.  1.
<mgrwt>
<rscale>  0 0.19629564E+03</rscale>
<asrwt>0</asrwt>
<pdfrwt beam="2">  1        2 0.11470637E+00 0.20180735E+03</pdfrwt>
<pdfrwt beam="1">  1       -2 0.77049405E-02 0.20180735E+03</pdfrwt>
<totfact> 0.38462180E+03</totfact>
</mgrwt>
</event>
<event>
 7    1  0.7800420E-006  0.1594361E+03  0.7546771E-02  0.1196586E+00
          2   -1    0    0  501    0  0.00000000000E+00  0.00000000000E+00  0.11017532002E+03  0.11017532002E+03  0.00000000000E+00 0. -1.
         -2   -1    0    0    0  501 -0.00000000000E+00 -0.00000000000E+00 -0.20383219381E+03  0.20383219381E+03  0.00000000000E+00 0.  1.
         23    2    1    2    0    0  0.32898409687E+02  0.93090330079E+02 -0.76965239342E+02  0.17704099063E+03  0.12518685787E+03 0.  0.
          5    1    3    3  502    0 -0.41173777910E+02  0.58379189723E+02 -0.59899403418E+02  0.93345799637E+02  0.47000000000E+01 0. -1.
         -5    1    3    3    0  502  0.74072187597E+02  0.34711140357E+02 -0.17065835924E+02  0.83695190997E+02  0.47000000000E+01 0. -1.
        -11    1    1    2    0    0  0.26574742952E+02 -0.11836268710E+02  0.13176093986E+02  0.31936243872E+02  0.00000000000E+00 0. -1.
         11    1    1    2    0    0 -0.59473152638E+02 -0.81254061369E+02 -0.29867728434E+02  0.10503027933E+03  0.00000000000E+00 0.  1.
<mgrwt>
<rscale>  0 0.15320794E+03</rscale>
<asrwt>0</asrwt>
<pdfrwt beam="1">  1        2 0.16950049E-01 0.15943608E+03</pdfrwt>
<pdfrwt beam="2">  1       -2 0.31358799E-01 0.15943608E+03</pdfrwt>
<totfact> 0.30832723E+03</totfact>
</mgrwt>
</event>
<event>
 6    1  0.7800420E-006  0.1749350E+03  0.7546771E-02  0.1187618E+00
         -1   -1    0    0    0  501 -0.00000000000E+00  0.00000000000E+00  0.82393156757E+02  0.82393156757E+02  0.00000000000E+00 0.  1.
          1   -1    0    0  501    0  0.00000000000E+00 -0.00000000000E+00 -0.19606995862E+04  0.19606995862E+04  0.00000000000E+00 0. -1.
          5    1    1    2  502    0 -0.85926226380E+02 -0.75285084207E+02 -0.15625042478E+04  0.15666820911E+04  0.47000000000E+01 0. -1.
         -5    1    1    2    0  502  0.51211279916E+02 -0.24567276586E+01 -0.34405418477E+03  0.34788504245E+03  0.47000000000E+01 0.  1.
        -11    1    1    2    0    0 -0.60432371188E+01 -0.19122536941E+02  0.74672168068E+01  0.21399800485E+02  0.00000000000E+00 0. -1.
         11    1    1    2    0    0  0.40758183583E+02  0.96864348807E+02  0.20784786278E+02  0.10712580893E+03  0.00000000000E+00 0.  1.
<mgrwt>
<rscale>  0 0.16095940E+03</rscale>
<asrwt>0</asrwt>
<pdfrwt beam="2">  1        1 0.30164609E+00 0.17493499E+03</pdfrwt>
<pdfrwt beam="1">  1       -1 0.12675870E-01 0.17493499E+03</pdfrwt>
<totfact> 0.15538969E+02</totfact>
</mgrwt>
</event>
<event>
 7    1  0.7800420E-006  0.1457833E+03  0.7546771E-02  0.1215805E+00
          1   -1    0    0  501    0  0.00000000000E+00  0.00000000000E+00  0.12480803211E+03  0.12480803211E+03  0.00000000000E+00 0. -1.
         -1   -1    0    0    0  501 -0.00000000000E+00 -0.00000000000E+00 -0.13917726511E+03  0.13917726511E+03  0.00000000000E+00 0.  1.
         23    2    1    2    0    0 -0.70479536876E+02  0.25714072188E+02 -0.34096700243E+01  0.14582320608E+03  0.12499681178E+03 0.  0.
          5    1    3    3  502    0 -0.17812718319E+02  0.50308262957E+02 -0.48375956697E+02  0.72184052546E+02  0.47000000000E+01 0.  1.
         -5    1    3    3    0  502 -0.52666818558E+02 -0.24594190769E+02  0.44966286672E+02  0.73639153537E+02  0.47000000000E+01 0.  1.
        -11    1    1    2    0    0  0.13841954992E+01 -0.36701177254E+02  0.19812489014E+02  0.41730410134E+02  0.00000000000E+00 0. -1.
         11    1    1    2    0    0  0.69095341377E+02  0.10987105066E+02 -0.30772051989E+02  0.76431681005E+02  0.00000000000E+00 0.  1.
<mgrwt>
<rscale>  0 0.13817562E+03</rscale>
<asrwt>0</asrwt>
<pdfrwt beam="1">  1        1 0.19201236E-01 0.14578334E+03</pdfrwt>
<pdfrwt beam="2">  1       -1 0.21411887E-01 0.14578334E+03</pdfrwt>
<totfact> 0.46613901E+03</totfact>
</mgrwt>
</event>
<event>
 7    1  0.7800420E-006  0.1368410E+03  0.7546771E-02  0.1230053E+00
          2   -1    0    0  501    0  0.00000000000E+00  0.00000000000E+00  0.87467207521E+02  0.87467207521E+02  0.00000000000E+00 0. -1.
         -2   -1    0    0    0  501 -0.00000000000E+00 -0.00000000000E+00 -0.17787084333E+03  0.17787084333E+03  0.00000000000E+00 0.  1.
         23    2    1    2    0    0 -0.55153205931E+02 -0.77353183761E+01 -0.19753160293E+02  0.13825930277E+03  0.12499494465E+03 0.  0.
          5    1    3    3  502    0 -0.48409552860E+01 -0.45974259941E+02 -0.49813835534E+02  0.68121770646E+02  0.47000000000E+01 0. -1.
         -5    1    3    3    0  502 -0.50312250645E+02  0.38238941565E+02  0.30060675242E+02  0.70137532128E+02  0.47000000000E+01 0. -1.
        -11    1    1    2    0    0  0.11905305433E+02  0.40479103606E+02 -0.57398735784E+02  0.71238395516E+02  0.00000000000E+00 0.  1.
         11    1    1    2    0    0  0.43247900498E+02 -0.32743785230E+02 -0.13251739737E+02  0.55840352566E+02  0.00000000000E+00 0. -1.
<mgrwt>
<rscale>  0 0.12826496E+03</rscale>
<asrwt>0</asrwt>
<pdfrwt beam="1">  1        2 0.13456494E-01 0.13684096E+03</pdfrwt>
<pdfrwt beam="2">  1       -2 0.27364745E-01 0.13684096E+03</pdfrwt>
<totfact> 0.51139261E+03</totfact>
</mgrwt>
</event>
<event>
 7    1  0.7800420E-006  0.1953301E+03  0.7546771E-02  0.1158204E+00
          1   -1    0    0  501    0  0.00000000000E+00  0.00000000000E+00  0.22194620110E+04  0.22194620110E+04  0.00000000000E+00 0. -1.
         -1   -1    0    0    0  501 -0.00000000000E+00 -0.00000000000E+00 -0.18206311652E+02  0.18206311652E+02  0.00000000000E+00 0.  1.
         23    2    1    2    0    0  0.84622238885E+02  0.12396581983E+03  0.15785640482E+04  0.15906031256E+04  0.12500160461E+03 0.  0.
          5    1    3    3  502    0  0.56760070477E+02 -0.89883822038E+01  0.57311056024E+03  0.57600373339E+03  0.47000000000E+01 0. -1.
         -5    1    3    3    0  502  0.27862168408E+02  0.13295420204E+03  0.10054534879E+04  0.10145993922E+04  0.47000000000E+01 0. -1.
        -11    1    1    2    0    0 -0.24895291079E+02 -0.10810259194E+03  0.45563590290E+03  0.46894564922E+03  0.00000000000E+00 0. -1.
         11    1    1    2    0    0 -0.59726947806E+02 -0.15863227889E+02  0.16705574822E+03  0.17811954780E+03  0.00000000000E+00 0.  1.
<mgrwt>
<rscale>  0 0.19028598E+03</rscale>
<asrwt>0</asrwt>
<pdfrwt beam="1">  1        1 0.34145548E+00 0.19533010E+03</pdfrwt>
<pdfrwt beam="2">  1       -1 0.28009728E-02 0.19533010E+03</pdfrwt>
<totfact> 0.10214305E+03</totfact>
</mgrwt>
</event>
<event>
 7    1  0.7800420E-006  0.1387554E+03  0.7546771E-02  0.1222812E+00
          2   -1    0    0  501    0  0.00000000000E+00  0.00000000000E+00  0.29897635572E+03  0.29897635572E+03  0.00000000000E+00 0.  1.
         -2   -1    0    0    0  501 -0.00000000000E+00 -0.00000000000E+00 -0.57415590746E+02  0.57415590746E+02  0.00000000000E+00 0. -1.
         23    2    1    2    0    0 -0.13095189735E+02 -0.58796254479E+02  0.16651435248E+03  0.21674889550E+03  0.12499828232E+03 0.  0.
          5    1    3    3  502    0  0.10629747825E+02  0.26478724476E+02  0.92947507285E+00  0.28932132873E+02  0.47000000000E+01 0. -1.
         -5    1    3    3    0  502 -0.23724937560E+02 -0.85274978955E+02  0.16558487741E+03  0.18781676263E+03  0.47000000000E+01 0. -1.
        -11    1    1    2    0    0 -0.70849264394E+00  0.71401510573E+02  0.90578426691E+02  0.11533919133E+03  0.00000000000E+00 0.  1.
         11    1    1    2    0    0  0.13803682379E+02 -0.12605256095E+02 -0.15532014196E+02  0.24303859640E+02  0.00000000000E+00 0. -1.
<mgrwt>
<rscale>  0 0.13318029E+03</rscale>
<asrwt>0</asrwt>
<pdfrwt beam="1">  1        2 0.45996361E-01 0.13875538E+03</pdfrwt>
<pdfrwt beam="2">  1       -2 0.88331680E-02 0.13875538E+03</pdfrwt>
<totfact> 0.84363111E+03</totfact>
</mgrwt>
</event>
<event>
 7    1  0.7800420E-006  0.1262609E+03  0.7546771E-02  0.1248769E+00
          1   -1    0    0  501    0  0.00000000000E+00  0.00000000000E+00  0.27207990569E+03  0.27207990569E+03  0.00000000000E+00 0. -1.
         -1   -1    0    0    0  501 -0.00000000000E+00 -0.00000000000E+00 -0.48216462002E+02  0.48216462002E+02  0.00000000000E+00 0.  1.
         23    2    1    2    0    0 -0.16714168781E+02  0.61799259538E+01  0.17617630412E+03  0.21674848974E+03  0.12499705095E+03 0.  0.
          5    1    3    3  502    0 -0.13501500073E+02  0.59602914421E+02  0.13752084047E+03  0.15056184601E+03  0.47000000000E+01 0. -1.
         -5    1    3    3    0  502 -0.32126687075E+01 -0.53422988467E+02  0.38655463652E+02  0.66186643721E+02  0.47000000000E+01 0. -1.
        -11    1    1    2    0    0  0.16695133098E+02 -0.30552394761E+02  0.64941755056E+02  0.73685872761E+02  0.00000000000E+00 0.  1.
         11    1    1    2    0    0  0.19035682930E-01  0.24372468808E+02 -0.17254615495E+02  0.29862005191E+02  0.00000000000E+00 0. -1.
<mgrwt>
<rscale>  0 0.11662632E+03</rscale>
<asrwt>0</asrwt>
<pdfrwt beam="1">  1        1 0.41858446E-01 0.12626091E+03</pdfrwt>
<pdfrwt beam="2">  1       -1 0.74179174E-02 0.12626091E+03</pdfrwt>
<totfact> 0.90304897E+03</totfact>
</mgrwt>
</event>
<event>
 7    1  0.7800420E-006  0.2007993E+03  0.7546771E-02  0.1153263E+00
          1   -1    0    0  501    0  0.00000000000E+00  0.00000000000E+00  0.51911030817E+02  0.51911030817E+02  0.00000000000E+00 0. -1.
         -1   -1    0    0    0  501 -0.00000000000E+00 -0.00000000000E+00 -0.71295290392E+03  0.71295290392E+03  0.00000000000E+00 0.  1.
         23    2    1    2    0    0 -0.82427523297E+02 -0.13377862981E+03 -0.30660474306E+03  0.36650624424E+03  0.12501735962E+03 0.  0.
          5    1    3    3  502    0  0.23993023595E+02 -0.34296662341E+01 -0.83151154788E+02  0.86738874412E+02  0.47000000000E+01 0. -1.
         -5    1    3    3    0  502 -0.10642054689E+03 -0.13034896358E+03 -0.22345358828E+03  0.27976736983E+03  0.47000000000E+01 0. -1.
        -11    1    1    2    0    0  0.69718419494E+01  0.77945174196E+02 -0.98836643682E+02  0.12606640669E+03  0.00000000000E+00 0. -1.
         11    1    1    2    0    0  0.75455681348E+02  0.55833455614E+02 -0.25560048636E+03  0.27229128381E+03  0.00000000000E+00 0.  1.
<mgrwt>
<rscale>  0 0.19587982E+03</rscale>
<asrwt>0</asrwt>
<pdfrwt beam="1">  1        1 0.79863127E-02 0.20079930E+03</pdfrwt>
<pdfrwt beam="2">  1       -1 0.10968506E+00 0.20079930E+03</pdfrwt>
<totfact> 0.70942371E+02</totfact>
</mgrwt>
</event>
<event>
 6    1  0.7800420E-006  0.2044063E+03  0.7546771E-02  0.1177694E+00
          2   -1    0    0  501    0  0.00000000000E+00  0.00000000000E+00  0.66805481556E+03  0.66805481556E+03  0.00000000000E+00 0. -1.
         -2   -1    0    0    0  501 -0.00000000000E+00 -0.00000000000E+00 -0.34624392997E+02  0.34624392997E+02  0.00000000000E+00 0.  1.
          5    1    1    2  502    0 -0.23027977648E+02  0.79651147048E+02  0.23023759193E+03  0.24475708717E+03  0.47000000000E+01 0. -1.
         -5    1    1    2    0  502  0.23535636816E+02 -0.11630050449E+03  0.23065339576E+03  0.25942785610E+03  0.47000000000E+01 0.  1.
        -11    1    1    2    0    0  0.26687215354E+02 -0.21130259816E+02  0.53591835215E+02  0.63488425284E+02  0.00000000000E+00 0.  1.
         11    1    1    2    0    0 -0.27194874522E+02  0.57779617260E+02  0.11894759966E+03  0.13500584000E+03  0.00000000000E+00 0. -1.
<mgrwt>
<rscale>  0 0.17014717E+03</rscale>
<asrwt>0</asrwt>
<pdfrwt beam="1">  1        2 0.10277765E+00 0.20440635E+03</pdfrwt>
<pdfrwt beam="2">  1       -2 0.53268302E-02 0.20440635E+03</pdfrwt>
<totfact> 0.77516897E+03</totfact>
</mgrwt>
</event>
<event>
 7    1  0.7800420E-006  0.1377761E+03  0.7546771E-02  0.1227625E+00
         -1   -1    0    0    0  501 -0.00000000000E+00  0.00000000000E+00  0.11903341244E+03  0.11903341244E+03  0.00000000000E+00 0.  1.
          1   -1    0    0  501    0  0.00000000000E+00 -0.00000000000E+00 -0.28237902363E+03  0.28237902363E+03  0.00000000000E+00 0. -1.
         23    2    1    2    0    0 -0.37957109842E+02 -0.43775300818E+02 -0.23408213762E+03  0.27161867096E+03  0.12500094444E+03 0.  0.
          5    1    3    3  502    0  0.24739210499E+01 -0.28107425335E+02 -0.22532512674E+03  0.22713355187E+03  0.47000000000E+01 0.  1.
         -5    1    3    3    0  502 -0.40431030892E+02 -0.15667875482E+02 -0.87570108847E+01  0.44485119093E+02  0.47000000000E+01 0.  1.
        -11    1    1    2    0    0  0.18342316369E+02  0.32703348219E+02  0.91671276013E+02  0.99043285488E+02  0.00000000000E+00 0.  1.
         11    1    1    2    0    0  0.19614793472E+02  0.11071952598E+02 -0.20934749575E+02  0.30750479623E+02  0.00000000000E+00 0. -1.
<mgrwt>
<rscale>  0 0.12988592E+03</rscale>
<asrwt>0</asrwt>
<pdfrwt beam="2">  1        1 0.43442927E-01 0.13777611E+03</pdfrwt>
<pdfrwt beam="1">  1       -1 0.18312833E-01 0.13777611E+03</pdfrwt>
<totfact> 0.21522954E+03</totfact>
</mgrwt>
</event>
<event>
 7    1  0.7800420E-006  0.1462496E+03  0.7546771E-02  0.1214370E+00
         -2   -1    0    0    0  501 -0.00000000000E+00  0.00000000000E+00  0.69956555765E+02  0.69956555765E+02  0.00000000000E+00 0.  1.
          2   -1    0    0  501    0  0.00000000000E+00 -0.00000000000E+00 -0.32879698234E+03  0.32879698234E+03  0.00000000000E+00 0. -1.
         23    2    1    2    0    0  0.32850900836E+02  0.68398310079E+02 -0.23421949497E+03  0.27612987078E+03  0.12502569018E+03 0.  0.
          5    1    3    3  502    0 -0.40947194826E+02  0.16412841459E+02 -0.13407331843E+03  0.14122251536E+03  0.47000000000E+01 0. -1.
         -5    1    3    3    0  502  0.73798095662E+02  0.51985468620E+02 -0.10014617654E+03  0.13490735542E+03  0.47000000000E+01 0. -1.
        -11    1    1    2    0    0 -0.29455536880E+02  0.45714037481E+01  0.21033271200E+02  0.36481843189E+02  0.00000000000E+00 0.  1.
         11    1    1    2    0    0 -0.33953639565E+01 -0.72969713827E+02 -0.45654202804E+02  0.86141824140E+02  0.00000000000E+00 0. -1.
<mgrwt>
<rscale>  0 0.13922929E+03</rscale>
<asrwt>0</asrwt>
<pdfrwt beam="2">  1        2 0.50584151E-01 0.14624956E+03</pdfrwt>
<pdfrwt beam="1">  1       -2 0.10762547E-01 0.14624956E+03</pdfrwt>
<totfact> 0.56114038E+03</totfact>
</mgrwt>
</event>
<event>
 7    1  0.7800420E-006  0.1305696E+03  0.7546771E-02  0.1240003E+00
         -2   -1    0    0    0  501 -0.00000000000E+00  0.00000000000E+00  0.77361953861E+02  0.77361953861E+02  0.00000000000E+00 0. -1.
          2   -1    0    0  501    0  0.00000000000E+00 -0.00000000000E+00 -0.17706533325E+03  0.17706533325E+03  0.00000000000E+00 0.  1.
         23    2    1    2    0    0  0.25590074631E+02 -0.27760764860E+02 -0.80547050202E+02  0.15341531357E+03  0.12499167635E+03 0.  0.
          5    1    3    3  502    0  0.51616412519E+02  0.34338770657E+02 -0.29660465060E+02  0.68885690816E+02  0.47000000000E+01 0. -1.
         -5    1    3    3    0  502 -0.26026337888E+02 -0.62099535517E+02 -0.50886585142E+02  0.84529622753E+02  0.47000000000E+01 0. -1.
        -11    1    1    2    0    0  0.26402210271E+02 -0.43146502466E+01 -0.28638629189E+02  0.39190100737E+02  0.00000000000E+00 0.  1.
         11    1    1    2    0    0 -0.51992284902E+02  0.32075415107E+02  0.94823000045E+01  0.61821872804E+02  0.00000000000E+00 0. -1.
<mgrwt>
<rscale>  0 0.12189516E+03</rscale>
<asrwt>0</asrwt>
<pdfrwt beam="2">  1        2 0.27240820E-01 0.13056964E+03</pdfrwt>
<pdfrwt beam="1">  1       -2 0.11901839E-01 0.13056964E+03</pdfrwt>
<totfact> 0.92071833E+03</totfact>
</mgrwt>
</event>
<event>
 7    1  0.7800420E-006  0.1266424E+03  0.7546771E-02  0.1247322E+00
          4   -1    0    0  501    0  0.00000000000E+00  0.00000000000E+00  0.19770950314E+03  0.19770950314E+03  0.00000000000E+00 0. -1.
         -4   -1    0    0    0  501 -0.00000000000E+00 -0.00000000000E+00 -0.67330194953E+02  0.67330194953E+02  0.00000000000E+00 0.  1.
         23    2    1    2    0    0  0.18670542658E+02 -0.80440565624E+01  0.11289716379E+03  0.16965871133E+03  0.12500005093E+03 0.  0.
          5    1    3    3  502    0  0.25737687310E+02 -0.53632455535E+02  0.10752885277E+03  0.12297728657E+03  0.47000000000E+01 0. -1.
         -5    1    3    3    0  502 -0.70671446526E+01  0.45588398972E+02  0.53683110145E+01  0.46681424759E+02  0.47000000000E+01 0. -1.
        -11    1    1    2    0    0 -0.73055657519E+01  0.25185830943E+02  0.50256984591E+02  0.56687404875E+02  0.00000000000E+00 0. -1.
         11    1    1    2    0    0 -0.11364976906E+02 -0.17141774381E+02 -0.32774840194E+02  0.38693581880E+02  0.00000000000E+00 0.  1.
<mgrwt>
<rscale>  0 0.11747484E+03</rscale>
<asrwt>0</asrwt>
<pdfrwt beam="1">  1        4 0.30416846E-01 0.12664244E+03</pdfrwt>
<pdfrwt beam="2">  1       -4 0.10358492E-01 0.12664244E+03</pdfrwt>
<totfact> 0.12023058E+03</totfact>
</mgrwt>
</event>
<event>
 7    1  0.7800420E-006  0.1309856E+03  0.7546771E-02  0.1239786E+00
          2   -1    0    0  501    0  0.00000000000E+00  0.00000000000E+00  0.10166458625E+03  0.10166458625E+03  0.00000000000E+00 0. -1.
         -2   -1    0    0    0  501 -0.00000000000E+00 -0.00000000000E+00 -0.13326054370E+03  0.13326054370E+03  0.00000000000E+00 0.  1.
         23    2    1    2    0    0 -0.25951092884E+02  0.29287750330E+02  0.10614359754E+01  0.13098988808E+03  0.12500397030E+03 0.  0.
          5    1    3    3  502    0 -0.69131849404E+02 -0.11942712078E+02 -0.65602365945E+01  0.70618465559E+02  0.47000000000E+01 0.  1.
         -5    1    3    3    0  502  0.43180756520E+02  0.41230462408E+02  0.76216725699E+01  0.60371422517E+02  0.47000000000E+01 0.  1.
        -11    1    1    2    0    0  0.77632612915E+01 -0.61290551805E+02 -0.18420065938E+02  0.64467812090E+02  0.00000000000E+00 0.  1.
         11    1    1    2    0    0  0.18187831592E+02  0.32002801476E+02 -0.14237327484E+02  0.39467429790E+02  0.00000000000E+00 0. -1.
<mgrwt>
<rscale>  0 0.12202965E+03</rscale>
<asrwt>0</asrwt>
<pdfrwt beam="1">  1        2 0.15640706E-01 0.13098559E+03</pdfrwt>
<pdfrwt beam="2">  1       -2 0.20501622E-01 0.13098559E+03</pdfrwt>
<totfact> 0.70457299E+03</totfact>
</mgrwt>
</event>
<event>
 7    1  0.7800420E-006  0.1459202E+03  0.7546771E-02  0.1215977E+00
         -1   -1    0    0    0  501 -0.00000000000E+00  0.00000000000E+00  0.15683671357E+02  0.15683671357E+02  0.00000000000E+00 0.  1.
          1   -1    0    0  501    0  0.00000000000E+00 -0.00000000000E+00 -0.11418205155E+04  0.11418205155E+04  0.00000000000E+00 0. -1.
         23    2    1    2    0    0 -0.37588601348E+02 -0.65231634227E+02 -0.73177526015E+03  0.74618211297E+03  0.12499858112E+03 0.  0.
          5    1    3    3  502    0 -0.67803531642E+02 -0.64866892624E+02 -0.32634066099E+03  0.33959586228E+03  0.47000000000E+01 0.  1.
         -5    1    3    3    0  502  0.30214930294E+02 -0.36474160283E+00 -0.40543459916E+03  0.40658625068E+03  0.47000000000E+01 0.  1.
        -11    1    1    2    0    0 -0.62375060961E+01  0.72033247605E+02 -0.25709986080E+03  0.26707308675E+03  0.00000000000E+00 0.  1.
         11    1    1    2    0    0  0.43826107444E+02 -0.68016133783E+01 -0.13726172322E+03  0.14424898717E+03  0.00000000000E+00 0. -1.
<mgrwt>
<rscale>  0 0.13805019E+03</rscale>
<asrwt>0</asrwt>
<pdfrwt beam="2">  1        1 0.17566473E+00 0.14592023E+03</pdfrwt>
<pdfrwt beam="1">  1       -1 0.24128720E-02 0.14592023E+03</pdfrwt>
<totfact> 0.64033387E+03</totfact>
</mgrwt>
</event>
<event>
 7    1  0.7800420E-006  0.1436750E+03  0.7546771E-02  0.1218672E+00
          2   -1    0    0  501    0  0.00000000000E+00  0.00000000000E+00  0.21383471365E+03  0.21383471365E+03  0.00000000000E+00 0. -1.
         -2   -1    0    0    0  501 -0.00000000000E+00 -0.00000000000E+00 -0.81024567812E+02  0.81024567812E+02  0.00000000000E+00 0.  1.
         23    2    1    2    0    0  0.46779939146E+02 -0.53202067213E+02  0.98446240571E+02  0.17416706071E+03  0.12499472026E+03 0.  0.
          5    1    3    3  502    0  0.55885218634E+02  0.22986093502E+02  0.18766804716E+02  0.63449201063E+02  0.47000000000E+01 0. -1.
         -5    1    3    3    0  502 -0.91052794877E+01 -0.76188160715E+02  0.79679435855E+02  0.11071785965E+03  0.47000000000E+01 0. -1.
        -11    1    1    2    0    0  0.20187241556E+02 -0.45925919926E+01 -0.85195810105E+01  0.22387493907E+02  0.00000000000E+00 0. -1.
         11    1    1    2    0    0 -0.66967180702E+02  0.57794659205E+02  0.42883486279E+02  0.98304726841E+02  0.00000000000E+00 0.  1.
<mgrwt>
<rscale>  0 0.13610252E+03</rscale>
<asrwt>0</asrwt>
<pdfrwt beam="1">  1        2 0.32897648E-01 0.14367499E+03</pdfrwt>
<pdfrwt beam="2">  1       -2 0.12465318E-01 0.14367499E+03</pdfrwt>
<totfact> 0.70172781E+03</totfact>
</mgrwt>
</event>
<event>
 7    1  0.7800420E-006  0.1268794E+03  0.7546771E-02  0.1246699E+00
         -1   -1    0    0    0  501 -0.00000000000E+00  0.00000000000E+00  0.43806255129E+02  0.43806255129E+02  0.00000000000E+00 0.  1.
          1   -1    0    0  501    0  0.00000000000E+00 -0.00000000000E+00 -0.28163493264E+03  0.28163493264E+03  0.00000000000E+00 0. -1.
         23    2    1    2    0    0 -0.72658671468E+01  0.20558314826E+02 -0.15032250644E+03  0.19671107837E+03  0.12499182084E+03 0.  0.
          5    1    3    3  502    0  0.27199616210E+02 -0.36171593469E+02 -0.18642090847E+02  0.49171341727E+02  0.47000000000E+01 0.  1.
         -5    1    3    3    0  502 -0.34465483357E+02  0.56729908295E+02 -0.13168041559E+03  0.14753973664E+03  0.47000000000E+01 0.  1.
        -11    1    1    2    0    0  0.15344550177E+01  0.15575077350E+02  0.13896401647E+02  0.20929585887E+02  0.00000000000E+00 0.  1.
         11    1    1    2    0    0  0.57314121291E+01 -0.36133392176E+02 -0.10140257271E+03  0.10780052351E+03  0.00000000000E+00 0. -1.
<mgrwt>
<rscale>  0 0.11784284E+03</rscale>
<asrwt>0</asrwt>
<pdfrwt beam="2">  1        1 0.43328451E-01 0.12687944E+03</pdfrwt>
<pdfrwt beam="1">  1       -1 0.67394239E-02 0.12687944E+03</pdfrwt>
<totfact> 0.99947020E+03</totfact>
</mgrwt>
</event>
<event>
 7    1  0.7800420E-006  0.2162404E+03  0.7546771E-02  0.1140253E+00
         -4   -1    0    0    0  501 -0.00000000000E+00  0.00000000000E+00  0.44784474662E+02  0.44784474662E+02  0.00000000000E+00 0. -1.
          4   -1    0    0  501    0  0.00000000000E+00 -0.00000000000E+00 -0.96480212839E+03  0.96480212839E+03  0.00000000000E+00 0.  1.
         23    2    1    2    0    0 -0.16999788325E+03 -0.47275648373E+02 -0.44507497597E+03  0.49482485679E+03  0.12500254967E+03 0.  0.
          5    1    3    3  502    0 -0.12671260925E+03 -0.53066133274E-01 -0.39039495573E+03  0.41047094857E+03  0.47000000000E+01 0.  1.
         -5    1    3    3    0  502 -0.43285273995E+02 -0.47222582240E+02 -0.54680020236E+02  0.84353908215E+02  0.47000000000E+01 0.  1.
        -11    1    1    2    0    0  0.76640181294E+02  0.59121675490E+02 -0.16995800652E+03  0.19558837869E+03  0.00000000000E+00 0. -1.
         11    1    1    2    0    0  0.93357701954E+02 -0.11846027116E+02 -0.30498467124E+03  0.31917336757E+03  0.00000000000E+00 0.  1.
<mgrwt>
<rscale>  0 0.21166653E+03</rscale>
<asrwt>0</asrwt>
<pdfrwt beam="2">  1        4 0.14843110E+00 0.21624039E+03</pdfrwt>
<pdfrwt beam="1">  1       -4 0.68899190E-02 0.21624039E+03</pdfrwt>
<totfact> 0.82851373E+01</totfact>
</mgrwt>
</event>
<event>
 7    1  0.7800420E-006  0.1286955E+03  0.7546771E-02  0.1243466E+00
         -2   -1    0    0    0  501 -0.00000000000E+00  0.00000000000E+00  0.11133306649E+03  0.11133306649E+03  0.00000000000E+00 0. -1.
          2   -1    0    0  501    0  0.00000000000E+00 -0.00000000000E+00 -0.11394612995E+03  0.11394612995E+03  0.00000000000E+00 0.  1.
         23    2    1    2    0    0 -0.66902248163E+01 -0.29895630219E+02 -0.54502654083E+00  0.12869664299E+03  0.12499608413E+03 0.  0.
          5    1    3    3  502    0  0.82868881151E+01 -0.75848813527E+02 -0.15265806918E+02  0.77954152481E+02  0.47000000000E+01 0.  1.
         -5    1    3    3    0  502 -0.14977112931E+02  0.45953183308E+02  0.14720780377E+02  0.50742490506E+02  0.47000000000E+01 0.  1.
        -11    1    1    2    0    0  0.78362730489E+01  0.14765397110E+02 -0.46615395241E+02  0.49521906269E+02  0.00000000000E+00 0.  1.
         11    1    1    2    0    0 -0.11460482326E+01  0.15130233109E+02  0.44547358317E+02  0.47060647185E+02  0.00000000000E+00 0. -1.
<mgrwt>
<rscale>  0 0.11977668E+03</rscale>
<asrwt>0</asrwt>
<pdfrwt beam="2">  1        2 0.17530174E-01 0.12869549E+03</pdfrwt>
<pdfrwt beam="1">  1       -2 0.17128164E-01 0.12869549E+03</pdfrwt>
<totfact> 0.83361994E+03</totfact>
</mgrwt>
</event>
<event>
 7    1  0.7800420E-006  0.1263064E+03  0.7546771E-02  0.1267031E+00
         -1   -1    0    0    0  501 -0.00000000000E+00  0.00000000000E+00  0.13087702546E+02  0.13087702546E+02  0.00000000000E+00 0.  1.
          1   -1    0    0  501    0  0.00000000000E+00 -0.00000000000E+00 -0.78454423994E+03  0.78454423994E+03  0.00000000000E+00 0. -1.
         23    2    1    2    0    0 -0.18260672964E+02  0.71452706938E+00 -0.62729726682E+03  0.63988684366E+03  0.12497739397E+03 0.  0.
          5    1    3    3  502    0 -0.19899552981E+01 -0.34602659912E+02 -0.48665834891E+02  0.59931272978E+02  0.47000000000E+01 0. -1.
         -5    1    3    3    0  502 -0.16270717666E+02  0.35317186982E+02 -0.57863143193E+03  0.57995557068E+03  0.47000000000E+01 0. -1.
        -11    1    1    2    0    0  0.39161413247E+02 -0.95341835799E+01 -0.77888863324E+02  0.87699441127E+02  0.00000000000E+00 0. -1.
         11    1    1    2    0    0 -0.20900740283E+02  0.88196565105E+01 -0.66270407251E+02  0.70045657700E+02  0.00000000000E+00 0.  1.
<mgrwt>
<rscale>  0 0.10658314E+03</rscale>
<asrwt>0</asrwt>
<pdfrwt beam="2">  1        1 0.12069914E+00 0.12630642E+03</pdfrwt>
<pdfrwt beam="1">  1       -1 0.20134923E-02 0.12630642E+03</pdfrwt>
<totfact> 0.15282006E+04</totfact>
</mgrwt>
</event>
<event>
 7    1  0.7800420E-006  0.1209898E+03  0.7546771E-02  0.1255498E+00
         -3   -1    0    0    0  501 -0.00000000000E+00  0.00000000000E+00  0.18869173369E+02  0.18869173369E+02  0.00000000000E+00 0.  1.
          3   -1    0    0  501    0  0.00000000000E+00 -0.00000000000E+00 -0.74548210879E+03  0.74548210879E+03  0.00000000000E+00 0. -1.
         23    2    1    2    0    0 -0.85777588621E+01 -0.22190568495E+02 -0.57290556534E+03  0.58554189918E+03  0.11862769330E+03 0.  0.
          5    1    3    3  502    0  0.40157242675E+01 -0.70319819913E+02 -0.35933405651E+03  0.36620220819E+03  0.47000000000E+01 0. -1.
         -5    1    3    3    0  502 -0.12593483130E+02  0.48129251418E+02 -0.21357150883E+03  0.21933969099E+03  0.47000000000E+01 0.  1.
        -11    1    1    2    0    0  0.38714998435E+02 -0.16157642567E+02 -0.60651029355E+02  0.73745968561E+02  0.00000000000E+00 0. -1.
         11    1    1    2    0    0 -0.30137239573E+02  0.38348211061E+02 -0.93056340727E+02  0.10506341442E+03  0.00000000000E+00 0.  1.
<mgrwt>
<rscale>  0 0.11278512E+03</rscale>
<asrwt>0</asrwt>
<pdfrwt beam="2">  1        3 0.11468957E+00 0.12098979E+03</pdfrwt>
<pdfrwt beam="1">  1       -3 0.29029495E-02 0.12098979E+03</pdfrwt>
<totfact> 0.80391311E+02</totfact>
</mgrwt>
</event>
<event>
 7    1  0.7800420E-006  0.2627204E+03  0.7546771E-02  0.1107738E+00
          1   -1    0    0  501    0  0.00000000000E+00  0.00000000000E+00  0.83528835945E+03  0.83528835945E+03  0.00000000000E+00 0. -1.
         -1   -1    0    0    0  501 -0.00000000000E+00 -0.00000000000E+00 -0.82698011579E+02  0.82698011579E+02  0.00000000000E+00 0.  1.
         23    2    1    2    0    0  0.12422753598E+02  0.23074281410E+03  0.27854903805E+03  0.38289888168E+03  0.12500166371E+03 0.  0.
          5    1    3    3  502    0 -0.84661143072E+01  0.65101523905E+02  0.17356319625E+03  0.18562369623E+03  0.47000000000E+01 0.  1.
         -5    1    3    3    0  502  0.20888867905E+02  0.16564129019E+03  0.10498584179E+03  0.19727518546E+03  0.47000000000E+01 0.  1.
        -11    1    1    2    0    0 -0.48580992989E+02 -0.96901846973E+02  0.23395877298E+03  0.25785032147E+03  0.00000000000E+00 0. -1.
         11    1    1    2    0    0  0.36158239391E+02 -0.13384096713E+03  0.24008253685E+03  0.27723716788E+03  0.00000000000E+00 0.  1.
<mgrwt>
<rscale>  0 0.25901262E+03</rscale>
<asrwt>0</asrwt>
<pdfrwt beam="1">  1        1 0.12850590E+00 0.26272036E+03</pdfrwt>
<pdfrwt beam="2">  1       -1 0.12722772E-01 0.26272036E+03</pdfrwt>
<totfact> 0.90168058E+02</totfact>
</mgrwt>
</event>
<event>
 6    1  0.7800420E-006  0.1579650E+03  0.7546771E-02  0.1206688E+00
         -1   -1    0    0    0  501 -0.00000000000E+00  0.00000000000E+00  0.26878864913E+03  0.26878864913E+03  0.00000000000E+00 0.  1.
          1   -1    0    0  501    0  0.00000000000E+00 -0.00000000000E+00 -0.75415210504E+02  0.75415210504E+02  0.00000000000E+00 0. -1.
          5    1    1    2  502    0 -0.20912218296E+02  0.60219537262E+02  0.13585678597E+02  0.65348100241E+02  0.47000000000E+01 0. -1.
         -5    1    1    2    0  502  0.82759632153E+02 -0.41853250324E+02  0.44339378019E+02  0.10290248646E+03  0.47000000000E+01 0.  1.
        -11    1    1    2    0    0 -0.33955895175E+02 -0.42501609986E+02  0.25686193340E+02  0.60159539533E+02  0.00000000000E+00 0. -1.
         11    1    1    2    0    0 -0.27891518682E+02  0.24135323047E+02  0.10976218867E+03  0.11579373340E+03  0.00000000000E+00 0.  1.
<mgrwt>
<rscale>  0 0.14505217E+03</rscale>
<asrwt>0</asrwt>
<pdfrwt beam="2">  1        1 0.11602340E-01 0.15796502E+03</pdfrwt>
<pdfrwt beam="1">  1       -1 0.41352099E-01 0.15796502E+03</pdfrwt>
<totfact> 0.29687142E+03</totfact>
</mgrwt>
</event>
<event>
 7    1  0.7800420E-006  0.2008325E+03  0.7546771E-02  0.1153343E+00
         -1   -1    0    0    0  501 -0.00000000000E+00  0.00000000000E+00  0.40874119548E+03  0.40874119548E+03  0.00000000000E+00 0.  1.
          1   -1    0    0  501    0  0.00000000000E+00 -0.00000000000E+00 -0.90887639831E+02  0.90887639831E+02  0.00000000000E+00 0. -1.
         23    2    1    2    0    0 -0.15272834636E+03 -0.37181369131E+02  0.19922339179E+03  0.28288450357E+03  0.12500112213E+03 0.  0.
          5    1    3    3  502    0 -0.12886213115E+03 -0.83294646692E+01  0.67344982095E+02  0.14571295564E+03  0.47000000000E+01 0. -1.
         -5    1    3    3    0  502 -0.23866215202E+02 -0.28851904462E+02  0.13187840969E+03  0.13717154793E+03  0.47000000000E+01 0. -1.
        -11    1    1    2    0    0  0.10868347623E+03  0.46556587051E+02  0.12406986140E+03  0.17138536785E+03  0.00000000000E+00 0.  1.
         11    1    1    2    0    0  0.44044870127E+02 -0.93752179206E+01 -0.54396975493E+01  0.45358963888E+02  0.00000000000E+00 0. -1.
<mgrwt>
<rscale>  0 0.19578669E+03</rscale>
<asrwt>0</asrwt>
<pdfrwt beam="2">  1        1 0.13982714E-01 0.20083247E+03</pdfrwt>
<pdfrwt beam="1">  1       -1 0.62883260E-01 0.20083247E+03</pdfrwt>
<totfact> 0.10786990E+03</totfact>
</mgrwt>
</event>
<event>
 7    1  0.7800420E-006  0.1354882E+03  0.7546771E-02  0.1233870E+00
          2   -1    0    0  501    0  0.00000000000E+00  0.00000000000E+00  0.28329053615E+03  0.28329053615E+03  0.00000000000E+00 0. -1.
         -2   -1    0    0    0  501 -0.00000000000E+00 -0.00000000000E+00 -0.52579063565E+02  0.52579063565E+02  0.00000000000E+00 0.  1.
         23    2    1    2    0    0 -0.39581656413E+02  0.34128608048E+02  0.17350419092E+03  0.22013804954E+03  0.12500234867E+03 0.  0.
          5    1    3    3  502    0 -0.80651421514E+02  0.57475545948E+01  0.78921079140E+02  0.11308542306E+03  0.47000000000E+01 0. -1.
         -5    1    3    3    0  502  0.41069765101E+02  0.28381053453E+02  0.94583111785E+02  0.10705262648E+03  0.47000000000E+01 0. -1.
        -11    1    1    2    0    0  0.13276972243E+02  0.18481330085E+01 -0.21468298288E+02  0.25309709973E+02  0.00000000000E+00 0.  1.
         11    1    1    2    0    0  0.26304684170E+02 -0.35976741056E+02  0.78675579952E+02  0.90421840211E+02  0.00000000000E+00 0. -1.
<mgrwt>
<rscale>  0 0.12577077E+03</rscale>
<asrwt>0</asrwt>
<pdfrwt beam="1">  1        2 0.43583158E-01 0.13548822E+03</pdfrwt>
<pdfrwt beam="2">  1       -2 0.80890869E-02 0.13548822E+03</pdfrwt>
<totfact> 0.10220777E+04</totfact>
</mgrwt>
</event>
<event>
 7    1  0.7800420E-006  0.1495243E+03  0.7546771E-02  0.1209927E+00
          1   -1    0    0  501    0  0.00000000000E+00  0.00000000000E+00  0.26023391024E+02  0.26023391024E+02  0.00000000000E+00 0. -1.
         -1   -1    0    0    0  501 -0.00000000000E+00 -0.00000000000E+00 -0.73329417966E+03  0.73329417966E+03  0.00000000000E+00 0.  1.
         23    2    1    2    0    0 -0.97756614290E+01 -0.81472401032E+02 -0.32906531595E+03  0.36144363782E+03  0.12499682184E+03 0.  0.
          5    1    3    3  502    0 -0.56871584636E+02 -0.50930105289E+02 -0.10198095627E+03  0.12747728506E+03  0.47000000000E+01 0.  1.
         -5    1    3    3    0  502  0.47095923207E+02 -0.30542295743E+02 -0.22708435968E+03  0.23396635276E+03  0.47000000000E+01 0.  1.
        -11    1    1    2    0    0 -0.38250951351E+02  0.30401579777E+02 -0.21066923544E+03  0.21626122651E+03  0.00000000000E+00 0.  1.
         11    1    1    2    0    0  0.48026612780E+02  0.51070821256E+02 -0.16753623724E+03  0.18161270635E+03  0.00000000000E+00 0. -1.
<mgrwt>
<rscale>  0 0.14255860E+03</rscale>
<asrwt>0</asrwt>
<pdfrwt beam="1">  1        1 0.40035991E-02 0.14952432E+03</pdfrwt>
<pdfrwt beam="2">  1       -1 0.11281448E+00 0.14952432E+03</pdfrwt>
<totfact> 0.16985744E+03</totfact>
</mgrwt>
</event>
<event>
 7    1  0.7800420E-006  0.1311947E+03  0.7546771E-02  0.1238855E+00
         -1   -1    0    0    0  501 -0.00000000000E+00  0.00000000000E+00  0.33908556368E+03  0.33908556368E+03  0.00000000000E+00 0.  1.
          1   -1    0    0  501    0  0.00000000000E+00 -0.00000000000E+00 -0.43061534226E+02  0.43061534226E+02  0.00000000000E+00 0. -1.
         23    2    1    2    0    0 -0.58761452225E+00 -0.39831254602E+02  0.11125481649E+03  0.17201653961E+03  0.12500072629E+03 0.  0.
          5    1    3    3  502    0 -0.57618596430E+02 -0.12751544545E+02  0.23239368116E+02  0.63597663269E+02  0.47000000000E+01 0.  1.
         -5    1    3    3    0  502  0.57030981907E+02 -0.27079710057E+02  0.88015448377E+02  0.10841887634E+03  0.47000000000E+01 0.  1.
        -11    1    1    2    0    0  0.37486038235E+02 -0.92905620870E+01  0.69320872695E+02  0.79353015050E+02  0.00000000000E+00 0. -1.
         11    1    1    2    0    0 -0.36898423713E+02  0.49121816689E+02  0.11544834027E+03  0.13077754325E+03  0.00000000000E+00 0.  1.
<mgrwt>
<rscale>  0 0.12260824E+03</rscale>
<asrwt>0</asrwt>
<pdfrwt beam="2">  1        1 0.66248516E-02 0.13119472E+03</pdfrwt>
<pdfrwt beam="1">  1       -1 0.52167008E-01 0.13119472E+03</pdfrwt>
<totfact> 0.40874318E+03</totfact>
</mgrwt>
</event>
<event>
 6    1  0.7800420E-006  0.1619806E+03  0.7546771E-02  0.1203817E+00
          1   -1    0    0  501    0  0.00000000000E+00  0.00000000000E+00  0.35149523394E+03  0.35149523394E+03  0.00000000000E+00 0. -1.
         -1   -1    0    0    0  501 -0.00000000000E+00 -0.00000000000E+00 -0.10539583376E+03  0.10539583376E+03  0.00000000000E+00 0.  1.
          5    1    1    2  502    0  0.54156139034E+02  0.52836948849E+02  0.21546601426E+03  0.22841261755E+03  0.47000000000E+01 0. -1.
         -5    1    1    2    0  502 -0.13981535800E+02 -0.71631519562E+02  0.78933743199E+02  0.10760661575E+03  0.47000000000E+01 0.  1.
        -11    1    1    2    0    0 -0.78716261986E+01 -0.37090655555E+02  0.35412919524E+01  0.38081753862E+02  0.00000000000E+00 0.  1.
         11    1    1    2    0    0 -0.32302977036E+02  0.55885226268E+02 -0.51841649219E+02  0.82790080530E+02  0.00000000000E+00 0. -1.
<mgrwt>
<rscale>  0 0.14731063E+03</rscale>
<asrwt>0</asrwt>
<pdfrwt beam="1">  1        1 0.54076189E-01 0.16198058E+03</pdfrwt>
<pdfrwt beam="2">  1       -1 0.16214744E-01 0.16198058E+03</pdfrwt>
<totfact> 0.19989259E+03</totfact>
</mgrwt>
</event>
<event>
 7    1  0.7800420E-006  0.1615616E+03  0.7546771E-02  0.1194680E+00
         -2   -1    0    0    0  501 -0.00000000000E+00  0.00000000000E+00  0.15822532326E+03  0.15822532326E+03  0.00000000000E+00 0.  1.
          2   -1    0    0  501    0  0.00000000000E+00 -0.00000000000E+00 -0.15250094878E+03  0.15250094878E+03  0.00000000000E+00 0. -1.
         23    2    1    2    0    0  0.72371927349E+02 -0.72395931513E+02 -0.41068330025E+02  0.16669962669E+03  0.12499316397E+03 0.  0.
          5    1    3    3  502    0  0.43014607963E+02 -0.76410567647E+01  0.39541352431E+02  0.59112188242E+02  0.47000000000E+01 0.  1.
         -5    1    3    3    0  502  0.29357319386E+02 -0.64754874748E+02 -0.80609682456E+02  0.10758743844E+03  0.47000000000E+01 0.  1.
        -11    1    1    2    0    0 -0.22601035554E+02  0.81758356166E+02  0.36515746238E+02  0.92350610904E+02  0.00000000000E+00 0. -1.
         11    1    1    2    0    0 -0.49770891796E+02 -0.93624246526E+01  0.10276958266E+02  0.51676034452E+02  0.00000000000E+00 0.  1.
<mgrwt>
<rscale>  0 0.15481345E+03</rscale>
<asrwt>0</asrwt>
<pdfrwt beam="2">  1        2 0.23461684E-01 0.16156162E+03</pdfrwt>
<pdfrwt beam="1">  1       -2 0.24342358E-01 0.16156162E+03</pdfrwt>
<totfact> 0.33470610E+03</totfact>
</mgrwt>
</event>
<event>
 7    1  0.7800420E-006  0.1647846E+03  0.7546771E-02  0.1190401E+00
          2   -1    0    0  501    0  0.00000000000E+00  0.00000000000E+00  0.14272692966E+04  0.14272692966E+04  0.00000000000E+00 0.  1.
         -2   -1    0    0    0  501 -0.00000000000E+00 -0.00000000000E+00 -0.16481340733E+02  0.16481340733E+02  0.00000000000E+00 0. -1.
         23    2    1    2    0    0  0.10403709157E+03 -0.26552848856E+02  0.81535633900E+03  0.83184128681E+03  0.12500078679E+03 0.  0.
          5    1    3    3  502    0  0.12787472114E+03 -0.25170416851E+02  0.54475384179E+03  0.56014670608E+03  0.47000000000E+01 0.  1.
         -5    1    3    3    0  502 -0.23837629579E+02 -0.13824320052E+01  0.27060249721E+03  0.27169458073E+03  0.47000000000E+01 0.  1.
        -11    1    1    2    0    0 -0.75847701327E+02  0.47439393137E+02  0.53156670658E+03  0.53904223709E+03  0.00000000000E+00 0.  1.
         11    1    1    2    0    0 -0.28189390239E+02 -0.20886544280E+02  0.63864910293E+02  0.72867113438E+02  0.00000000000E+00 0. -1.
<mgrwt>
<rscale>  0 0.15849969E+03</rscale>
<asrwt>0</asrwt>
<pdfrwt beam="1">  1        2 0.21957979E+00 0.16478461E+03</pdfrwt>
<pdfrwt beam="2">  1       -2 0.25355920E-02 0.16478461E+03</pdfrwt>
<totfact> 0.79989230E+03</totfact>
</mgrwt>
</event>
<event>
 7    1  0.7800420E-006  0.1525158E+03  0.7546771E-02  0.1206320E+00
         -2   -1    0    0    0  501 -0.00000000000E+00  0.00000000000E+00  0.85112309987E+02  0.85112309987E+02  0.00000000000E+00 0.  1.
          2   -1    0    0  501    0  0.00000000000E+00 -0.00000000000E+00 -0.35039983292E+03  0.35039983292E+03  0.00000000000E+00 0. -1.
         23    2    1    2    0    0 -0.64699848423E+01 -0.87135512287E+02 -0.26950667607E+03  0.30966905945E+03  0.12500647873E+03 0.  0.
          5    1    3    3  502    0 -0.53005554821E+02 -0.18531492704E+01 -0.72419281207E+02  0.89886958424E+02  0.47000000000E+01 0.  1.
         -5    1    3    3    0  502  0.46535569979E+02 -0.85282363017E+02 -0.19708739487E+03  0.21978210102E+03  0.47000000000E+01 0.  1.
        -11    1    1    2    0    0 -0.38198520357E+02  0.33816727179E+02  0.19519298303E+02  0.54623264282E+02  0.00000000000E+00 0.  1.
         11    1    1    2    0    0  0.44668505199E+02  0.53318785108E+02 -0.15300145166E+02  0.71219819181E+02  0.00000000000E+00 0. -1.
<mgrwt>
<rscale>  0 0.14533910E+03</rscale>
<asrwt>0</asrwt>
<pdfrwt beam="2">  1        2 0.53907666E-01 0.15251583E+03</pdfrwt>
<pdfrwt beam="1">  1       -2 0.13094202E-01 0.15251583E+03</pdfrwt>
<totfact> 0.38409411E+03</totfact>
</mgrwt>
</event>
<event>
 7    1  0.7800420E-006  0.1352459E+03  0.7546771E-02  0.1232995E+00
         -3   -1    0    0    0  501 -0.00000000000E+00  0.00000000000E+00  0.36273467617E+02  0.36273467617E+02  0.00000000000E+00 0.  1.
          3   -1    0    0  501    0  0.00000000000E+00 -0.00000000000E+00 -0.44263694960E+03  0.44263694960E+03  0.00000000000E+00 0. -1.
         23    2    1    2    0    0  0.45900298110E+02 -0.23680063426E+02 -0.30851827478E+03  0.33686048433E+03  0.12499550897E+03 0.  0.
          5    1    3    3  502    0  0.29825771997E+02  0.27184734400E+02 -0.23666911729E+02  0.47019136215E+02  0.47000000000E+01 0.  1.
         -5    1    3    3    0  502  0.16074526114E+02 -0.50864797826E+02 -0.28485136305E+03  0.28984134812E+03  0.47000000000E+01 0.  1.
        -11    1    1    2    0    0 -0.28139298880E+02  0.55062582147E+02 -0.39228595840E+02  0.73229712725E+02  0.00000000000E+00 0. -1.
         11    1    1    2    0    0 -0.17760999230E+02 -0.31382518721E+02 -0.58616611368E+02  0.68820220162E+02  0.00000000000E+00 0.  1.
<mgrwt>
<rscale>  0 0.12633667E+03</rscale>
<asrwt>0</asrwt>
<pdfrwt beam="2">  1        3 0.68097995E-01 0.13524592E+03</pdfrwt>
<pdfrwt beam="1">  1       -3 0.55805333E-02 0.13524592E+03</pdfrwt>
<totfact> 0.93187402E+02</totfact>
</mgrwt>
</event>
<event>
 7    1  0.7800420E-006  0.1362258E+03  0.7546771E-02  0.1229444E+00
         -3   -1    0    0    0  501 -0.00000000000E+00  0.00000000000E+00  0.27909958792E+02  0.27909958792E+02  0.00000000000E+00 0.  1.
          3   -1    0    0  501    0  0.00000000000E+00 -0.00000000000E+00 -0.58345781184E+03  0.58345781184E+03  0.00000000000E+00 0. -1.
         23    2    1    2    0    0  0.22895592786E+02 -0.49069668930E+02 -0.39332946759E+03  0.41625177851E+03  0.12500172983E+03 0.  0.
          5    1    3    3  502    0 -0.27499904437E+02 -0.46559176376E+01 -0.29910231622E+03  0.30043669530E+03  0.47000000000E+01 0.  1.
         -5    1    3    3    0  502  0.50395497223E+02 -0.44413751292E+02 -0.94227151363E+02  0.11581508321E+03  0.47000000000E+01 0.  1.
        -11    1    1    2    0    0 -0.20394400109E+02 -0.23913553087E+02 -0.26981662542E+02  0.41422212527E+02  0.00000000000E+00 0.  1.
         11    1    1    2    0    0 -0.25011926778E+01  0.72983222017E+02 -0.13523672292E+03  0.15369377959E+03  0.00000000000E+00 0. -1.
<mgrwt>
<rscale>  0 0.12866916E+03</rscale>
<asrwt>0</asrwt>
<pdfrwt beam="2">  1        3 0.89762743E-01 0.13622582E+03</pdfrwt>
<pdfrwt beam="1">  1       -3 0.42938397E-02 0.13622582E+03</pdfrwt>
<totfact> 0.77750247E+02</totfact>
</mgrwt>
</event>
<event>
 7    1  0.7800420E-006  0.1595317E+03  0.7546771E-02  0.1196918E+00
         -2   -1    0    0    0  501 -0.00000000000E+00  0.00000000000E+00  0.34885642281E+02  0.34885642281E+02  0.00000000000E+00 0. -1.
          2   -1    0    0  501    0  0.00000000000E+00 -0.00000000000E+00 -0.62137998815E+03  0.62137998815E+03  0.00000000000E+00 0.  1.
         23    2    1    2    0    0  0.78897699466E+02 -0.60005624883E+02 -0.33035324720E+03  0.36685640905E+03  0.12499933972E+03 0.  0.
          5    1    3    3  502    0  0.77081937517E+02 -0.85675667761E+02 -0.17684740524E+03  0.21113749046E+03  0.47000000000E+01 0.  1.
         -5    1    3    3    0  502  0.18157619485E+01  0.25670042878E+02 -0.15350584195E+03  0.15571891859E+03  0.47000000000E+01 0.  1.
        -11    1    1    2    0    0  0.89511691439E+01 -0.15910883403E+02 -0.42535346209E+02  0.46287528740E+02  0.00000000000E+00 0.  1.
         11    1    1    2    0    0 -0.87848868610E+02  0.75916508286E+02 -0.21360575246E+03  0.24312169264E+03  0.00000000000E+00 0. -1.
<mgrwt>
<rscale>  0 0.15293014E+03</rscale>
<asrwt>0</asrwt>
<pdfrwt beam="2">  1        2 0.95596911E-01 0.15953168E+03</pdfrwt>
<pdfrwt beam="1">  1       -2 0.53670224E-02 0.15953168E+03</pdfrwt>
<totfact> 0.82349892E+03</totfact>
</mgrwt>
</event>
<event>
 7    1  0.7800420E-006  0.1251035E+03  0.7546771E-02  0.1250446E+00
         -1   -1    0    0    0  501 -0.00000000000E+00  0.00000000000E+00  0.48390466378E+02  0.48390466378E+02  0.00000000000E+00 0.  1.
          1   -1    0    0  501    0  0.00000000000E+00 -0.00000000000E+00 -0.33126204130E+03  0.33126204130E+03  0.00000000000E+00 0. -1.
         23    2    1    2    0    0  0.49906167851E+01  0.69284294956E+00 -0.25514621760E+03  0.28416628409E+03  0.12500199347E+03 0.  0.
          5    1    3    3  502    0  0.15376411794E+02 -0.60365462932E+02 -0.11499399565E+03  0.13086684909E+03  0.47000000000E+01 0. -1.
         -5    1    3    3    0  502 -0.10385795008E+02  0.61058305882E+02 -0.14015222195E+03  0.15329943500E+03  0.47000000000E+01 0. -1.
        -11    1    1    2    0    0  0.30017561840E+02  0.18325431328E+02 -0.40508388338E+02  0.53645176651E+02  0.00000000000E+00 0. -1.
         11    1    1    2    0    0 -0.35008178625E+02 -0.19018274277E+02  0.12783031011E+02  0.41841046939E+02  0.00000000000E+00 0.  1.
<mgrwt>
<rscale>  0 0.11565273E+03</rscale>
<asrwt>0</asrwt>
<pdfrwt beam="2">  1        1 0.50963392E-01 0.12510350E+03</pdfrwt>
<pdfrwt beam="1">  1       -1 0.74446870E-02 0.12510350E+03</pdfrwt>
<totfact> 0.70387619E+03</totfact>
</mgrwt>
</event>
<event>
 7    1  0.7800420E-006  0.1526089E+03  0.7546771E-02  0.1204904E+00
         -2   -1    0    0    0  501 -0.00000000000E+00  0.00000000000E+00  0.18630244568E+02  0.18630244568E+02  0.00000000000E+00 0.  1.
          2   -1    0    0  501    0  0.00000000000E+00 -0.00000000000E+00 -0.12766031922E+04  0.12766031922E+04  0.00000000000E+00 0. -1.
         23    2    1    2    0    0 -0.87269823130E+02  0.71166055431E+01 -0.93363908368E+03  0.94602929434E+03  0.12499127603E+03 0.  0.
          5    1    3    3  502    0 -0.70551731621E+02 -0.53989715387E+02 -0.52613989770E+03  0.53360820661E+03  0.47000000000E+01 0. -1.
         -5    1    3    3    0  502 -0.16718091510E+02  0.61106320930E+02 -0.40749918597E+03  0.41242108774E+03  0.47000000000E+01 0. -1.
        -11    1    1    2    0    0 -0.95191248693E+01  0.25297793505E+02 -0.78435057244E+02  0.82961739973E+02  0.00000000000E+00 0. -1.
         11    1    1    2    0    0  0.96788947999E+02 -0.32414399048E+02 -0.24589880669E+03  0.26624240243E+03  0.00000000000E+00 0.  1.
<mgrwt>
<rscale>  0 0.14645032E+03</rscale>
<asrwt>0</asrwt>
<pdfrwt beam="2">  1        2 0.19640049E+00 0.15260894E+03</pdfrwt>
<pdfrwt beam="1">  1       -2 0.28661916E-02 0.15260894E+03</pdfrwt>
<totfact> 0.80256647E+03</totfact>
</mgrwt>
</event>
<event>
 7    1  0.1645692E-005  0.1706945E+03  0.7546771E-02  0.1183703E+00
         -1   -1    0    0    0  501 -0.00000000000E+00  0.00000000000E+00  0.42215986717E+02  0.42215986717E+02  0.00000000000E+00 0.  1.
          1   -1    0    0  501    0  0.00000000000E+00 -0.00000000000E+00 -0.66443713126E+03  0.66443713126E+03  0.00000000000E+00 0. -1.
         23    2    1    2    0    0 -0.59069336627E+01 -0.11609029587E+03 -0.44270191720E+03  0.47446979468E+03  0.12499899963E+03 0.  0.
          5    1    3    3  502    0  0.28140632621E+02 -0.48813049583E+02 -0.35160562241E+03  0.35612246871E+03  0.47000000000E+01 0.  1.
         -5    1    3    3    0  502 -0.34047566284E+02 -0.67277246290E+02 -0.91096294793E+02  0.11834732597E+03  0.47000000000E+01 0.  1.
        -11    1    1    2    0    0 -0.26434693111E+02  0.64053176568E+02 -0.14769559579E+03  0.16314285594E+03  0.00000000000E+00 0. -1.
         11    1    1    2    0    0  0.32341626774E+02  0.52037119305E+02 -0.31823631551E+02  0.69040467358E+02  0.00000000000E+00 0.  1.
<mgrwt>
<rscale>  0 0.16450414E+03</rscale>
<asrwt>0</asrwt>
<pdfrwt beam="2">  1        1 0.10222109E+00 0.17069446E+03</pdfrwt>
<pdfrwt beam="1">  1       -1 0.64947675E-02 0.17069446E+03</pdfrwt>
<totfact> 0.35419107E+03</totfact>
</mgrwt>
</event>
<event>
 7    1  0.1794620E-005  0.1477443E+03  0.7546771E-02  0.1212958E+00
          3   -1    0    0  501    0  0.00000000000E+00  0.00000000000E+00  0.70049120721E+03  0.70049120721E+03  0.00000000000E+00 0. -1.
         -3   -1    0    0    0  501 -0.00000000000E+00 -0.00000000000E+00 -0.25598506910E+02  0.25598506910E+02  0.00000000000E+00 0.  1.
         23    2    1    2    0    0  0.32955433617E+02 -0.71535078001E+02  0.37584242245E+03  0.40383894734E+03  0.12500016356E+03 0.  0.
          5    1    3    3  502    0 -0.37339639051E+02 -0.56763259074E+02  0.11911632192E+03  0.13721189589E+03  0.47000000000E+01 0. -1.
         -5    1    3    3    0  502  0.70295072668E+02 -0.14771818927E+02  0.25672610053E+03  0.26662705146E+03  0.47000000000E+01 0. -1.
        -11    1    1    2    0    0  0.42095146494E+01  0.20950604617E+02  0.55017163585E+01  0.22066189755E+02  0.00000000000E+00 0.  1.
         11    1    1    2    0    0 -0.37164948267E+02  0.50584473384E+02  0.29354856150E+03  0.30018457703E+03  0.00000000000E+00 0. -1.
<mgrwt>
<rscale>  0 0.14027584E+03</rscale>
<asrwt>0</asrwt>
<pdfrwt beam="1">  1        3 0.10776786E+00 0.14774427E+03</pdfrwt>
<pdfrwt beam="2">  1       -3 0.39382324E-02 0.14774427E+03</pdfrwt>
<totfact> 0.59586020E+02</totfact>
</mgrwt>
</event>
<event>
 7    1  0.7800420E-006  0.1431045E+03  0.7546771E-02  0.1219936E+00
          2   -1    0    0  501    0  0.00000000000E+00  0.00000000000E+00  0.36930354648E+03  0.36930354648E+03  0.00000000000E+00 0. -1.
         -2   -1    0    0    0  501 -0.00000000000E+00 -0.00000000000E+00 -0.53260510137E+02  0.53260510137E+02  0.00000000000E+00 0.  1.
         23    2    1    2    0    0 -0.66473390403E+02 -0.20655327760E+02  0.25702873961E+03  0.29418135558E+03  0.12503416648E+03 0.  0.
          5    1    3    3  502    0 -0.43192406571E+02  0.49664630101E+02  0.91878937610E+02  0.11311935575E+03  0.47000000000E+01 0. -1.
         -5    1    3    3    0  502 -0.23280983832E+02 -0.70319957861E+02  0.16514980200E+03  0.18106199983E+03  0.47000000000E+01 0. -1.
        -11    1    1    2    0    0  0.48041304469E+02 -0.20303710357E+02 -0.25003871714E+01  0.52215510391E+02  0.00000000000E+00 0.  1.
         11    1    1    2    0    0  0.18432085934E+02  0.40959038117E+02  0.61514683904E+02  0.76167190648E+02  0.00000000000E+00 0. -1.
<mgrwt>
<rscale>  0 0.13520119E+03</rscale>
<asrwt>0</asrwt>
<pdfrwt beam="1">  1        2 0.56815929E-01 0.14310450E+03</pdfrwt>
<pdfrwt beam="2">  1       -2 0.81939249E-02 0.14310450E+03</pdfrwt>
<totfact> 0.75894495E+03</totfact>
</mgrwt>
</event>
<event>
 7    1  0.7800420E-006  0.1319187E+03  0.7546771E-02  0.1238562E+00
         -1   -1    0    0    0  501 -0.00000000000E+00  0.00000000000E+00  0.56477785719E+02  0.56477785719E+02  0.00000000000E+00 0. -1.
          1   -1    0    0  501    0  0.00000000000E+00 -0.00000000000E+00 -0.23788213101E+03  0.23788213101E+03  0.00000000000E+00 0.  1.
         23    2    1    2    0    0  0.20629033669E+02 -0.36772429285E+02 -0.11616553719E+03  0.17577535552E+03  0.12499909997E+03 0.  0.
          5    1    3    3  502    0  0.30030744385E+02  0.42293065266E+02 -0.48792511693E+02  0.71367697001E+02  0.47000000000E+01 0. -1.
         -5    1    3    3    0  502 -0.94017107165E+01 -0.79065494551E+02 -0.67373025500E+02  0.10440765852E+03  0.47000000000E+01 0. -1.
        -11    1    1    2    0    0  0.29249155252E+02 -0.92655105565E+01 -0.15092709914E+02  0.34192874424E+02  0.00000000000E+00 0.  1.
         11    1    1    2    0    0 -0.49878188921E+02  0.46037939841E+02 -0.50146098187E+02  0.84391686784E+02  0.00000000000E+00 0. -1.
<mgrwt>
<rscale>  0 0.12279123E+03</rscale>
<asrwt>0</asrwt>
<pdfrwt beam="2">  1        1 0.36597251E-01 0.13191870E+03</pdfrwt>
<pdfrwt beam="1">  1       -1 0.86888902E-02 0.13191870E+03</pdfrwt>
<totfact> 0.84267385E+03</totfact>
</mgrwt>
</event>
<event>
 7    1  0.7800420E-006  0.1509435E+03  0.7546771E-02  0.1207963E+00
         -2   -1    0    0    0  501 -0.00000000000E+00  0.00000000000E+00  0.14691254095E+03  0.14691254095E+03  0.00000000000E+00 0.  1.
          2   -1    0    0  501    0  0.00000000000E+00 -0.00000000000E+00 -0.15688998811E+03  0.15688998811E+03  0.00000000000E+00 0. -1.
         23    2    1    2    0    0  0.56879716618E+02 -0.62636759522E+02 -0.68256094381E+02  0.16565878344E+03  0.12500108922E+03 0.  0.
          5    1    3    3  502    0  0.48030578310E+02 -0.38047332335E+02 -0.10419927372E+03  0.12097154456E+03  0.47000000000E+01 0.  1.
         -5    1    3    3    0  502  0.88491383071E+01 -0.24589427187E+02  0.35943179335E+02  0.44687238881E+02  0.47000000000E+01 0.  1.
        -11    1    1    2    0    0 -0.55781370340E+02  0.41257654247E+02 -0.67244753116E+01  0.69706340308E+02  0.00000000000E+00 0. -1.
         11    1    1    2    0    0 -0.10983462773E+01  0.21379105275E+02  0.65003122528E+02  0.68437405308E+02  0.00000000000E+00 0.  1.
<mgrwt>
<rscale>  0 0.14406361E+03</rscale>
<asrwt>0</asrwt>
<pdfrwt beam="2">  1        2 0.24136921E-01 0.15094349E+03</pdfrwt>
<pdfrwt beam="1">  1       -2 0.22601929E-01 0.15094349E+03</pdfrwt>
<totfact> 0.36753175E+03</totfact>
</mgrwt>
</event>
<event>
 7    1  0.7800420E-006  0.1306297E+03  0.7546771E-02  0.1240341E+00
          1   -1    0    0  501    0  0.00000000000E+00  0.00000000000E+00  0.48387409623E+03  0.48387409623E+03  0.00000000000E+00 0. -1.
         -1   -1    0    0    0  501 -0.00000000000E+00 -0.00000000000E+00 -0.30713428164E+02  0.30713428164E+02  0.00000000000E+00 0.  1.
         23    2    1    2    0    0 -0.37919840135E+02  0.89357574250E+00  0.34230045051E+03  0.36637920228E+03  0.12500163476E+03 0.  0.
          5    1    3    3  502    0  0.26698182602E+02 -0.43651926084E+02  0.11819163630E+03  0.12887837870E+03  0.47000000000E+01 0. -1.
         -5    1    3    3    0  502 -0.64618022738E+02  0.44545501826E+02  0.22410881421E+03  0.23750082358E+03  0.47000000000E+01 0. -1.
        -11    1    1    2    0    0  0.36635563711E+02  0.38723631662E+02  0.86731546317E+02  0.10180395525E+03  0.00000000000E+00 0. -1.
         11    1    1    2    0    0  0.12842764241E+01 -0.39617207405E+02  0.24128671242E+02  0.46404366868E+02  0.00000000000E+00 0.  1.
<mgrwt>
<rscale>  0 0.12168635E+03</rscale>
<asrwt>0</asrwt>
<pdfrwt beam="1">  1        1 0.74442163E-01 0.13062971E+03</pdfrwt>
<pdfrwt beam="2">  1       -1 0.47251432E-02 0.13062971E+03</pdfrwt>
<totfact> 0.86054189E+03</totfact>
</mgrwt>
</event>
<event>
 7    1  0.9280141E-006  0.2232310E+03  0.7546771E-02  0.1134683E+00
         -1   -1    0    0    0  501 -0.00000000000E+00  0.00000000000E+00  0.37972586764E+03  0.37972586764E+03  0.00000000000E+00 0. -1.
          1   -1    0    0  501    0  0.00000000000E+00 -0.00000000000E+00 -0.12384798527E+03  0.12384798527E+03  0.00000000000E+00 0.  1.
         23    2    1    2    0    0  0.14493694581E+03 -0.11489425951E+03  0.98865133126E+02  0.24414416826E+03  0.12499860486E+03 0.  0.
          5    1    3    3  502    0  0.81079515092E+02 -0.76659396387E+02  0.12263796735E+03  0.16586956278E+03  0.47000000000E+01 0. -1.
         -5    1    3    3    0  502  0.63857430722E+02 -0.38234863122E+02 -0.23772834221E+02  0.78274605482E+02  0.47000000000E+01 0. -1.
        -11    1    1    2    0    0 -0.17319064318E+02  0.65816839856E+02  0.68439499794E+02  0.96518244542E+02  0.00000000000E+00 0. -1.
         11    1    1    2    0    0 -0.12761788150E+03  0.49077419654E+02  0.88573249455E+02  0.16291144010E+03  0.00000000000E+00 0.  1.
<mgrwt>
<rscale>  0 0.21893070E+03</rscale>
<asrwt>0</asrwt>
<pdfrwt beam="2">  1        1 0.19053536E-01 0.22323096E+03</pdfrwt>
<pdfrwt beam="1">  1       -1 0.58419364E-01 0.22323096E+03</pdfrwt>
<totfact> 0.83165002E+02</totfact>
</mgrwt>
</event>
<event>
 7    1  0.7800420E-006  0.1389905E+03  0.7546771E-02  0.1220313E+00
          1   -1    0    0  501    0  0.00000000000E+00  0.00000000000E+00  0.92523425948E+03  0.92523425948E+03  0.00000000000E+00 0. -1.
         -1   -1    0    0    0  501 -0.00000000000E+00 -0.00000000000E+00 -0.23496531255E+02  0.23496531255E+02  0.00000000000E+00 0.  1.
         23    2    1    2    0    0  0.60237624343E+02  0.80360307290E+01  0.68799653323E+03  0.70189571406E+03  0.12500085801E+03 0.  0.
          5    1    3    3  502    0  0.11526908053E+02 -0.27127268478E+02  0.55593178551E+03  0.55673242985E+03  0.47000000000E+01 0. -1.
         -5    1    3    3    0  502  0.48710716290E+02  0.35163299207E+02  0.13206474772E+03  0.14516328421E+03  0.47000000000E+01 0. -1.
        -11    1    1    2    0    0 -0.75670231631E+02  0.30597088238E+02  0.14866251060E+03  0.16959571876E+03  0.00000000000E+00 0.  1.
         11    1    1    2    0    0  0.15432607288E+02 -0.38633118967E+02  0.65078684398E+02  0.77239357919E+02  0.00000000000E+00 0. -1.
<mgrwt>
<rscale>  0 0.13493358E+03</rscale>
<asrwt>0</asrwt>
<pdfrwt beam="1">  1        1 0.14234370E+00 0.13899052E+03</pdfrwt>
<pdfrwt beam="2">  1       -1 0.36148517E-02 0.13899052E+03</pdfrwt>
<totfact> 0.50890395E+03</totfact>
</mgrwt>
</event>
<event>
 7    1  0.7800420E-006  0.1254146E+03  0.7546771E-02  0.1249695E+00
         -2   -1    0    0    0  501 -0.00000000000E+00  0.00000000000E+00  0.27334275454E+02  0.27334275454E+02  0.00000000000E+00 0.  1.
          2   -1    0    0  501    0  0.00000000000E+00 -0.00000000000E+00 -0.10577212519E+04  0.10577212519E+04  0.00000000000E+00 0. -1.
         23    2    1    2    0    0  0.45441809285E+01  0.92440556225E+01 -0.96257872236E+03  0.97071448694E+03  0.12499086477E+03 0.  0.
          5    1    3    3  502    0 -0.41681909636E+01 -0.51636598434E+02 -0.24343653590E+03  0.24893201707E+03  0.47000000000E+01 0.  1.
         -5    1    3    3    0  502  0.87123718921E+01  0.60880654057E+02 -0.71914218646E+03  0.72178246987E+03  0.47000000000E+01 0.  1.
        -11    1    1    2    0    0  0.12201750489E+02 -0.37245598510E+02 -0.71468095491E+02  0.81509545432E+02  0.00000000000E+00 0. -1.
         11    1    1    2    0    0 -0.16745931418E+02  0.28001542888E+02  0.36598414103E+01  0.32831494975E+02  0.00000000000E+00 0.  1.
<mgrwt>
<rscale>  0 0.11608721E+03</rscale>
<asrwt>0</asrwt>
<pdfrwt beam="2">  1        2 0.16272633E+00 0.12541459E+03</pdfrwt>
<pdfrwt beam="1">  1       -2 0.42052735E-02 0.12541459E+03</pdfrwt>
<totfact> 0.59912102E+03</totfact>
</mgrwt>
</event>
<event>
 7    1  0.7800420E-006  0.1654351E+03  0.7546771E-02  0.1187664E+00
         -1   -1    0    0    0  501 -0.00000000000E+00  0.00000000000E+00  0.26849296851E+03  0.26849296851E+03  0.00000000000E+00 0.  1.
          1   -1    0    0  501    0  0.00000000000E+00 -0.00000000000E+00 -0.11796954207E+03  0.11796954207E+03  0.00000000000E+00 0. -1.
         23    2    1    2    0    0 -0.10826027671E+03  0.51258251309E+01 -0.12879062359E+02  0.16593564955E+03  0.12498883129E+03 0.  0.
          5    1    3    3  502    0 -0.10498190604E+03  0.62770000111E+01  0.40086762023E+02  0.11264830142E+03  0.47000000000E+01 0.  1.
         -5    1    3    3    0  502 -0.32783706741E+01 -0.11511748802E+01 -0.52965824382E+02  0.53287348127E+02  0.47000000000E+01 0.  1.
        -11    1    1    2    0    0  0.67482282919E+02 -0.52243085017E+02  0.85985774750E+02  0.12114764504E+03  0.00000000000E+00 0.  1.
         11    1    1    2    0    0  0.40777993790E+02  0.47117259886E+02  0.77416714044E+02  0.99379215986E+02  0.00000000000E+00 0. -1.
<mgrwt>
<rscale>  0 0.16091807E+03</rscale>
<asrwt>0</asrwt>
<pdfrwt beam="2">  1        1 0.18149160E-01 0.16543509E+03</pdfrwt>
<pdfrwt beam="1">  1       -1 0.41306610E-01 0.16543509E+03</pdfrwt>
<totfact> 0.16631306E+03</totfact>
</mgrwt>
</event>
<event>
 7    1  0.7800420E-006  0.2553823E+03  0.7546771E-02  0.1112342E+00
          2   -1    0    0  501    0  0.00000000000E+00  0.00000000000E+00  0.14256513147E+04  0.14256513147E+04  0.00000000000E+00 0. -1.
         -2   -1    0    0    0  501 -0.00000000000E+00 -0.00000000000E+00 -0.43275449176E+02  0.43275449176E+02  0.00000000000E+00 0.  1.
         23    2    1    2    0    0 -0.20492042297E+03 -0.87199902646E+02  0.66382820073E+03  0.71125805379E+03  0.12499574487E+03 0.  0.
          5    1    3    3  502    0 -0.17552694992E+03 -0.21053389277E+02  0.53424656386E+03  0.56275610734E+03  0.47000000000E+01 0. -1.
         -5    1    3    3    0  502 -0.29393473055E+02 -0.66146513368E+02  0.12958163686E+03  0.14850194646E+03  0.47000000000E+01 0. -1.
        -11    1    1    2    0    0  0.94277135198E+02  0.10472695621E+02  0.41327948106E+03  0.42402568913E+03  0.00000000000E+00 0. -1.
         11    1    1    2    0    0  0.11064328778E+03  0.76727207025E+02  0.30526818372E+03  0.33364302093E+03  0.00000000000E+00 0.  1.
<mgrwt>
<rscale>  0 0.25152908E+03</rscale>
<asrwt>0</asrwt>
<pdfrwt beam="1">  1        2 0.21933094E+00 0.25538234E+03</pdfrwt>
<pdfrwt beam="2">  1       -2 0.66577625E-02 0.25538234E+03</pdfrwt>
<totfact> 0.18866939E+03</totfact>
</mgrwt>
</event>
<event>
 7    1  0.9468053E-006  0.1345825E+03  0.7546771E-02  0.1233763E+00
          1   -1    0    0  501    0  0.00000000000E+00  0.00000000000E+00  0.18683222618E+03  0.18683222618E+03  0.00000000000E+00 0. -1.
         -1   -1    0    0    0  501 -0.00000000000E+00 -0.00000000000E+00 -0.79306599601E+02  0.79306599601E+02  0.00000000000E+00 0.  1.
         23    2    1    2    0    0  0.34509419999E+02  0.36007960174E+02  0.89691107374E+02  0.16173104920E+03  0.12499985707E+03 0.  0.
          5    1    3    3  502    0  0.58762898514E+02  0.75765352868E+01 -0.51759161548E+01  0.59660390853E+02  0.47000000000E+01 0.  1.
         -5    1    3    3    0  502 -0.24253478516E+02  0.28431424888E+02  0.94867023528E+02  0.10207065834E+03  0.47000000000E+01 0.  1.
        -11    1    1    2    0    0 -0.19758048929E+02  0.13271357133E+02 -0.27126606757E+02  0.36088255871E+02  0.00000000000E+00 0.  1.
         11    1    1    2    0    0 -0.14751371070E+02 -0.49279317308E+02  0.44961125960E+02  0.68319520712E+02  0.00000000000E+00 0. -1.
<mgrwt>
<rscale>  0 0.12583950E+03</rscale>
<asrwt>0</asrwt>
<pdfrwt beam="1">  1        1 0.28743419E-01 0.13458246E+03</pdfrwt>
<pdfrwt beam="2">  1       -1 0.12201015E-01 0.13458246E+03</pdfrwt>
<totfact> 0.67774304E+03</totfact>
</mgrwt>
</event>
<event>
 7    1  0.7800420E-006  0.1257039E+03  0.7546771E-02  0.1249025E+00
          1   -1    0    0  501    0  0.00000000000E+00  0.00000000000E+00  0.36664738240E+03  0.36664738240E+03  0.00000000000E+00 0. -1.
         -1   -1    0    0    0  501 -0.00000000000E+00 -0.00000000000E+00 -0.33340690317E+02  0.33340690317E+02  0.00000000000E+00 0.  1.
         23    2    1    2    0    0 -0.13570280586E+01 -0.13201999920E+02  0.22237812691E+03  0.25544766669E+03  0.12500137903E+03 0.  0.
          5    1    3    3  502    0  0.45731372391E+02 -0.32758257451E+02  0.49275864771E+02  0.74931052982E+02  0.47000000000E+01 0. -1.
         -5    1    3    3    0  502 -0.47088400450E+02  0.19556257531E+02  0.17310226214E+03  0.18051661371E+03  0.47000000000E+01 0. -1.
        -11    1    1    2    0    0 -0.34973680518E+02 -0.16312008260E+02  0.22988708625E+02  0.44919045701E+02  0.00000000000E+00 0.  1.
         11    1    1    2    0    0  0.36330708577E+02  0.29514008179E+02  0.87939856549E+02  0.99621360332E+02  0.00000000000E+00 0. -1.
<mgrwt>
<rscale>  0 0.11647708E+03</rscale>
<asrwt>0</asrwt>
<pdfrwt beam="1">  1        1 0.56407287E-01 0.12570393E+03</pdfrwt>
<pdfrwt beam="2">  1       -1 0.51293372E-02 0.12570393E+03</pdfrwt>
<totfact> 0.10805382E+04</totfact>
</mgrwt>
</event>
<event>
 6    1  0.7800420E-006  0.3068577E+03  0.7546771E-02  0.1100336E+00
         -2   -1    0    0    0  501 -0.00000000000E+00  0.00000000000E+00  0.30884938400E+03  0.30884938400E+03  0.00000000000E+00 0.  1.
          2   -1    0    0  501    0  0.00000000000E+00 -0.00000000000E+00 -0.79303308819E+03  0.79303308819E+03  0.00000000000E+00 0. -1.
          5    1    1    2  502    0  0.43045199261E+02 -0.45608397200E+02 -0.57283688291E+03  0.57627875156E+03  0.47000000000E+01 0. -1.
         -5    1    1    2    0  502  0.12176366098E+03  0.83331473405E+02 -0.15731101523E+03  0.21572985215E+03  0.47000000000E+01 0.  1.
        -11    1    1    2    0    0 -0.15848055264E+03 -0.15879866751E+02  0.23674301794E+03  0.28533403630E+03  0.00000000000E+00 0.  1.
         11    1    1    2    0    0 -0.63283076055E+01 -0.21843209454E+02  0.92211760147E+01  0.24539832181E+02  0.00000000000E+00 0. -1.
<mgrwt>
<rscale>  0 0.27165467E+03</rscale>
<asrwt>0</asrwt>
<pdfrwt beam="2">  1        2 0.12200509E+00 0.30685774E+03</pdfrwt>
<pdfrwt beam="1">  1       -2 0.47515291E-01 0.30685774E+03</pdfrwt>
<totfact> 0.15352517E+02</totfact>
</mgrwt>
</event>
<event>
 7    1  0.7800420E-006  0.1309822E+03  0.7546771E-02  0.1237886E+00
         -2   -1    0    0    0  501 -0.00000000000E+00  0.00000000000E+00  0.10324106255E+03  0.10324106255E+03  0.00000000000E+00 0.  1.
          2   -1    0    0  501    0  0.00000000000E+00 -0.00000000000E+00 -0.16179708215E+03  0.16179708215E+03  0.00000000000E+00 0. -1.
         23    2    1    2    0    0 -0.10296093816E+02  0.37741249346E+02 -0.88630289734E+02  0.15815076361E+03  0.12500369723E+03 0.  0.
          5    1    3    3  502    0  0.47975364905E+02  0.36596017460E+02 -0.77989426551E+02  0.98718512881E+02  0.47000000000E+01 0.  1.
         -5    1    3    3    0  502 -0.58271458721E+02  0.11452318863E+01 -0.10640863183E+02  0.59432250730E+02  0.47000000000E+01 0.  1.
        -11    1    1    2    0    0 -0.36460376839E+02  0.71521732599E+01  0.54727758131E+01  0.37556143794E+02  0.00000000000E+00 0. -1.
         11    1    1    2    0    0  0.46756470654E+02 -0.44893422606E+02  0.24601494322E+02  0.69331237291E+02  0.00000000000E+00 0.  1.
<mgrwt>
<rscale>  0 0.12321498E+03</rscale>
<asrwt>0</asrwt>
<pdfrwt beam="2">  1        2 0.24891859E-01 0.13098220E+03</pdfrwt>
<pdfrwt beam="1">  1       -2 0.15883240E-01 0.13098220E+03</pdfrwt>
<totfact> 0.63748861E+03</totfact>
</mgrwt>
</event>
<event>
 7    1  0.7800420E-006  0.1764482E+03  0.7546771E-02  0.1176573E+00
         -1   -1    0    0    0  501 -0.00000000000E+00  0.00000000000E+00  0.23668113779E+03  0.23668113779E+03  0.00000000000E+00 0.  1.
          1   -1    0    0  501    0  0.00000000000E+00 -0.00000000000E+00 -0.12313035821E+03  0.12313035821E+03  0.00000000000E+00 0. -1.
         23    2    1    2    0    0  0.95550843774E+02 -0.79916026376E+02  0.99837514547E+02  0.20273506793E+03  0.12496977010E+03 0.  0.
          5    1    3    3  502    0  0.10104105363E+03 -0.10751439840E+03  0.79174610660E+02  0.16750925155E+03  0.47000000000E+01 0. -1.
         -5    1    3    3    0  502 -0.54902098589E+01  0.27598372020E+02  0.20662903887E+02  0.35225816378E+02  0.47000000000E+01 0. -1.
        -11    1    1    2    0    0 -0.87359832029E+02  0.88484758718E+02  0.38025920692E+02  0.13002793324E+03  0.00000000000E+00 0.  1.
         11    1    1    2    0    0 -0.81910117445E+01 -0.85687323415E+01 -0.24312655666E+02  0.27048494835E+02  0.00000000000E+00 0. -1.
<mgrwt>
<rscale>  0 0.17122824E+03</rscale>
<asrwt>0</asrwt>
<pdfrwt beam="2">  1        1 0.18943132E-01 0.17644823E+03</pdfrwt>
<pdfrwt beam="1">  1       -1 0.36412483E-01 0.17644823E+03</pdfrwt>
<totfact> 0.19677835E+03</totfact>
</mgrwt>
</event>
<event>
 7    1  0.7800420E-006  0.2338319E+03  0.7546771E-02  0.1126705E+00
          2   -1    0    0  501    0  0.00000000000E+00  0.00000000000E+00  0.14331388187E+04  0.14331388187E+04  0.00000000000E+00 0. -1.
         -2   -1    0    0    0  501 -0.00000000000E+00 -0.00000000000E+00 -0.35695429754E+02  0.35695429754E+02  0.00000000000E+00 0.  1.
         23    2    1    2    0    0  0.19282115074E+03 -0.43272373511E+02  0.72372231555E+03  0.76055990142E+03  0.12499951655E+03 0.  0.
          5    1    3    3  502    0  0.69034263792E+02  0.23316223873E+02  0.41416921033E+03  0.42055629904E+03  0.47000000000E+01 0.  1.
         -5    1    3    3    0  502  0.12378688694E+03 -0.66588597385E+02  0.30955310522E+03  0.34000360238E+03  0.47000000000E+01 0.  1.
        -11    1    1    2    0    0 -0.14815731862E+03  0.69796702848E+02  0.45846607864E+03  0.48684013398E+03  0.00000000000E+00 0. -1.
         11    1    1    2    0    0 -0.44663832121E+02 -0.26524329337E+02  0.21525499475E+03  0.22143421305E+03  0.00000000000E+00 0.  1.
<mgrwt>
<rscale>  0 0.22990708E+03</rscale>
<asrwt>0</asrwt>
<pdfrwt beam="1">  1        2 0.22048285E+00 0.23383193E+03</pdfrwt>
<pdfrwt beam="2">  1       -2 0.54916057E-02 0.23383193E+03</pdfrwt>
<totfact> 0.25141737E+03</totfact>
</mgrwt>
</event>
<event>
 7    1  0.7800420E-006  0.1342008E+03  0.7546771E-02  0.1233096E+00
          1   -1    0    0  501    0  0.00000000000E+00  0.00000000000E+00  0.27113063535E+03  0.27113063535E+03  0.00000000000E+00 0. -1.
         -1   -1    0    0    0  501 -0.00000000000E+00 -0.00000000000E+00 -0.53078058973E+02  0.53078058973E+02  0.00000000000E+00 0.  1.
         23    2    1    2    0    0  0.13756335363E+02 -0.46864402073E+02  0.13298250112E+03  0.18892905971E+03  0.12499734020E+03 0.  0.
          5    1    3    3  502    0  0.56269515821E+02 -0.66287391834E+02  0.90574857294E+02  0.12564303204E+03  0.47000000000E+01 0.  1.
         -5    1    3    3    0  502 -0.42513180458E+02  0.19422989761E+02  0.42407643822E+02  0.63286027671E+02  0.47000000000E+01 0.  1.
        -11    1    1    2    0    0 -0.39012515794E+02 -0.47048587153E+01  0.61985132985E+02  0.73391203800E+02  0.00000000000E+00 0. -1.
         11    1    1    2    0    0  0.25256180431E+02  0.51569260788E+02  0.23084942278E+02  0.61888430810E+02  0.00000000000E+00 0.  1.
<mgrwt>
<rscale>  0 0.12627099E+03</rscale>
<asrwt>0</asrwt>
<pdfrwt beam="1">  1        1 0.41712405E-01 0.13420076E+03</pdfrwt>
<pdfrwt beam="2">  1       -1 0.81658554E-02 0.13420076E+03</pdfrwt>
<totfact> 0.78840221E+03</totfact>
</mgrwt>
</event>
<event>
 6    1  0.7800420E-006  0.1878235E+03  0.7546771E-02  0.1230132E+00
          2   -1    0    0  501    0  0.00000000000E+00  0.00000000000E+00  0.68087797381E+02  0.68087797381E+02  0.00000000000E+00 0.  1.
         -2   -1    0    0    0  501 -0.00000000000E+00 -0.00000000000E+00 -0.23350516252E+03  0.23350516252E+03  0.00000000000E+00 0. -1.
          5    1    1    2  502    0  0.14449897182E+02  0.67394157613E+02  0.85323107511E+01  0.69610791805E+02  0.47000000000E+01 0.  1.
         -5    1    1    2    0  502 -0.96075595767E+01 -0.10256577346E+03 -0.83237860442E+02  0.13252424117E+03  0.47000000000E+01 0. -1.
        -11    1    1    2    0    0  0.55758465091E+01  0.24960031092E+02 -0.65704750787E+02  0.70506790399E+02  0.00000000000E+00 0. -1.
         11    1    1    2    0    0 -0.10418184114E+02  0.10211584754E+02 -0.25007064662E+02  0.28951136531E+02  0.00000000000E+00 0.  1.
<mgrwt>
<rscale>  0 0.12821296E+03</rscale>
<asrwt>0</asrwt>
<pdfrwt beam="1">  1        2 0.10475046E-01 0.18782346E+03</pdfrwt>
<pdfrwt beam="2">  1       -2 0.35923871E-01 0.18782346E+03</pdfrwt>
<totfact> 0.43060235E+03</totfact>
</mgrwt>
</event>
<event>
 7    1  0.7800420E-006  0.1977774E+03  0.7546771E-02  0.1155644E+00
         -1   -1    0    0    0  501 -0.00000000000E+00  0.00000000000E+00  0.18321022672E+02  0.18321022672E+02  0.00000000000E+00 0.  1.
          1   -1    0    0  501    0  0.00000000000E+00 -0.00000000000E+00 -0.19573244060E+04  0.19573244060E+04  0.00000000000E+00 0. -1.
         23    2    1    2    0    0 -0.14294977885E+03 -0.55288785861E+02 -0.10874677035E+04  0.11053062555E+04  0.12499769290E+03 0.  0.
          5    1    3    3  502    0 -0.67129512821E+02  0.40015662931E+01 -0.17134408908E+03  0.18412840870E+03  0.47000000000E+01 0. -1.
         -5    1    3    3    0  502 -0.75820266033E+02 -0.59290352154E+02 -0.91612361441E+03  0.92117784683E+03  0.47000000000E+01 0. -1.
        -11    1    1    2    0    0  0.10110290948E+03  0.76964450726E+02 -0.70660626824E+03  0.71793993014E+03  0.00000000000E+00 0.  1.
         11    1    1    2    0    0  0.41846869374E+02 -0.21675664865E+02 -0.14492941156E+03  0.15239924297E+03  0.00000000000E+00 0. -1.
<mgrwt>
<rscale>  0 0.19315794E+03</rscale>
<asrwt>0</asrwt>
<pdfrwt beam="2">  1        1 0.30112679E+00 0.19777743E+03</pdfrwt>
<pdfrwt beam="1">  1       -1 0.28186193E-02 0.19777743E+03</pdfrwt>
<totfact> 0.14933850E+03</totfact>
</mgrwt>
</event>
<event>
 7    1  0.7800420E-006  0.1507982E+03  0.7546771E-02  0.1211053E+00
          2   -1    0    0  501    0  0.00000000000E+00  0.00000000000E+00  0.25305673729E+03  0.25305673729E+03  0.00000000000E+00 0. -1.
         -2   -1    0    0    0  501 -0.00000000000E+00 -0.00000000000E+00 -0.91783201780E+02  0.91783201780E+02  0.00000000000E+00 0.  1.
         23    2    1    2    0    0  0.12054083661E+02  0.83481743668E+02  0.16961771681E+03  0.22695876405E+03  0.12500243304E+03 0.  0.
          5    1    3    3  502    0  0.30753329579E+02  0.90770118889E+02  0.55198128076E+02  0.11069735817E+03  0.47000000000E+01 0.  1.
         -5    1    3    3    0  502 -0.18699245918E+02 -0.72883752217E+01  0.11441958873E+03  0.11626140588E+03  0.47000000000E+01 0.  1.
        -11    1    1    2    0    0 -0.43766110116E+02 -0.23759815794E+02 -0.44018196896E+00  0.49801556215E+02  0.00000000000E+00 0.  1.
         11    1    1    2    0    0  0.31712026455E+02 -0.59721927873E+02 -0.79039993312E+01  0.68079618802E+02  0.00000000000E+00 0. -1.
<mgrwt>
<rscale>  0 0.14170515E+03</rscale>
<asrwt>0</asrwt>
<pdfrwt beam="1">  1        2 0.38931805E-01 0.15079825E+03</pdfrwt>
<pdfrwt beam="2">  1       -2 0.14120493E-01 0.15079825E+03</pdfrwt>
<totfact> 0.48030003E+03</totfact>
</mgrwt>
</event>
<event>
 7    1  0.7800420E-006  0.1907820E+03  0.7546771E-02  0.1162710E+00
          2   -1    0    0  501    0  0.00000000000E+00  0.00000000000E+00  0.91715190453E+03  0.91715190453E+03  0.00000000000E+00 0. -1.
         -2   -1    0    0    0  501 -0.00000000000E+00 -0.00000000000E+00 -0.39564794365E+02  0.39564794365E+02  0.00000000000E+00 0.  1.
         23    2    1    2    0    0  0.66729743689E+02  0.12774442668E+03  0.61484149134E+03  0.64376068059E+03  0.12500502856E+03 0.  0.
          5    1    3    3  502    0  0.80640033191E+02  0.21691449268E+02  0.26051138792E+03  0.27360849248E+03  0.47000000000E+01 0. -1.
         -5    1    3    3    0  502 -0.13910289502E+02  0.10605297741E+03  0.35433010342E+03  0.37015218811E+03  0.47000000000E+01 0. -1.
        -11    1    1    2    0    0 -0.21311012515E+02 -0.50294762857E+02  0.18909971147E+03  0.19683095108E+03  0.00000000000E+00 0. -1.
         11    1    1    2    0    0 -0.45418731175E+02 -0.77449663820E+02  0.73645907361E+02  0.11612506723E+03  0.00000000000E+00 0.  1.
<mgrwt>
<rscale>  0 0.18536463E+03</rscale>
<asrwt>0</asrwt>
<pdfrwt beam="1">  1        2 0.14110028E+00 0.19078196E+03</pdfrwt>
<pdfrwt beam="2">  1       -2 0.60868921E-02 0.19078196E+03</pdfrwt>
<totfact> 0.42360392E+03</totfact>
</mgrwt>
</event>
<event>
 7    1  0.7800420E-006  0.1357377E+03  0.7546771E-02  0.1230660E+00
         -2   -1    0    0    0  501 -0.00000000000E+00  0.00000000000E+00  0.11232450522E+03  0.11232450522E+03  0.00000000000E+00 0.  1.
          2   -1    0    0  501    0  0.00000000000E+00 -0.00000000000E+00 -0.15388608915E+03  0.15388608915E+03  0.00000000000E+00 0. -1.
         23    2    1    2    0    0 -0.50268782806E+02  0.16493671836E+02 -0.73893187474E+02  0.15454748036E+03  0.12500291515E+03 0.  0.
          5    1    3    3  502    0 -0.52489018183E+02 -0.46979354842E+02 -0.27546775388E+02  0.75783056454E+02  0.47000000000E+01 0.  1.
         -5    1    3    3    0  502  0.22202353765E+01  0.63473026678E+02 -0.46346412086E+02  0.78764423911E+02  0.47000000000E+01 0.  1.
        -11    1    1    2    0    0  0.67989110931E+02 -0.25736941043E+02  0.47267227485E+02  0.86712744932E+02  0.00000000000E+00 0.  1.
         11    1    1    2    0    0 -0.17720328125E+02  0.92432692077E+01 -0.14935623936E+02  0.24950369072E+02  0.00000000000E+00 0. -1.
<mgrwt>
<rscale>  0 0.12786432E+03</rscale>
<asrwt>0</asrwt>
<pdfrwt beam="2">  1        2 0.23674783E-01 0.13573769E+03</pdfrwt>
<pdfrwt beam="1">  1       -2 0.17280693E-01 0.13573769E+03</pdfrwt>
<totfact> 0.58763620E+03</totfact>
</mgrwt>
</event>
<event>
 7    1  0.7800420E-006  0.1621896E+03  0.7546771E-02  0.1193944E+00
          2   -1    0    0  501    0  0.00000000000E+00  0.00000000000E+00  0.19277994865E+03  0.19277994865E+03  0.00000000000E+00 0. -1.
         -2   -1    0    0    0  501 -0.00000000000E+00 -0.00000000000E+00 -0.12040950049E+03  0.12040950049E+03  0.00000000000E+00 0.  1.
         23    2    1    2    0    0  0.96501066633E+02 -0.37023561571E+02  0.69172752689E+02  0.17632453952E+03  0.12498909372E+03 0.  0.
          5    1    3    3  502    0  0.11808353601E+03 -0.14861475557E+02  0.79697463193E+02  0.14331210895E+03  0.47000000000E+01 0. -1.
         -5    1    3    3    0  502 -0.21582469377E+02 -0.22162086014E+02 -0.10524710504E+02  0.33012430569E+02  0.47000000000E+01 0. -1.
        -11    1    1    2    0    0 -0.81612780600E+02  0.33540077467E+01 -0.30271529458E+02  0.87110624042E+02  0.00000000000E+00 0.  1.
         11    1    1    2    0    0 -0.14888286033E+02  0.33669553824E+02  0.33469224934E+02  0.49754285579E+02  0.00000000000E+00 0. -1.
<mgrwt>
<rscale>  0 0.15543925E+03</rscale>
<asrwt>0</asrwt>
<pdfrwt beam="1">  1        2 0.29658454E-01 0.16218962E+03</pdfrwt>
<pdfrwt beam="2">  1       -2 0.18524539E-01 0.16218962E+03</pdfrwt>
<totfact> 0.41277148E+03</totfact>
</mgrwt>
</event>
<event>
 7    1  0.7800420E-006  0.1270986E+03  0.7546771E-02  0.1246844E+00
         -1   -1    0    0    0  501 -0.00000000000E+00  0.00000000000E+00  0.39011266516E+02  0.39011266516E+02  0.00000000000E+00 0.  1.
          1   -1    0    0  501    0  0.00000000000E+00 -0.00000000000E+00 -0.39316967834E+03  0.39316967834E+03  0.00000000000E+00 0. -1.
         23    2    1    2    0    0  0.20783895321E+02 -0.98122923157E+01 -0.29549770652E+03  0.32167209518E+03  0.12500316344E+03 0.  0.
          5    1    3    3  502    0  0.67328466484E+02  0.43190133046E+01 -0.23133594727E+03  0.24101905894E+03  0.47000000000E+01 0.  1.
         -5    1    3    3    0  502 -0.46544571163E+02 -0.14131305620E+02 -0.64161759257E+02  0.80653036237E+02  0.47000000000E+01 0.  1.
        -11    1    1    2    0    0 -0.55406255628E+02 -0.56143972576E+01 -0.36848381843E+02  0.66777075885E+02  0.00000000000E+00 0. -1.
         11    1    1    2    0    0  0.34622360308E+02  0.15426689573E+02 -0.21812323458E+02  0.43731773793E+02  0.00000000000E+00 0.  1.
<mgrwt>
<rscale>  0 0.11775718E+03</rscale>
<asrwt>0</asrwt>
<pdfrwt beam="2">  1        1 0.60487641E-01 0.12709855E+03</pdfrwt>
<pdfrwt beam="1">  1       -1 0.60017335E-02 0.12709855E+03</pdfrwt>
<totfact> 0.78510164E+03</totfact>
</mgrwt>
</event>
<event>
 7    1  0.7800420E-006  0.1262075E+03  0.7546771E-02  0.1248439E+00
         -2   -1    0    0    0  501 -0.00000000000E+00  0.00000000000E+00  0.16964906969E+02  0.16964906969E+02  0.00000000000E+00 0.  1.
          2   -1    0    0  501    0  0.00000000000E+00 -0.00000000000E+00 -0.89686426713E+03  0.89686426713E+03  0.00000000000E+00 0. -1.
         23    2    1    2    0    0 -0.62185477709E+01  0.16264806191E+02 -0.70199458444E+03  0.71324941209E+03  0.12500045203E+03 0.  0.
          5    1    3    3  502    0 -0.61061208899E+01 -0.31825541309E+02 -0.51932658750E+02  0.61394143343E+02  0.47000000000E+01 0. -1.
         -5    1    3    3    0  502 -0.11242688101E+00  0.48090347500E+02 -0.65006192569E+03  0.65185526875E+03  0.47000000000E+01 0. -1.
        -11    1    1    2    0    0 -0.36673282026E+01 -0.50610346508E+02 -0.66924432686E+02  0.83986523682E+02  0.00000000000E+00 0. -1.
         11    1    1    2    0    0  0.98858759735E+01  0.34345540317E+02 -0.11098034304E+03  0.11659323833E+03  0.00000000000E+00 0.  1.
<mgrwt>
<rscale>  0 0.11681893E+03</rscale>
<asrwt>0</asrwt>
<pdfrwt beam="2">  1        2 0.13797912E+00 0.12620748E+03</pdfrwt>
<pdfrwt beam="1">  1       -2 0.26099856E-02 0.12620748E+03</pdfrwt>
<totfact> 0.15124411E+04</totfact>
</mgrwt>
</event>
<event>
 7    1  0.7800420E-006  0.1914691E+03  0.7546771E-02  0.1162140E+00
          1   -1    0    0  501    0  0.00000000000E+00  0.00000000000E+00  0.14843963811E+03  0.14843963811E+03  0.00000000000E+00 0. -1.
         -1   -1    0    0    0  501 -0.00000000000E+00 -0.00000000000E+00 -0.22562893163E+03  0.22562893163E+03  0.00000000000E+00 0.  1.
         23    2    1    2    0    0  0.12512819757E+03  0.73378152887E+02 -0.12855823334E+02  0.19190023691E+03  0.12497603603E+03 0.  0.
          5    1    3    3  502    0 -0.24768637665E+02  0.66455809833E+01  0.57601517766E+01  0.26700533831E+02  0.47000000000E+01 0. -1.
         -5    1    3    3    0  502  0.14989683524E+03  0.66732571904E+02 -0.18615975111E+02  0.16519970308E+03  0.47000000000E+01 0. -1.
        -11    1    1    2    0    0 -0.24532845342E+02 -0.35900479317E+02 -0.60815054692E+02  0.74760790478E+02  0.00000000000E+00 0.  1.
         11    1    1    2    0    0 -0.10059535223E+03 -0.37477673570E+02 -0.35184154887E+01  0.10740754235E+03  0.00000000000E+00 0. -1.
<mgrwt>
<rscale>  0 0.18597768E+03</rscale>
<asrwt>0</asrwt>
<pdfrwt beam="1">  1        1 0.22836868E-01 0.19146913E+03</pdfrwt>
<pdfrwt beam="2">  1       -1 0.34712143E-01 0.19146913E+03</pdfrwt>
<totfact> 0.16875335E+03</totfact>
</mgrwt>
</event>
<event>
 7    1  0.7800420E-006  0.1342366E+03  0.7546771E-02  0.1227188E+00
          1   -1    0    0  501    0  0.00000000000E+00  0.00000000000E+00  0.11032062329E+03  0.11032062329E+03  0.00000000000E+00 0. -1.
         -1   -1    0    0    0  501 -0.00000000000E+00 -0.00000000000E+00 -0.16021901964E+03  0.16021901964E+03  0.00000000000E+00 0.  1.
         23    2    1    2    0    0 -0.45599523822E+02  0.17783991405E+02  0.15261480665E+02  0.13510140548E+03  0.12499556011E+03 0.  0.
          5    1    3    3  502    0 -0.35444472492E+02 -0.29235731952E+02 -0.40415533040E+02  0.61372175812E+02  0.47000000000E+01 0. -1.
         -5    1    3    3    0  502 -0.10155051330E+02  0.47019723357E+02  0.55677013705E+02  0.73729229667E+02  0.47000000000E+01 0. -1.
        -11    1    1    2    0    0 -0.18838794439E+02  0.79448506065E+01 -0.62765951311E+02  0.66012010052E+02  0.00000000000E+00 0.  1.
         11    1    1    2    0    0  0.64438318260E+02 -0.25728842012E+02 -0.23939257040E+01  0.69426227405E+02  0.00000000000E+00 0. -1.
<mgrwt>
<rscale>  0 0.13018078E+03</rscale>
<asrwt>0</asrwt>
<pdfrwt beam="1">  1        1 0.16972404E-01 0.13423665E+03</pdfrwt>
<pdfrwt beam="2">  1       -1 0.24649080E-01 0.13423665E+03</pdfrwt>
<totfact> 0.43193518E+03</totfact>
</mgrwt>
</event>
<event>
 7    1  0.7800420E-006  0.1481396E+03  0.7546771E-02  0.1211593E+00
         -1   -1    0    0    0  501 -0.00000000000E+00  0.00000000000E+00  0.45009691369E+02  0.45009691369E+02  0.00000000000E+00 0.  1.
          1   -1    0    0  501    0  0.00000000000E+00 -0.00000000000E+00 -0.59770414509E+03  0.59770414509E+03  0.00000000000E+00 0. -1.
         23    2    1    2    0    0  0.79251415060E+02  0.62471355381E+01 -0.47498594486E+03  0.49755100325E+03  0.12500215809E+03 0.  0.
          5    1    3    3  502    0  0.11100862714E+03 -0.20719036850E+01 -0.31132971938E+03  0.33056843808E+03  0.47000000000E+01 0. -1.
         -5    1    3    3    0  502 -0.31757212078E+02  0.83190392231E+01 -0.16365622549E+03  0.16698256518E+03  0.47000000000E+01 0. -1.
        -11    1    1    2    0    0 -0.76579504759E+02 -0.40069954570E+02 -0.67704928755E+02  0.10979061520E+03  0.00000000000E+00 0. -1.
         11    1    1    2    0    0 -0.26719103015E+01  0.33822819032E+02 -0.10003580103E+02  0.35372218008E+02  0.00000000000E+00 0.  1.
<mgrwt>
<rscale>  0 0.14129815E+03</rscale>
<asrwt>0</asrwt>
<pdfrwt beam="2">  1        1 0.91954480E-01 0.14813964E+03</pdfrwt>
<pdfrwt beam="1">  1       -1 0.69245682E-02 0.14813964E+03</pdfrwt>
<totfact> 0.37067477E+03</totfact>
</mgrwt>
</event>
<event>
 7    1  0.7800420E-006  0.1387766E+03  0.7546771E-02  0.1226664E+00
         -4   -1    0    0    0  501 -0.00000000000E+00  0.00000000000E+00  0.18141931915E+03  0.18141931915E+03  0.00000000000E+00 0.  1.
          4   -1    0    0  501    0  0.00000000000E+00 -0.00000000000E+00 -0.84436418993E+02  0.84436418993E+02  0.00000000000E+00 0. -1.
         23    2    1    2    0    0  0.45845518238E+02  0.39068524257E+02  0.50200827930E+02  0.14757734871E+03  0.12502315624E+03 0.  0.
          5    1    3    3  502    0 -0.54314352439E+01 -0.42055840231E+02  0.14133749362E+02  0.44944933612E+02  0.47000000000E+01 0. -1.
         -5    1    3    3    0  502  0.51276953482E+02  0.81124364488E+02  0.36067078569E+02  0.10263241510E+03  0.47000000000E+01 0. -1.
        -11    1    1    2    0    0  0.13609614443E+02  0.14915404395E+02  0.30119494695E+02  0.36261203155E+02  0.00000000000E+00 0.  1.
         11    1    1    2    0    0 -0.59455132681E+02 -0.53983928652E+02  0.16662577527E+02  0.82017186276E+02  0.00000000000E+00 0. -1.
<mgrwt>
<rscale>  0 0.13053533E+03</rscale>
<asrwt>0</asrwt>
<pdfrwt beam="2">  1        4 0.12990218E-01 0.13877662E+03</pdfrwt>
<pdfrwt beam="1">  1       -4 0.27910664E-01 0.13877662E+03</pdfrwt>
<totfact> 0.97981363E+02</totfact>
</mgrwt>
</event>
<event>
 6    1  0.7800420E-006  0.1362546E+03  0.7546771E-02  0.1282448E+00
          2   -1    0    0  501    0  0.00000000000E+00  0.00000000000E+00  0.32287479312E+03  0.32287479312E+03  0.00000000000E+00 0. -1.
         -2   -1    0    0    0  501 -0.00000000000E+00 -0.00000000000E+00 -0.24499851866E+02  0.24499851866E+02  0.00000000000E+00 0.  1.
          5    1    1    2  502    0  0.14544619911E+02 -0.17844052379E+02  0.27379759673E+03  0.27480387579E+03  0.47000000000E+01 0. -1.
         -5    1    1    2    0  502 -0.95079230487E+01  0.29975408722E+00 -0.14586222181E+02  0.18037137542E+02  0.47000000000E+01 0.  1.
        -11    1    1    2    0    0  0.11343118641E+02  0.27808917052E+01  0.26843644851E+02  0.29274237275E+02  0.00000000000E+00 0. -1.
         11    1    1    2    0    0 -0.16379815504E+02  0.14763406586E+02  0.12319921858E+02  0.25259394382E+02  0.00000000000E+00 0.  1.
<mgrwt>
<rscale>  0 0.98983709E+02</rscale>
<asrwt>0</asrwt>
<pdfrwt beam="1">  1        2 0.49673042E-01 0.13625462E+03</pdfrwt>
<pdfrwt beam="2">  1       -2 0.37692082E-02 0.13625462E+03</pdfrwt>
<totfact> 0.28221553E+04</totfact>
</mgrwt>
</event>
<event>
 7    1  0.7800420E-006  0.1256014E+03  0.7546771E-02  0.1250364E+00
         -2   -1    0    0    0  501 -0.00000000000E+00  0.00000000000E+00  0.32253621414E+02  0.32253621414E+02  0.00000000000E+00 0.  1.
          2   -1    0    0  501    0  0.00000000000E+00 -0.00000000000E+00 -0.36279395078E+03  0.36279395078E+03  0.00000000000E+00 0. -1.
         23    2    1    2    0    0 -0.85089068326E+01  0.86007105671E+01 -0.20248303687E+03  0.23827525500E+03  0.12501737162E+03 0.  0.
          5    1    3    3  502    0 -0.27386781949E+02  0.42850513701E+02 -0.19031635914E+03  0.19704976251E+03  0.47000000000E+01 0. -1.
         -5    1    3    3    0  502  0.18877875117E+02 -0.34249803134E+02 -0.12166677729E+02  0.41225492485E+02  0.47000000000E+01 0. -1.
        -11    1    1    2    0    0  0.26722966675E+02  0.13457833401E+02 -0.48786046374E+01  0.30315524256E+02  0.00000000000E+00 0.  1.
         11    1    1    2    0    0 -0.18214059842E+02 -0.22058543968E+02 -0.12317868786E+03  0.12645679294E+03  0.00000000000E+00 0. -1.
<mgrwt>
<rscale>  0 0.11569983E+03</rscale>
<asrwt>0</asrwt>
<pdfrwt beam="2">  1        2 0.55814456E-01 0.12560142E+03</pdfrwt>
<pdfrwt beam="1">  1       -2 0.49620954E-02 0.12560142E+03</pdfrwt>
<totfact> 0.16430538E+04</totfact>
</mgrwt>
</event>
<event>
 7    1  0.7800420E-006  0.2934384E+03  0.7546771E-02  0.1090193E+00
         -2   -1    0    0    0  501 -0.00000000000E+00  0.00000000000E+00  0.31635959651E+02  0.31635959651E+02  0.00000000000E+00 0.  1.
          2   -1    0    0  501    0  0.00000000000E+00 -0.00000000000E+00 -0.32648172327E+04  0.32648172327E+04  0.00000000000E+00 0. -1.
         23    2    1    2    0    0 -0.23148278708E+03  0.12998796715E+03 -0.23832895472E+04  0.24012861504E+04  0.12499983255E+03 0.  0.
          5    1    3    3  502    0 -0.13733849576E+03  0.59139803672E+02 -0.17994120508E+04  0.18056204467E+04  0.47000000000E+01 0.  1.
         -5    1    3    3    0  502 -0.94144291327E+02  0.70848163483E+02 -0.58387749636E+03  0.59566570374E+03  0.47000000000E+01 0.  1.
        -11    1    1    2    0    0 -0.34235100955E+00 -0.15690288861E+02 -0.17205938718E+02  0.23288338196E+02  0.00000000000E+00 0.  1.
         11    1    1    2    0    0  0.23182513809E+03 -0.11429767829E+03 -0.83268578709E+03  0.87187870368E+03  0.00000000000E+00 0. -1.
<mgrwt>
<rscale>  0 0.29029976E+03</rscale>
<asrwt>0</asrwt>
<pdfrwt beam="2">  1        2 0.50227945E+00 0.29343843E+03</pdfrwt>
<pdfrwt beam="1">  1       -2 0.48670720E-02 0.29343843E+03</pdfrwt>
<totfact> 0.29145531E+02</totfact>
</mgrwt>
</event>
<event>
 7    1  0.7800420E-006  0.1329105E+03  0.7546771E-02  0.1236109E+00
          2   -1    0    0  501    0  0.00000000000E+00  0.00000000000E+00  0.39826632358E+03  0.39826632358E+03  0.00000000000E+00 0. -1.
         -2   -1    0    0    0  501 -0.00000000000E+00 -0.00000000000E+00 -0.36507115662E+02  0.36507115662E+02  0.00000000000E+00 0.  1.
         23    2    1    2    0    0 -0.40257270082E+02 -0.20399169729E+02  0.25313931906E+03  0.28591032315E+03  0.12501369568E+03 0.  0.
          5    1    3    3  502    0 -0.91409377817E+01  0.74522537053E+01  0.24213741695E+03  0.24247002189E+03  0.47000000000E+01 0. -1.
         -5    1    3    3    0  502 -0.31116332301E+02 -0.27851423435E+02  0.11001902109E+02  0.43440301256E+02  0.47000000000E+01 0. -1.
        -11    1    1    2    0    0  0.79883178748E+01 -0.31506703154E+02  0.12227965523E+02  0.34727636069E+02  0.00000000000E+00 0.  1.
         11    1    1    2    0    0  0.32268952207E+02  0.51905872883E+02  0.96391923334E+02  0.11413548002E+03  0.00000000000E+00 0. -1.
<mgrwt>
<rscale>  0 0.12433678E+03</rscale>
<asrwt>0</asrwt>
<pdfrwt beam="1">  1        2 0.61271739E-01 0.13291049E+03</pdfrwt>
<pdfrwt beam="2">  1       -2 0.56164796E-02 0.13291049E+03</pdfrwt>
<totfact> 0.12408383E+04</totfact>
</mgrwt>
</event>
<event>
 6    1  0.7800420E-006  0.1347368E+03  0.7546771E-02  0.1240395E+00
         -2   -1    0    0    0  501 -0.00000000000E+00  0.00000000000E+00  0.77372677393E+02  0.77372677393E+02  0.00000000000E+00 0.  1.
          2   -1    0    0  501    0  0.00000000000E+00 -0.00000000000E+00 -0.17850281851E+03  0.17850281851E+03  0.00000000000E+00 0. -1.
          5    1    1    2  502    0 -0.49605207335E+02 -0.44155623168E+02 -0.62241752827E+02  0.91140119854E+02  0.47000000000E+01 0. -1.
         -5    1    1    2    0  502  0.61349916627E+02  0.24904524263E+02 -0.35156875701E+02  0.75114203104E+02  0.47000000000E+01 0.  1.
        -11    1    1    2    0    0 -0.37540863808E+02  0.41152115208E+02 -0.20883037139E+01  0.55742031304E+02  0.00000000000E+00 0.  1.
         11    1    1    2    0    0  0.25796154516E+02 -0.21901016302E+02 -0.16432088747E+01  0.33879141641E+02  0.00000000000E+00 0. -1.
<mgrwt>
<rscale>  0 0.12165309E+03</rscale>
<asrwt>0</asrwt>
<pdfrwt beam="2">  1        2 0.27461972E-01 0.13473681E+03</pdfrwt>
<pdfrwt beam="1">  1       -2 0.11903489E-01 0.13473681E+03</pdfrwt>
<totfact> 0.91463723E+03</totfact>
</mgrwt>
</event>
<event>
 7    1  0.7800420E-006  0.3233795E+03  0.7546771E-02  0.1075358E+00
          1   -1    0    0  501    0  0.00000000000E+00  0.00000000000E+00  0.35891495907E+03  0.35891495907E+03  0.00000000000E+00 0. -1.
         -1   -1    0    0    0  501 -0.00000000000E+00 -0.00000000000E+00 -0.30716669483E+03  0.30716669483E+03  0.00000000000E+00 0.  1.
         23    2    1    2    0    0  0.17221595723E+03  0.24349351456E+03  0.12221411167E+03  0.34570302871E+03  0.12500746941E+03 0.  0.
          5    1    3    3  502    0  0.14283700302E+03  0.17783727040E+03  0.32236180868E+02  0.23041216446E+03  0.47000000000E+01 0. -1.
         -5    1    3    3    0  502  0.29378954208E+02  0.65656244168E+02  0.89977930797E+02  0.11529086425E+03  0.47000000000E+01 0. -1.
        -11    1    1    2    0    0 -0.12731364424E+03 -0.13315871898E+03 -0.80057991526E+02  0.20087132811E+03  0.00000000000E+00 0. -1.
         11    1    1    2    0    0 -0.44902312989E+02 -0.11033479558E+03  0.95921440992E+01  0.11950729708E+03  0.00000000000E+00 0.  1.
<mgrwt>
<rscale>  0 0.32063314E+03</rscale>
<asrwt>0</asrwt>
<pdfrwt beam="1">  1        1 0.55217686E-01 0.32337949E+03</pdfrwt>
<pdfrwt beam="2">  1       -1 0.47256414E-01 0.32337949E+03</pdfrwt>
<totfact> 0.31894644E+02</totfact>
</mgrwt>
</event>
<event>
 7    1  0.7800420E-006  0.1279114E+03  0.7546771E-02  0.1242457E+00
         -2   -1    0    0    0  501 -0.00000000000E+00  0.00000000000E+00  0.15485437977E+03  0.15485437977E+03  0.00000000000E+00 0.  1.
          2   -1    0    0  501    0  0.00000000000E+00 -0.00000000000E+00 -0.94190068940E+02  0.94190068940E+02  0.00000000000E+00 0. -1.
         23    2    1    2    0    0  0.96249324151E+01 -0.25137898997E+02 -0.68213730362E+01  0.12809317719E+03  0.12504710161E+03 0.  0.
          5    1    3    3  502    0  0.57997809859E+02  0.19811748443E+02  0.65674064620E+00  0.61471722223E+02  0.47000000000E+01 0.  1.
         -5    1    3    3    0  502 -0.48372877444E+02 -0.44949647440E+02 -0.74781136824E+01  0.66621454963E+02  0.47000000000E+01 0.  1.
        -11    1    1    2    0    0  0.11265000731E+02  0.28038045614E+02 -0.16451724443E+02  0.34404817693E+02  0.00000000000E+00 0. -1.
         11    1    1    2    0    0 -0.20889933146E+02 -0.29001466161E+01  0.83937408310E+02  0.86546453833E+02  0.00000000000E+00 0.  1.
<mgrwt>
<rscale>  0 0.12038906E+03</rscale>
<asrwt>0</asrwt>
<pdfrwt beam="2">  1        2 0.14490780E-01 0.12791142E+03</pdfrwt>
<pdfrwt beam="1">  1       -2 0.23823751E-01 0.12791142E+03</pdfrwt>
<totfact> 0.59447627E+03</totfact>
</mgrwt>
</event>
<event>
 7    1  0.7800420E-006  0.1428742E+03  0.7546771E-02  0.1220313E+00
          3   -1    0    0  501    0  0.00000000000E+00  0.00000000000E+00  0.19509304566E+02  0.19509304566E+02  0.00000000000E+00 0. -1.
         -3   -1    0    0    0  501 -0.00000000000E+00 -0.00000000000E+00 -0.87849673899E+03  0.87849673899E+03  0.00000000000E+00 0.  1.
         23    2    1    2    0    0 -0.67683063036E+02  0.14369522266E+02 -0.38716996808E+03  0.41269070693E+03  0.12500222084E+03 0.  0.
          5    1    3    3  502    0 -0.81322516658E+02  0.47420345309E+02 -0.18825065186E+03  0.21052895000E+03  0.47000000000E+01 0.  1.
         -5    1    3    3    0  502  0.13639453622E+02 -0.33050823043E+02 -0.19891931622E+03  0.20216175693E+03  0.47000000000E+01 0.  1.
        -11    1    1    2    0    0  0.82336919740E+02 -0.33589816493E+02 -0.38956111767E+03  0.39958166690E+03  0.00000000000E+00 0. -1.
         11    1    1    2    0    0 -0.14653856703E+02  0.19220294228E+02 -0.82256348678E+02  0.85733669724E+02  0.00000000000E+00 0.  1.
<mgrwt>
<rscale>  0 0.13493358E+03</rscale>
<asrwt>0</asrwt>
<pdfrwt beam="1">  1        3 0.30014308E-02 0.14287419E+03</pdfrwt>
<pdfrwt beam="2">  1       -3 0.13515337E+00 0.14287419E+03</pdfrwt>
<totfact> 0.52863269E+02</totfact>
</mgrwt>
</event>
<event>
 7    1  0.7800420E-006  0.2767504E+03  0.7546771E-02  0.1099396E+00
         -1   -1    0    0    0  501 -0.00000000000E+00  0.00000000000E+00  0.45573612670E+03  0.45573612670E+03  0.00000000000E+00 0.  1.
          1   -1    0    0  501    0  0.00000000000E+00 -0.00000000000E+00 -0.19124584446E+03  0.19124584446E+03  0.00000000000E+00 0. -1.
         23    2    1    2    0    0  0.24691105584E+03  0.36233698075E+01  0.42287729488E+01  0.27678267806E+03  0.12495027030E+03 0.  0.
          5    1    3    3  502    0  0.18358175913E+03 -0.53427788947E+02 -0.95485125168E+00  0.19125844467E+03  0.47000000000E+01 0. -1.
         -5    1    3    3    0  502  0.63329296713E+02  0.57051158755E+02  0.51836242004E+01  0.85524233392E+02  0.47000000000E+01 0. -1.
        -11    1    1    2    0    0 -0.18387664950E+03 -0.32194389223E+02  0.14759044227E+03  0.23797066957E+03  0.00000000000E+00 0. -1.
         11    1    1    2    0    0 -0.63034406343E+02  0.28571019416E+02  0.11267106703E+03  0.13222862352E+03  0.00000000000E+00 0.  1.
<mgrwt>
<rscale>  0 0.27331709E+03</rscale>
<asrwt>0</asrwt>
<pdfrwt beam="2">  1        1 0.29422438E-01 0.27675037E+03</pdfrwt>
<pdfrwt beam="1">  1       -1 0.70113250E-01 0.27675037E+03</pdfrwt>
<totfact> 0.33343112E+02</totfact>
</mgrwt>
</event>
<event>
 7    1  0.7800420E-006  0.2474267E+03  0.7546771E-02  0.1117456E+00
         -4   -1    0    0    0  501 -0.00000000000E+00  0.00000000000E+00  0.14864319903E+04  0.14864319903E+04  0.00000000000E+00 0.  1.
          4   -1    0    0  501    0  0.00000000000E+00 -0.00000000000E+00 -0.39103825381E+02  0.39103825381E+02  0.00000000000E+00 0. -1.
         23    2    1    2    0    0 -0.19320620094E+03  0.90931493695E+02  0.66865308482E+03  0.71296348232E+03  0.12499122632E+03 0.  0.
          5    1    3    3  502    0 -0.13767576379E+03  0.11405251495E+03  0.56924765720E+03  0.59668046502E+03  0.47000000000E+01 0.  1.
         -5    1    3    3    0  502 -0.55530437151E+02 -0.23121021252E+02  0.99405427612E+02  0.11628301730E+03  0.47000000000E+01 0.  1.
        -11    1    1    2    0    0  0.80020107207E+02 -0.56964488032E+02  0.21120808042E+03  0.23293137120E+03  0.00000000000E+00 0. -1.
         11    1    1    2    0    0  0.11318609374E+03 -0.33967005663E+02  0.56746699973E+03  0.57964096221E+03  0.00000000000E+00 0.  1.
<mgrwt>
<rscale>  0 0.24354136E+03</rscale>
<asrwt>0</asrwt>
<pdfrwt beam="2">  1        4 0.60159743E-02 0.24742671E+03</pdfrwt>
<pdfrwt beam="1">  1       -4 0.22868180E+00 0.24742671E+03</pdfrwt>
<totfact> 0.30981770E+01</totfact>
</mgrwt>
</event>
<event>
 7    1  0.7800420E-006  0.1433968E+03  0.7546771E-02  0.1219277E+00
          2   -1    0    0  501    0  0.00000000000E+00  0.00000000000E+00  0.21486103646E+03  0.21486103646E+03  0.00000000000E+00 0. -1.
         -2   -1    0    0    0  501 -0.00000000000E+00 -0.00000000000E+00 -0.80588484332E+02  0.80588484332E+02  0.00000000000E+00 0.  1.
         23    2    1    2    0    0 -0.33981746400E+02  0.61506479601E+02  0.10241736862E+03  0.17621565317E+03  0.12499933162E+03 0.  0.
          5    1    3    3  502    0 -0.30623667392E+02 -0.31758538770E+02  0.11485555146E+02  0.45830358567E+02  0.47000000000E+01 0.  1.
         -5    1    3    3    0  502 -0.33580790076E+01  0.93265018371E+02  0.90931813471E+02  0.13038529460E+03  0.47000000000E+01 0.  1.
        -11    1    1    2    0    0 -0.25849353832E+01 -0.53323132541E+02 -0.18470096981E+02  0.56490555294E+02  0.00000000000E+00 0.  1.
         11    1    1    2    0    0  0.36566681783E+02 -0.81833470591E+01  0.50325280496E+02  0.62743312335E+02  0.00000000000E+00 0. -1.
<mgrwt>
<rscale>  0 0.13567017E+03</rscale>
<asrwt>0</asrwt>
<pdfrwt beam="1">  1        2 0.33055544E-01 0.14339679E+03</pdfrwt>
<pdfrwt beam="2">  1       -2 0.12398228E-01 0.14339679E+03</pdfrwt>
<totfact> 0.70409661E+03</totfact>
</mgrwt>
</event>
<event>
 7    1  0.7800420E-006  0.1988582E+03  0.7546771E-02  0.1154865E+00
          2   -1    0    0  501    0  0.00000000000E+00  0.00000000000E+00  0.62372549875E+03  0.62372549875E+03  0.00000000000E+00 0. -1.
         -2   -1    0    0    0  501 -0.00000000000E+00 -0.00000000000E+00 -0.59343073162E+02  0.59343073162E+02  0.00000000000E+00 0.  1.
         23    2    1    2    0    0  0.19406151767E+02  0.15342782183E+03  0.23744028933E+03  0.30971353439E+03  0.12501154805E+03 0.  0.
          5    1    3    3  502    0 -0.67828244488E+00  0.83879623454E+01 -0.15007909083E+02  0.17836628449E+02  0.47000000000E+01 0. -1.
         -5    1    3    3    0  502  0.20084434211E+02  0.14503985948E+03  0.25244819842E+03  0.29187690594E+03  0.47000000000E+01 0. -1.
        -11    1    1    2    0    0  0.20974157846E+02 -0.56744373309E+02  0.54370738680E+02  0.81338898592E+02  0.00000000000E+00 0.  1.
         11    1    1    2    0    0 -0.40380309613E+02 -0.96683448517E+02  0.27257139757E+03  0.29201613893E+03  0.00000000000E+00 0. -1.
<mgrwt>
<rscale>  0 0.19404290E+03</rscale>
<asrwt>0</asrwt>
<pdfrwt beam="1">  1        2 0.95957765E-01 0.19885820E+03</pdfrwt>
<pdfrwt beam="2">  1       -2 0.91297040E-02 0.19885820E+03</pdfrwt>
<totfact> 0.36506196E+03</totfact>
</mgrwt>
</event>
<event>
 7    1  0.7800420E-006  0.1426035E+03  0.7546771E-02  0.1219802E+00
         -2   -1    0    0    0  501 -0.00000000000E+00  0.00000000000E+00  0.53532081504E+02  0.53532081504E+02  0.00000000000E+00 0.  1.
          2   -1    0    0  501    0  0.00000000000E+00 -0.00000000000E+00 -0.43694360534E+03  0.43694360534E+03  0.00000000000E+00 0. -1.
         23    2    1    2    0    0 -0.60938518537E+01 -0.68354094040E+02 -0.33704793739E+03  0.36597412081E+03  0.12500531110E+03 0.  0.
          5    1    3    3  502    0 -0.61824811315E+02 -0.16234498111E+02 -0.12325249202E+03  0.13892131950E+03  0.47000000000E+01 0.  1.
         -5    1    3    3    0  502  0.55730959462E+02 -0.52119595928E+02 -0.21379544537E+03  0.22705280131E+03  0.47000000000E+01 0.  1.
        -11    1    1    2    0    0  0.20377310617E+02  0.71679820521E+02 -0.66305288706E+02  0.99747795807E+02  0.00000000000E+00 0. -1.
         11    1    1    2    0    0 -0.14283458763E+02 -0.33257264813E+01  0.19941702265E+02  0.24753770220E+02  0.00000000000E+00 0.  1.
<mgrwt>
<rscale>  0 0.13529663E+03</rscale>
<asrwt>0</asrwt>
<pdfrwt beam="2">  1        2 0.67222090E-01 0.14260345E+03</pdfrwt>
<pdfrwt beam="1">  1       -2 0.82357052E-02 0.14260345E+03</pdfrwt>
<totfact> 0.62866917E+03</totfact>
</mgrwt>
</event>
<event>
 7    1  0.7800420E-006  0.1284743E+03  0.7546771E-02  0.1244901E+00
         -3   -1    0    0    0  501 -0.00000000000E+00  0.00000000000E+00  0.34723351562E+02  0.34723351562E+02  0.00000000000E+00 0.  1.
          3   -1    0    0  501    0  0.00000000000E+00 -0.00000000000E+00 -0.42411489946E+03  0.42411489946E+03  0.00000000000E+00 0. -1.
         23    2    1    2    0    0 -0.26407751930E+01  0.29546953952E+02 -0.31002662079E+03  0.33559223294E+03  0.12500258009E+03 0.  0.
          5    1    3    3  502    0 -0.23089506432E+02  0.21797020876E+02 -0.84567533371E+01  0.33194007039E+02  0.47000000000E+01 0. -1.
         -5    1    3    3    0  502  0.20448731239E+02  0.77499330759E+01 -0.30156986745E+03  0.30239822590E+03  0.47000000000E+01 0. -1.
        -11    1    1    2    0    0  0.21197981737E+01 -0.58289865247E+02 -0.28731324068E+02  0.65020696070E+02  0.00000000000E+00 0.  1.
         11    1    1    2    0    0  0.52097701930E+00  0.28742911295E+02 -0.50633603043E+02  0.58225322016E+02  0.00000000000E+00 0. -1.
<mgrwt>
<rscale>  0 0.11891310E+03</rscale>
<asrwt>0</asrwt>
<pdfrwt beam="2">  1        3 0.65248450E-01 0.12847428E+03</pdfrwt>
<pdfrwt beam="1">  1       -3 0.53420538E-02 0.12847428E+03</pdfrwt>
<totfact> 0.10833684E+03</totfact>
</mgrwt>
</event>
<event>
 7    1  0.7800420E-006  0.2199214E+03  0.7546771E-02  0.1137239E+00
          1   -1    0    0  501    0  0.00000000000E+00  0.00000000000E+00  0.50417435688E+03  0.50417435688E+03  0.00000000000E+00 0. -1.
         -1   -1    0    0    0  501 -0.00000000000E+00 -0.00000000000E+00 -0.13725887224E+03  0.13725887224E+03  0.00000000000E+00 0.  1.
         23    2    1    2    0    0 -0.13210601163E+03 -0.12358881925E+03  0.37890371953E+03  0.43810209697E+03  0.12505688362E+03 0.  0.
          5    1    3    3  502    0 -0.31070967248E+02  0.22779736761E+02  0.10016963513E+03  0.10742610118E+03  0.47000000000E+01 0.  1.
         -5    1    3    3    0  502 -0.10103504438E+03 -0.14636855602E+03  0.27873408440E+03  0.33067599578E+03  0.47000000000E+01 0.  1.
        -11    1    1    2    0    0  0.12180661465E+01  0.54390494481E+02 -0.96818366933E+01  0.55258913641E+02  0.00000000000E+00 0. -1.
         11    1    1    2    0    0  0.13088794548E+03  0.69198324773E+02 -0.23063982005E+01  0.14807221851E+03  0.00000000000E+00 0.  1.
<mgrwt>
<rscale>  0 0.21555720E+03</rscale>
<asrwt>0</asrwt>
<pdfrwt beam="1">  1        1 0.77565285E-01 0.21992139E+03</pdfrwt>
<pdfrwt beam="2">  1       -1 0.21116750E-01 0.21992139E+03</pdfrwt>
<totfact> 0.82588508E+02</totfact>
</mgrwt>
</event>
<event>
 7    1  0.7800420E-006  0.1264584E+03  0.7546771E-02  0.1249109E+00
          4   -1    0    0  501    0  0.00000000000E+00  0.00000000000E+00  0.53873576904E+02  0.53873576904E+02  0.00000000000E+00 0. -1.
         -4   -1    0    0    0  501 -0.00000000000E+00 -0.00000000000E+00 -0.21963659883E+03  0.21963659883E+03  0.00000000000E+00 0.  1.
         23    2    1    2    0    0 -0.38187743927E+00 -0.19175189633E+02 -0.90159274004E+02  0.15530751585E+03  0.12499558417E+03 0.  0.
          5    1    3    3  502    0 -0.45284228953E+01  0.62650605062E+01 -0.11726214558E+03  0.11761062189E+03  0.47000000000E+01 0.  1.
         -5    1    3    3    0  502  0.41465454560E+01 -0.25440250139E+02  0.27102871572E+02  0.37696893955E+02  0.47000000000E+01 0.  1.
        -11    1    1    2    0    0 -0.37570996340E+02  0.32121605991E+01 -0.72387616729E+01  0.38396580737E+02  0.00000000000E+00 0.  1.
         11    1    1    2    0    0  0.37952873780E+02  0.15963029034E+02 -0.68364986245E+02  0.79806079144E+02  0.00000000000E+00 0. -1.
<mgrwt>
<rscale>  0 0.11642778E+03</rscale>
<asrwt>0</asrwt>
<pdfrwt beam="1">  1        4 0.82882425E-02 0.12645841E+03</pdfrwt>
<pdfrwt beam="2">  1       -4 0.33790246E-01 0.12645841E+03</pdfrwt>
<totfact> 0.14284396E+03</totfact>
</mgrwt>
</event>
<event>
 6    1  0.7800420E-006  0.1819228E+03  0.7546771E-02  0.1194052E+00
         -2   -1    0    0    0  501 -0.00000000000E+00  0.00000000000E+00  0.19409666066E+02  0.19409666066E+02  0.00000000000E+00 0. -1.
          2   -1    0    0  501    0  0.00000000000E+00 -0.00000000000E+00 -0.12657280932E+04  0.12657280932E+04  0.00000000000E+00 0.  1.
          5    1    1    2  502    0  0.52127518403E+02 -0.84381826559E+02 -0.69808008747E+03  0.70510670778E+03  0.47000000000E+01 0. -1.
         -5    1    1    2    0  502 -0.12190569130E+02  0.77549328293E+02 -0.35890345624E+03  0.36741841161E+03  0.47000000000E+01 0.  1.
        -11    1    1    2    0    0  0.87656535891E+01  0.25349042483E+02 -0.15156334627E+02  0.30807874269E+02  0.00000000000E+00 0.  1.
         11    1    1    2    0    0 -0.48702602863E+02 -0.18516544217E+02 -0.17417854879E+03  0.18180476559E+03  0.00000000000E+00 0. -1.
<mgrwt>
<rscale>  0 0.15534749E+03</rscale>
<asrwt>0</asrwt>
<pdfrwt beam="2">  1        2 0.19472736E+00 0.18192284E+03</pdfrwt>
<pdfrwt beam="1">  1       -2 0.29861031E-02 0.18192284E+03</pdfrwt>
<totfact> 0.77099283E+03</totfact>
</mgrwt>
</event>
<event>
 7    1  0.7800420E-006  0.1636957E+03  0.7546771E-02  0.1192377E+00
         -3   -1    0    0    0  501 -0.00000000000E+00  0.00000000000E+00  0.12740334413E+03  0.12740334413E+03  0.00000000000E+00 0.  1.
          3   -1    0    0  501    0  0.00000000000E+00 -0.00000000000E+00 -0.19014340849E+03  0.19014340849E+03  0.00000000000E+00 0. -1.
         23    2    1    2    0    0  0.10517030786E+03 -0.10523367561E+02 -0.73376661241E+02  0.17938899914E+03  0.12499897471E+03 0.  0.
          5    1    3    3  502    0  0.71038547636E+02 -0.47811917470E+02 -0.91570826479E+02  0.12545820405E+03  0.47000000000E+01 0. -1.
         -5    1    3    3    0  502  0.34131760223E+02  0.37288549908E+02  0.18194165238E+02  0.53930795089E+02  0.47000000000E+01 0. -1.
        -11    1    1    2    0    0 -0.11202372443E+03 -0.10587636124E+02  0.19606227413E+02  0.11421828675E+03  0.00000000000E+00 0. -1.
         11    1    1    2    0    0  0.68534165755E+01  0.21111003685E+02 -0.89696305332E+01  0.23939466729E+02  0.00000000000E+00 0.  1.
<mgrwt>
<rscale>  0 0.15678302E+03</rscale>
<asrwt>0</asrwt>
<pdfrwt beam="2">  1        3 0.29252832E-01 0.16369569E+03</pdfrwt>
<pdfrwt beam="1">  1       -3 0.19600515E-01 0.16369569E+03</pdfrwt>
<totfact> 0.62240692E+02</totfact>
</mgrwt>
</event>
<event>
 7    1  0.7800420E-006  0.1269447E+03  0.7546771E-02  0.1246793E+00
          1   -1    0    0  501    0  0.00000000000E+00  0.00000000000E+00  0.51014571964E+02  0.51014571964E+02  0.00000000000E+00 0. -1.
         -1   -1    0    0    0  501 -0.00000000000E+00 -0.00000000000E+00 -0.24143309812E+03  0.24143309812E+03  0.00000000000E+00 0.  1.
         23    2    1    2    0    0  0.41872773813E+01 -0.21746494874E+02 -0.96053296811E+02  0.15918914014E+03  0.12499801270E+03 0.  0.
          5    1    3    3  502    0  0.53923659545E+02 -0.41842868409E+02 -0.74607424586E+02  0.10122719249E+03  0.47000000000E+01 0. -1.
         -5    1    3    3    0  502 -0.49736382164E+02  0.20096373535E+02 -0.21445872225E+02  0.57961947651E+02  0.47000000000E+01 0. -1.
        -11    1    1    2    0    0  0.16564846218E+02 -0.28212525048E+02 -0.62310746766E+02  0.70377339125E+02  0.00000000000E+00 0.  1.
         11    1    1    2    0    0 -0.20752123599E+02  0.49959019922E+02 -0.32054482574E+02  0.62881190817E+02  0.00000000000E+00 0. -1.
<mgrwt>
<rscale>  0 0.11778700E+03</rscale>
<asrwt>0</asrwt>
<pdfrwt beam="1">  1        1 0.78483955E-02 0.12694466E+03</pdfrwt>
<pdfrwt beam="2">  1       -1 0.37143554E-01 0.12694466E+03</pdfrwt>
<totfact> 0.59453572E+03</totfact>
</mgrwt>
</event>
<event>
 7    1  0.7800420E-006  0.1383306E+03  0.7546771E-02  0.1225379E+00
          2   -1    0    0  501    0  0.00000000000E+00  0.00000000000E+00  0.10840127142E+03  0.10840127142E+03  0.00000000000E+00 0. -1.
         -2   -1    0    0    0  501 -0.00000000000E+00 -0.00000000000E+00 -0.14989371257E+03  0.14989371257E+03  0.00000000000E+00 0.  1.
         23    2    1    2    0    0 -0.59000665953E+02 -0.54022465944E+01 -0.26296746020E+00  0.13833089060E+03  0.12500041316E+03 0.  0.
          5    1    3    3  502    0 -0.76127234725E+02 -0.54208485198E+01 -0.46022166268E+02  0.89246127387E+02  0.47000000000E+01 0.  1.
         -5    1    3    3    0  502  0.17126568772E+02  0.18601925431E-01  0.45759198808E+02  0.49084763211E+02  0.47000000000E+01 0.  1.
        -11    1    1    2    0    0  0.32600348039E+02  0.13646759662E+02 -0.71011733296E+02  0.79320129900E+02  0.00000000000E+00 0.  1.
         11    1    1    2    0    0  0.26400317913E+02 -0.82445130672E+01  0.29782259602E+02  0.40643963495E+02  0.00000000000E+00 0. -1.
<mgrwt>
<rscale>  0 0.13140987E+03</rscale>
<asrwt>0</asrwt>
<pdfrwt beam="1">  1        2 0.16677119E-01 0.13833064E+03</pdfrwt>
<pdfrwt beam="2">  1       -2 0.23060571E-01 0.13833064E+03</pdfrwt>
<totfact> 0.53684204E+03</totfact>
</mgrwt>
</event>
<event>
 7    1  0.7800420E-006  0.1334714E+03  0.7546771E-02  0.1237066E+00
         -2   -1    0    0    0  501 -0.00000000000E+00  0.00000000000E+00  0.35575305040E+02  0.35575305040E+02  0.00000000000E+00 0.  1.
          2   -1    0    0  501    0  0.00000000000E+00 -0.00000000000E+00 -0.64029399087E+03  0.64029399087E+03  0.00000000000E+00 0. -1.
         23    2    1    2    0    0 -0.44145885908E+02  0.15361800548E+02 -0.54391941728E+03  0.56005619607E+03  0.12501906295E+03 0.  0.
          5    1    3    3  502    0 -0.57251220774E+02  0.34629607053E+02 -0.13795931252E+03  0.15340069711E+03  0.47000000000E+01 0. -1.
         -5    1    3    3    0  502  0.13105334866E+02 -0.19267806506E+02 -0.40596010477E+03  0.40665549896E+03  0.47000000000E+01 0. -1.
        -11    1    1    2    0    0  0.14414403694E+02  0.24754157667E+02  0.89700765330E+01  0.30016755798E+02  0.00000000000E+00 0.  1.
         11    1    1    2    0    0  0.29731482213E+02 -0.40115958214E+02 -0.69769345079E+02  0.85796344041E+02  0.00000000000E+00 0. -1.
<mgrwt>
<rscale>  0 0.12373078E+03</rscale>
<asrwt>0</asrwt>
<pdfrwt beam="2">  1        2 0.98506778E-01 0.13347138E+03</pdfrwt>
<pdfrwt beam="1">  1       -2 0.54731233E-02 0.13347138E+03</pdfrwt>
<totfact> 0.76438161E+03</totfact>
</mgrwt>
</event>
<event>
 7    1  0.7800420E-006  0.2118274E+03  0.7546771E-02  0.1143869E+00
          2   -1    0    0  501    0  0.00000000000E+00  0.00000000000E+00  0.48667058086E+03  0.48667058086E+03  0.00000000000E+00 0. -1.
         -2   -1    0    0    0  501 -0.00000000000E+00 -0.00000000000E+00 -0.84534928928E+02  0.84534928928E+02  0.00000000000E+00 0.  1.
         23    2    1    2    0    0  0.13856757467E+03 -0.10021785474E+03  0.21965462321E+03  0.30515409348E+03  0.12500510434E+03 0.  0.
          5    1    3    3  502    0  0.83737524712E+02 -0.27506840264E+02  0.27482695065E+02  0.92444512191E+02  0.47000000000E+01 0.  1.
         -5    1    3    3    0  502  0.54830049961E+02 -0.72711014478E+02  0.19217192815E+03  0.21270958129E+03  0.47000000000E+01 0.  1.
        -11    1    1    2    0    0 -0.52059816267E+02  0.12856440272E+02  0.11239642998E+03  0.12453300767E+03  0.00000000000E+00 0.  1.
         11    1    1    2    0    0 -0.86507758406E+02  0.87361414470E+02  0.70084598732E+02  0.14151840863E+03  0.00000000000E+00 0. -1.
<mgrwt>
<rscale>  0 0.20711782E+03</rscale>
<asrwt>0</asrwt>
<pdfrwt beam="1">  1        2 0.74872395E-01 0.21182745E+03</pdfrwt>
<pdfrwt beam="2">  1       -2 0.13005374E-01 0.21182745E+03</pdfrwt>
<totfact> 0.27539217E+03</totfact>
</mgrwt>
</event>
<event>
 7    1  0.7800420E-006  0.2249363E+03  0.7546771E-02  0.1133411E+00
          2   -1    0    0  501    0  0.00000000000E+00  0.00000000000E+00  0.12658616254E+04  0.12658616254E+04  0.00000000000E+00 0. -1.
         -2   -1    0    0    0  501 -0.00000000000E+00 -0.00000000000E+00 -0.38373276558E+02  0.38373276558E+02  0.00000000000E+00 0.  1.
         23    2    1    2    0    0 -0.11846646378E+03 -0.14469144181E+03  0.75742919248E+03  0.79012362073E+03  0.12500575201E+03 0.  0.
          5    1    3    3  502    0 -0.62534023349E+02 -0.14884993364E+03  0.46305171483E+03  0.49041389400E+03  0.47000000000E+01 0.  1.
         -5    1    3    3    0  502 -0.55932440433E+02  0.41584918297E+01  0.29437747765E+03  0.29970972673E+03  0.47000000000E+01 0.  1.
        -11    1    1    2    0    0  0.42251244247E+02  0.91859622129E+02  0.15006164942E+03  0.18094710953E+03  0.00000000000E+00 0.  1.
         11    1    1    2    0    0  0.76215219535E+02  0.52831819685E+02  0.31999750690E+03  0.33316417166E+03  0.00000000000E+00 0. -1.
<mgrwt>
<rscale>  0 0.22063497E+03</rscale>
<asrwt>0</asrwt>
<pdfrwt beam="1">  1        2 0.19474791E+00 0.22493633E+03</pdfrwt>
<pdfrwt beam="2">  1       -2 0.59035820E-02 0.22493633E+03</pdfrwt>
<totfact> 0.27769955E+03</totfact>
</mgrwt>
</event>
<event>
 7    1  0.7800420E-006  0.1609944E+03  0.7546771E-02  0.1194034E+00
         -2   -1    0    0    0  501 -0.00000000000E+00  0.00000000000E+00  0.90084293211E+02  0.90084293211E+02  0.00000000000E+00 0.  1.
          2   -1    0    0  501    0  0.00000000000E+00 -0.00000000000E+00 -0.43317946514E+03  0.43317946514E+03  0.00000000000E+00 0. -1.
         23    2    1    2    0    0  0.97015215220E+02  0.46780544499E+02 -0.34812768754E+03  0.38355192161E+03  0.11966126529E+03 0.  0.
          5    1    3    3  502    0  0.91511201297E+02  0.83005595890E+02 -0.25595443110E+03  0.28425163097E+03  0.47000000000E+01 0. -1.
         -5    1    3    3    0  502  0.55040139229E+01 -0.36225051391E+02 -0.92173256443E+02  0.99300290639E+02  0.47000000000E+01 0.  1.
        -11    1    1    2    0    0 -0.90315805850E+02 -0.69628767963E+02  0.12585760040E+02  0.11473234710E+03  0.00000000000E+00 0.  1.
         11    1    1    2    0    0 -0.66994093702E+01  0.22848223464E+02 -0.75532444257E+01  0.24979489641E+02  0.00000000000E+00 0. -1.
<mgrwt>
<rscale>  0 0.15536237E+03</rscale>
<asrwt>0</asrwt>
<pdfrwt beam="2">  1        2 0.66642993E-01 0.16099438E+03</pdfrwt>
<pdfrwt beam="1">  1       -2 0.13859122E-01 0.16099438E+03</pdfrwt>
<totfact> 0.27964874E+03</totfact>
</mgrwt>
</event>
<event>
 7    1  0.7800420E-006  0.1286216E+03  0.7546771E-02  0.1245576E+00
          2   -1    0    0  501    0  0.00000000000E+00  0.00000000000E+00  0.33475420312E+03  0.33475420312E+03  0.00000000000E+00 0. -1.
         -2   -1    0    0    0  501 -0.00000000000E+00 -0.00000000000E+00 -0.41226733414E+02  0.41226733414E+02  0.00000000000E+00 0.  1.
         23    2    1    2    0    0  0.10985961848E+02 -0.28243585915E+02  0.23026248066E+03  0.26375049403E+03  0.12500048639E+03 0.  0.
          5    1    3    3  502    0  0.60251499932E+02 -0.38761131714E+02  0.93198138715E+02  0.11764629886E+03  0.47000000000E+01 0.  1.
         -5    1    3    3    0  502 -0.49265538084E+02  0.10517545799E+02  0.13706434195E+03  0.14610419517E+03  0.47000000000E+01 0.  1.
        -11    1    1    2    0    0 -0.43386573765E+02  0.19969301471E+02  0.62656389603E+02  0.78784458762E+02  0.00000000000E+00 0. -1.
         11    1    1    2    0    0  0.32400611916E+02  0.82742844440E+01  0.60859944640E+00  0.33445983748E+02  0.00000000000E+00 0.  1.
<mgrwt>
<rscale>  0 0.11850996E+03</rscale>
<asrwt>0</asrwt>
<pdfrwt beam="1">  1        2 0.51500645E-01 0.12862159E+03</pdfrwt>
<pdfrwt beam="2">  1       -2 0.63425746E-02 0.12862159E+03</pdfrwt>
<totfact> 0.12381961E+04</totfact>
</mgrwt>
</event>
<event>
 7    1  0.7800420E-006  0.1352302E+03  0.7546771E-02  0.1235195E+00
          2   -1    0    0  501    0  0.00000000000E+00  0.00000000000E+00  0.53771895961E+03  0.53771895961E+03  0.00000000000E+00 0. -1.
         -2   -1    0    0    0  501 -0.00000000000E+00 -0.00000000000E+00 -0.48396673977E+02  0.48396673977E+02  0.00000000000E+00 0.  1.
         23    2    1    2    0    0  0.18097426832E+02 -0.48343428862E+02  0.46558470054E+03  0.48482607182E+03  0.12499040993E+03 0.  0.
          5    1    3    3  502    0 -0.24088045126E+02 -0.23045710856E+02  0.26169294648E+02  0.42641068106E+02  0.47000000000E+01 0.  1.
         -5    1    3    3    0  502  0.42185471959E+02 -0.25297718006E+02  0.43941540589E+03  0.44218500372E+03  0.47000000000E+01 0.  1.
        -11    1    1    2    0    0  0.69880559708E+01  0.58377248964E+02  0.38717101478E+02  0.70397088503E+02  0.00000000000E+00 0. -1.
         11    1    1    2    0    0 -0.25085482803E+02 -0.10033820103E+02 -0.14979516379E+02  0.30892473262E+02  0.00000000000E+00 0.  1.
<mgrwt>
<rscale>  0 0.12491941E+03</rscale>
<asrwt>0</asrwt>
<pdfrwt beam="1">  1        2 0.82725989E-01 0.13523020E+03</pdfrwt>
<pdfrwt beam="2">  1       -2 0.74456425E-02 0.13523020E+03</pdfrwt>
<totfact> 0.58354817E+03</totfact>
</mgrwt>
</event>
<event>
 7    1  0.8441482E-006  0.2817569E+03  0.7546771E-02  0.1096562E+00
         -1   -1    0    0    0  501 -0.00000000000E+00  0.00000000000E+00  0.93278107128E+02  0.93278107128E+02  0.00000000000E+00 0.  1.
          1   -1    0    0  501    0  0.00000000000E+00 -0.00000000000E+00 -0.11221411061E+04  0.11221411061E+04  0.00000000000E+00 0. -1.
         23    2    1    2    0    0  0.10557213647E+03 -0.22938255818E+03 -0.84286609182E+03  0.88871266899E+03  0.12500050118E+03 0.  0.
          5    1    3    3  502    0  0.91247142538E+02 -0.55404313708E+02 -0.30118430236E+03  0.31957746007E+03  0.47000000000E+01 0. -1.
         -5    1    3    3    0  502  0.14324993933E+02 -0.17397824448E+03 -0.54168178945E+03  0.56913520892E+03  0.47000000000E+01 0. -1.
        -11    1    1    2    0    0 -0.27893846132E+02  0.12553173655E+03 -0.47805629536E+02  0.13719206154E+03  0.00000000000E+00 0.  1.
         11    1    1    2    0    0 -0.77678290339E+02  0.10385082163E+03 -0.13819127763E+03  0.18951448271E+03  0.00000000000E+00 0. -1.
<mgrwt>
<rscale>  0 0.27840671E+03</rscale>
<asrwt>0</asrwt>
<pdfrwt beam="2">  1        1 0.17263710E+00 0.28175692E+03</pdfrwt>
<pdfrwt beam="1">  1       -1 0.14350477E-01 0.28175692E+03</pdfrwt>
<totfact> 0.45020442E+02</totfact>
</mgrwt>
</event>
<event>
 7    1  0.7800420E-006  0.1557275E+03  0.7546771E-02  0.1201762E+00
         -2   -1    0    0    0  501 -0.00000000000E+00  0.00000000000E+00  0.15176762416E+02  0.15176762416E+02  0.00000000000E+00 0.  1.
          2   -1    0    0  501    0  0.00000000000E+00 -0.00000000000E+00 -0.16512240123E+04  0.16512240123E+04  0.00000000000E+00 0. -1.
         23    2    1    2    0    0  0.26355122767E+02 -0.89052724316E+02 -0.12330549774E+04  0.12428497980E+04  0.12500425180E+03 0.  0.
          5    1    3    3  502    0  0.42464982123E+02 -0.84650057728E+02 -0.12113847253E+04  0.12150900994E+04  0.47000000000E+01 0. -1.
         -5    1    3    3    0  502 -0.16109859356E+02 -0.44026665885E+01 -0.21670252087E+02  0.27759698613E+02  0.47000000000E+01 0. -1.
        -11    1    1    2    0    0 -0.54983741944E+02  0.33627850986E+02 -0.15572002242E+03  0.16853121261E+03  0.00000000000E+00 0.  1.
         11    1    1    2    0    0  0.28628619177E+02  0.55424873330E+02 -0.24727225006E+03  0.25501976408E+03  0.00000000000E+00 0. -1.
<mgrwt>
<rscale>  0 0.14895551E+03</rscale>
<asrwt>0</asrwt>
<pdfrwt beam="2">  1        2 0.25403455E+00 0.15572746E+03</pdfrwt>
<pdfrwt beam="1">  1       -2 0.23348857E-02 0.15572746E+03</pdfrwt>
<totfact> 0.68816506E+03</totfact>
</mgrwt>
</event>
<event>
 7    1  0.7800420E-006  0.1277421E+03  0.7546771E-02  0.1243489E+00
          1   -1    0    0  501    0  0.00000000000E+00  0.00000000000E+00  0.10152943980E+04  0.10152943980E+04  0.00000000000E+00 0. -1.
         -1   -1    0    0    0  501 -0.00000000000E+00 -0.00000000000E+00 -0.12639508955E+02  0.12639508955E+02  0.00000000000E+00 0.  1.
         23    2    1    2    0    0 -0.23238802810E+02  0.12329872049E+02  0.58277230832E+03  0.59660842524E+03  0.12500392802E+03 0.  0.
          5    1    3    3  502    0  0.47265429666E+02 -0.85652324387E+01  0.14899895818E+03  0.15662108283E+03  0.47000000000E+01 0.  1.
         -5    1    3    3    0  502 -0.70504232477E+02  0.20895104487E+02  0.43377335014E+03  0.43998734241E+03  0.47000000000E+01 0.  1.
        -11    1    1    2    0    0  0.36055742231E+02 -0.48050559915E+02  0.28110485380E+03  0.28745227723E+03  0.00000000000E+00 0. -1.
         11    1    1    2    0    0 -0.12816939420E+02  0.35720687867E+02  0.13877772693E+03  0.14387320449E+03  0.00000000000E+00 0.  1.
<mgrwt>
<rscale>  0 0.11976284E+03</rscale>
<asrwt>0</asrwt>
<pdfrwt beam="1">  1        1 0.15619907E+00 0.12774212E+03</pdfrwt>
<pdfrwt beam="2">  1       -1 0.19445406E-02 0.12774212E+03</pdfrwt>
<totfact> 0.10685332E+04</totfact>
</mgrwt>
</event>
<event>
 7    1  0.7800420E-006  0.1292415E+03  0.7546771E-02  0.1243151E+00
          1   -1    0    0  501    0  0.00000000000E+00  0.00000000000E+00  0.61668012410E+03  0.61668012410E+03  0.00000000000E+00 0. -1.
         -1   -1    0    0    0  501 -0.00000000000E+00 -0.00000000000E+00 -0.21184872349E+02  0.21184872349E+02  0.00000000000E+00 0.  1.
         23    2    1    2    0    0 -0.28690495482E+02 -0.15914935038E+02  0.39472645742E+03  0.41534605241E+03  0.12500774929E+03 0.  0.
          5    1    3    3  502    0 -0.70017888550E+02 -0.25210420598E+02  0.15673482018E+03  0.17356832626E+03  0.47000000000E+01 0.  1.
         -5    1    3    3    0  502  0.41327393068E+02  0.92954855605E+01  0.23799163724E+03  0.24177772615E+03  0.47000000000E+01 0.  1.
        -11    1    1    2    0    0  0.44278975177E+02 -0.27137515840E+01  0.19141708361E+03  0.19649043740E+03  0.00000000000E+00 0. -1.
         11    1    1    2    0    0 -0.15588479695E+02  0.18628686622E+02  0.93517107259E+01  0.26028506641E+02  0.00000000000E+00 0.  1.
<mgrwt>
<rscale>  0 0.11996754E+03</rscale>
<asrwt>0</asrwt>
<pdfrwt beam="1">  1        1 0.94873851E-01 0.12924151E+03</pdfrwt>
<pdfrwt beam="2">  1       -1 0.32592116E-02 0.12924151E+03</pdfrwt>
<totfact> 0.10739040E+04</totfact>
</mgrwt>
</event>
<event>
 7    1  0.7800420E-006  0.1520484E+03  0.7546771E-02  0.1206946E+00
         -2   -1    0    0    0  501 -0.00000000000E+00  0.00000000000E+00  0.16386929727E+03  0.16386929727E+03  0.00000000000E+00 0.  1.
          2   -1    0    0  501    0  0.00000000000E+00 -0.00000000000E+00 -0.12543245016E+03  0.12543245016E+03  0.00000000000E+00 0. -1.
         23    2    1    2    0    0 -0.22688118960E+02 -0.83543407104E+02 -0.15709493310E+02  0.15285774728E+03  0.12499780443E+03 0.  0.
          5    1    3    3  502    0 -0.49233244551E+02 -0.73595331702E+02 -0.54879054761E+02  0.10427840557E+03  0.47000000000E+01 0. -1.
         -5    1    3    3    0  502  0.26545125591E+02 -0.99480754024E+01  0.39169561451E+02  0.48579341712E+02  0.47000000000E+01 0. -1.
        -11    1    1    2    0    0  0.51122843250E+02  0.49074359584E+02  0.65616922368E+01  0.71168066403E+02  0.00000000000E+00 0.  1.
         11    1    1    2    0    0 -0.28434724291E+02  0.34469047521E+02  0.47584648184E+02  0.65275933737E+02  0.00000000000E+00 0. -1.
<mgrwt>
<rscale>  0 0.14485128E+03</rscale>
<asrwt>0</asrwt>
<pdfrwt beam="2">  1        2 0.19297300E-01 0.15204836E+03</pdfrwt>
<pdfrwt beam="1">  1       -2 0.25210661E-01 0.15204836E+03</pdfrwt>
<totfact> 0.39109143E+03</totfact>
</mgrwt>
</event>
<event>
 7    1  0.7800420E-006  0.1479615E+03  0.7546771E-02  0.1210860E+00
          1   -1    0    0  501    0  0.00000000000E+00  0.00000000000E+00  0.22392375418E+04  0.22392375418E+04  0.00000000000E+00 0. -1.
         -1   -1    0    0    0  501 -0.00000000000E+00 -0.00000000000E+00 -0.12251709668E+02  0.12251709668E+02  0.00000000000E+00 0.  1.
         23    2    1    2    0    0  0.39089118095E+02 -0.69881205522E+02  0.18134561647E+04  0.18194823107E+04  0.12442377498E+03 0.  0.
          5    1    3    3  502    0  0.20316612595E+02 -0.17500609678E+02  0.69636037533E+02  0.74768334271E+02  0.47000000000E+01 0.  1.
         -5    1    3    3    0  502  0.18772505500E+02 -0.52380595844E+02  0.17438201272E+04  0.17447139765E+04  0.47000000000E+01 0.  1.
        -11    1    1    2    0    0 -0.69096082848E+02  0.61539275607E+02  0.33450955669E+03  0.34707059026E+03  0.00000000000E+00 0.  1.
         11    1    1    2    0    0  0.30006964752E+02  0.83419299150E+01  0.79020110731E+02  0.84936350453E+02  0.00000000000E+00 0. -1.
<mgrwt>
<rscale>  0 0.14185117E+03</rscale>
<asrwt>0</asrwt>
<pdfrwt beam="1">  1        1 0.34449776E+00 0.14796154E+03</pdfrwt>
<pdfrwt beam="2">  1       -1 0.18848802E-02 0.14796154E+03</pdfrwt>
<totfact> 0.17730215E+03</totfact>
</mgrwt>
</event>
<event>
 7    1  0.7800420E-006  0.1914783E+03  0.7546771E-02  0.1161822E+00
          3   -1    0    0  501    0  0.00000000000E+00  0.00000000000E+00  0.63558705035E+02  0.63558705035E+02  0.00000000000E+00 0. -1.
         -3   -1    0    0    0  501 -0.00000000000E+00 -0.00000000000E+00 -0.51968862904E+03  0.51968862904E+03  0.00000000000E+00 0.  1.
         23    2    1    2    0    0 -0.70073912620E+02 -0.12699659121E+03 -0.25307583118E+03  0.31735047874E+03  0.12500185044E+03 0.  0.
          5    1    3    3  502    0  0.34221677519E+02 -0.26995828536E+02 -0.85108400814E+02  0.95736241099E+02  0.47000000000E+01 0. -1.
         -5    1    3    3    0  502 -0.10429559014E+03 -0.10000076268E+03 -0.16796743037E+03  0.22161423764E+03  0.47000000000E+01 0. -1.
        -11    1    1    2    0    0  0.22793208040E+02  0.83696547582E+02 -0.50393459768E+02  0.10032020334E+03  0.00000000000E+00 0. -1.
         11    1    1    2    0    0  0.47280704581E+02  0.43300043632E+02 -0.15266063305E+03  0.16557665200E+03  0.00000000000E+00 0.  1.
<mgrwt>
<rscale>  0 0.18632132E+03</rscale>
<asrwt>0</asrwt>
<pdfrwt beam="1">  1        3 0.97782626E-02 0.19147833E+03</pdfrwt>
<pdfrwt beam="2">  1       -3 0.79952094E-01 0.19147833E+03</pdfrwt>
<totfact> 0.27787455E+02</totfact>
</mgrwt>
</event>
<event>
 7    1  0.7800420E-006  0.1477686E+03  0.7546771E-02  0.1207780E+00
         -2   -1    0    0    0  501 -0.00000000000E+00  0.00000000000E+00  0.11419365803E+03  0.11419365803E+03  0.00000000000E+00 0. -1.
          2   -1    0    0  501    0  0.00000000000E+00 -0.00000000000E+00 -0.17425778560E+03  0.17425778560E+03  0.00000000000E+00 0.  1.
         23    2    1    2    0    0  0.38919528458E+02  0.68503250520E+02 -0.24438952378E+02  0.14977587015E+03  0.12501249481E+03 0.  0.
          5    1    3    3  502    0 -0.24506568507E+02  0.32186727765E+02  0.36355535948E+02  0.54592786504E+02  0.47000000000E+01 0.  1.
         -5    1    3    3    0  502  0.63426096965E+02  0.36316522754E+02 -0.60794488325E+02  0.95183083644E+02  0.47000000000E+01 0.  1.
        -11    1    1    2    0    0  0.17322463093E+02 -0.76279360784E+01 -0.50985098405E+02  0.54385047539E+02  0.00000000000E+00 0.  1.
         11    1    1    2    0    0 -0.56241991551E+02 -0.60875314441E+02  0.15359923212E+02  0.84290525939E+02  0.00000000000E+00 0. -1.
<mgrwt>
<rscale>  0 0.14420495E+03</rscale>
<asrwt>0</asrwt>
<pdfrwt beam="2">  1        2 0.26808890E-01 0.14776857E+03</pdfrwt>
<pdfrwt beam="1">  1       -2 0.17568255E-01 0.14776857E+03</pdfrwt>
<totfact> 0.50108110E+03</totfact>
</mgrwt>
</event>
<event>
 7    1  0.7800420E-006  0.1291183E+03  0.7546771E-02  0.1241925E+00
          2   -1    0    0  501    0  0.00000000000E+00  0.00000000000E+00  0.54193005396E+02  0.54193005396E+02  0.00000000000E+00 0. -1.
         -2   -1    0    0    0  501 -0.00000000000E+00 -0.00000000000E+00 -0.25211692185E+03  0.25211692185E+03  0.00000000000E+00 0.  1.
         23    2    1    2    0    0 -0.31823338896E+02 -0.59346904216E+01 -0.77296703722E+02  0.15048689016E+03  0.12499431289E+03 0.  0.
          5    1    3    3  502    0 -0.20833333500E+02  0.10742859616E+02 -0.10962245170E+03  0.11219896940E+03  0.47000000000E+01 0. -1.
         -5    1    3    3    0  502 -0.10990005396E+02 -0.16677550038E+02  0.32325747980E+02  0.38287920763E+02  0.47000000000E+01 0. -1.
        -11    1    1    2    0    0  0.43440894555E+02  0.21450486962E+02 -0.18480115692E+02  0.51853152138E+02  0.00000000000E+00 0. -1.
         11    1    1    2    0    0 -0.11617555659E+02 -0.15515796540E+02 -0.10214709704E+03  0.10396988494E+03  0.00000000000E+00 0.  1.
<mgrwt>
<rscale>  0 0.12071306E+03</rscale>
<asrwt>0</asrwt>
<pdfrwt beam="1">  1        2 0.83373854E-02 0.12911825E+03</pdfrwt>
<pdfrwt beam="2">  1       -2 0.38787219E-01 0.12911825E+03</pdfrwt>
<totfact> 0.48300044E+03</totfact>
</mgrwt>
</event>
<event>
 7    1  0.7800420E-006  0.1749575E+03  0.7546771E-02  0.1178698E+00
         -2   -1    0    0    0  501 -0.00000000000E+00  0.00000000000E+00  0.46155804426E+02  0.46155804426E+02  0.00000000000E+00 0.  1.
          2   -1    0    0  501    0  0.00000000000E+00 -0.00000000000E+00 -0.80035509064E+03  0.80035509064E+03  0.00000000000E+00 0. -1.
         23    2    1    2    0    0 -0.60079482899E+01 -0.12226807717E+03 -0.61591709815E+03  0.64028430339E+03  0.12499815692E+03 0.  0.
          5    1    3    3  502    0 -0.23672775014E+02  0.68915727112E+01 -0.26011637968E+03  0.26132453966E+03  0.47000000000E+01 0.  1.
         -5    1    3    3    0  502  0.17664826724E+02 -0.12915964988E+03 -0.35580071847E+03  0.37895976373E+03  0.47000000000E+01 0.  1.
        -11    1    1    2    0    0 -0.27310353514E+02  0.11349493664E+03 -0.11920518828E+03  0.16684373817E+03  0.00000000000E+00 0. -1.
         11    1    1    2    0    0  0.33318301804E+02  0.87731405236E+01 -0.19076999778E+02  0.39382853506E+02  0.00000000000E+00 0.  1.
<mgrwt>
<rscale>  0 0.16918764E+03</rscale>
<asrwt>0</asrwt>
<pdfrwt beam="2">  1        2 0.12313155E+00 0.17495747E+03</pdfrwt>
<pdfrwt beam="1">  1       -2 0.71008931E-02 0.17495747E+03</pdfrwt>
<totfact> 0.39779928E+03</totfact>
</mgrwt>
</event>
<event>
 7    1  0.7800420E-006  0.1523881E+03  0.7546771E-02  0.1206355E+00
         -2   -1    0    0    0  501 -0.00000000000E+00  0.00000000000E+00  0.38047911999E+02  0.38047911999E+02  0.00000000000E+00 0. -1.
          2   -1    0    0  501    0  0.00000000000E+00 -0.00000000000E+00 -0.54900437068E+03  0.54900437068E+03  0.00000000000E+00 0.  1.
         23    2    1    2    0    0 -0.53115276147E+02 -0.69108452842E+02 -0.35664438196E+03  0.38783677351E+03  0.12499974758E+03 0.  0.
          5    1    3    3  502    0 -0.20410271035E+02  0.32364296863E+02 -0.49883317896E+02  0.63043336519E+02  0.47000000000E+01 0.  1.
         -5    1    3    3    0  502 -0.32705005113E+02 -0.10147274971E+03 -0.30676106406E+03  0.32479343700E+03  0.47000000000E+01 0.  1.
        -11    1    1    2    0    0  0.34273454770E+01  0.75107489305E+02 -0.10316112097E+03  0.12765225625E+03  0.00000000000E+00 0.  1.
         11    1    1    2    0    0  0.49687930670E+02 -0.59990364628E+01 -0.51150955761E+02  0.71563252917E+02  0.00000000000E+00 0. -1.
<mgrwt>
<rscale>  0 0.14531192E+03</rscale>
<asrwt>0</asrwt>
<pdfrwt beam="2">  1        2 0.84462209E-01 0.15238815E+03</pdfrwt>
<pdfrwt beam="1">  1       -2 0.58535251E-02 0.15238815E+03</pdfrwt>
<totfact> 0.82895985E+03</totfact>
</mgrwt>
</event>
<event>
 7    1  0.7800420E-006  0.1347285E+03  0.7546771E-02  0.1233219E+00
         -1   -1    0    0    0  501 -0.00000000000E+00  0.00000000000E+00  0.18009159825E+03  0.18009159825E+03  0.00000000000E+00 0.  1.
          1   -1    0    0  501    0  0.00000000000E+00 -0.00000000000E+00 -0.11190221073E+03  0.11190221073E+03  0.00000000000E+00 0. -1.
         23    2    1    2    0    0 -0.44541804297E+02 -0.23334673064E+02 -0.41574384781E+02  0.14099718009E+03  0.12499318392E+03 0.  0.
          5    1    3    3  502    0 -0.22528000607E+02 -0.67064317848E+02 -0.55318525468E+02  0.89929765927E+02  0.47000000000E+01 0. -1.
         -5    1    3    3    0  502 -0.22013803690E+02  0.43729644784E+02  0.13744140687E+02  0.51067414161E+02  0.47000000000E+01 0. -1.
        -11    1    1    2    0    0  0.59160431480E+02  0.41062293003E+01  0.11200779175E+03  0.12673816783E+03  0.00000000000E+00 0.  1.
         11    1    1    2    0    0 -0.14618627183E+02  0.19228443764E+02 -0.22440194493E+01  0.24258461072E+02  0.00000000000E+00 0. -1.
<mgrwt>
<rscale>  0 0.12619156E+03</rscale>
<asrwt>0</asrwt>
<pdfrwt beam="2">  1        1 0.17215725E-01 0.13472852E+03</pdfrwt>
<pdfrwt beam="1">  1       -1 0.27706400E-01 0.13472852E+03</pdfrwt>
<totfact> 0.34974106E+03</totfact>
</mgrwt>
</event>
<event>
 7    1  0.7800420E-006  0.1254562E+03  0.7546771E-02  0.1248906E+00
         -2   -1    0    0    0  501 -0.00000000000E+00  0.00000000000E+00  0.54639219180E+03  0.54639219180E+03  0.00000000000E+00 0.  1.
          2   -1    0    0  501    0  0.00000000000E+00 -0.00000000000E+00 -0.21998525569E+02  0.21998525569E+02  0.00000000000E+00 0. -1.
         23    2    1    2    0    0 -0.75978984934E+01 -0.75701650757E+01  0.28394910104E+03  0.31042929692E+03  0.12499688375E+03 0.  0.
          5    1    3    3  502    0  0.95096586372E+01  0.53360764659E+02  0.18537526548E+03  0.19319390225E+03  0.47000000000E+01 0.  1.
         -5    1    3    3    0  502 -0.17107557131E+02 -0.60930929735E+02  0.98573835552E+02  0.11723539468E+03  0.47000000000E+01 0.  1.
        -11    1    1    2    0    0 -0.33987414274E+02  0.27421209552E+01  0.18694255993E+03  0.19002679882E+03  0.00000000000E+00 0.  1.
         11    1    1    2    0    0  0.41585312768E+02  0.48280441206E+01  0.53502005263E+02  0.67934621624E+02  0.00000000000E+00 0. -1.
<mgrwt>
<rscale>  0 0.11654644E+03</rscale>
<asrwt>0</asrwt>
<pdfrwt beam="2">  1        2 0.33843890E-02 0.12545619E+03</pdfrwt>
<pdfrwt beam="1">  1       -2 0.84060327E-01 0.12545619E+03</pdfrwt>
<totfact> 0.32104187E+03</totfact>
</mgrwt>
</event>
<event>
 7    1  0.7800420E-006  0.1468320E+03  0.7546771E-02  0.1214827E+00
          2   -1    0    0  501    0  0.00000000000E+00  0.00000000000E+00  0.48734767241E+03  0.48734767241E+03  0.00000000000E+00 0. -1.
         -2   -1    0    0    0  501 -0.00000000000E+00 -0.00000000000E+00 -0.88457369213E+02  0.88457369213E+02  0.00000000000E+00 0.  1.
         23    2    1    2    0    0 -0.64423945219E+02  0.42241020532E+02  0.42985163710E+03  0.45423790830E+03  0.12499959556E+03 0.  0.
          5    1    3    3  502    0 -0.40274226595E+02 -0.71279117524E+01  0.30859913989E+02  0.51451382345E+02  0.47000000000E+01 0. -1.
         -5    1    3    3    0  502 -0.24149718624E+02  0.49368932285E+02  0.39899172311E+03  0.40278652596E+03  0.47000000000E+01 0. -1.
        -11    1    1    2    0    0  0.36822104802E+02  0.16365553935E+02  0.14060259783E+02  0.42677742006E+02  0.00000000000E+00 0. -1.
         11    1    1    2    0    0  0.27601840417E+02 -0.58606574467E+02 -0.45021593679E+02  0.78889391318E+02  0.00000000000E+00 0.  1.
<mgrwt>
<rscale>  0 0.13889256E+03</rscale>
<asrwt>0</asrwt>
<pdfrwt beam="1">  1        2 0.74976564E-01 0.14683204E+03</pdfrwt>
<pdfrwt beam="2">  1       -2 0.13608826E-01 0.14683204E+03</pdfrwt>
<totfact> 0.25250665E+03</totfact>
</mgrwt>
</event>
<event>
 7    1  0.7800420E-006  0.1275383E+03  0.7546771E-02  0.1245808E+00
          1   -1    0    0  501    0  0.00000000000E+00  0.00000000000E+00  0.13264335702E+03  0.13264335702E+03  0.00000000000E+00 0. -1.
         -1   -1    0    0    0  501 -0.00000000000E+00 -0.00000000000E+00 -0.93969251617E+02  0.93969251617E+02  0.00000000000E+00 0.  1.
         23    2    1    2    0    0 -0.37271011438E+01  0.25964174942E+02  0.33337217394E+02  0.13182328462E+03  0.12481177285E+03 0.  0.
          5    1    3    3  502    0 -0.26062979141E+02 -0.86495331621E+01 -0.39307286581E+02  0.48179311784E+02  0.47000000000E+01 0.  1.
         -5    1    3    3    0  502  0.22335877997E+02  0.34613708104E+02  0.72644503975E+02  0.83643972840E+02  0.47000000000E+01 0.  1.
        -11    1    1    2    0    0  0.13444474827E+02  0.21348842148E+02  0.31100510205E+02  0.40047081035E+02  0.00000000000E+00 0. -1.
         11    1    1    2    0    0 -0.97173736834E+01 -0.47313017090E+02 -0.25763622196E+02  0.54742242977E+02  0.00000000000E+00 0.  1.
<mgrwt>
<rscale>  0 0.11837169E+03</rscale>
<asrwt>0</asrwt>
<pdfrwt beam="1">  1        1 0.20406670E-01 0.12753826E+03</pdfrwt>
<pdfrwt beam="2">  1       -1 0.14456808E-01 0.12753826E+03</pdfrwt>
<totfact> 0.79775506E+03</totfact>
</mgrwt>
</event>
<event>
 7    1  0.7800420E-006  0.1842654E+03  0.7546771E-02  0.1169086E+00
          2   -1    0    0  501    0  0.00000000000E+00  0.00000000000E+00  0.54090992817E+03  0.54090992817E+03  0.00000000000E+00 0. -1.
         -2   -1    0    0    0  501 -0.00000000000E+00 -0.00000000000E+00 -0.56484283174E+02  0.56484283174E+02  0.00000000000E+00 0.  1.
         23    2    1    2    0    0  0.81206128397E+02 -0.10833900191E+03  0.29178937529E+03  0.34510110164E+03  0.12498782420E+03 0.  0.
          5    1    3    3  502    0  0.32838969328E+02  0.25519092892E+02  0.67445199081E+02  0.79376110308E+02  0.47000000000E+01 0.  1.
         -5    1    3    3    0  502  0.48367159069E+02 -0.13385809481E+03  0.22434417621E+03  0.26572499133E+03  0.47000000000E+01 0.  1.
        -11    1    1    2    0    0  0.14476539346E+02  0.73986501449E+01  0.20974695898E+01  0.16392363895E+02  0.00000000000E+00 0.  1.
         11    1    1    2    0    0 -0.95682667743E+02  0.10094035177E+03  0.19053880012E+03  0.23590074581E+03  0.00000000000E+00 0. -1.
<mgrwt>
<rscale>  0 0.17868032E+03</rscale>
<asrwt>0</asrwt>
<pdfrwt beam="1">  1        2 0.83216909E-01 0.18426538E+03</pdfrwt>
<pdfrwt beam="2">  1       -2 0.86898901E-02 0.18426538E+03</pdfrwt>
<totfact> 0.46302006E+03</totfact>
</mgrwt>
</event>
<event>
 7    1  0.7800420E-006  0.1941623E+03  0.7546771E-02  0.1158409E+00
         -2   -1    0    0    0  501 -0.00000000000E+00  0.00000000000E+00  0.20350019120E+03  0.20350019120E+03  0.00000000000E+00 0.  1.
          2   -1    0    0  501    0  0.00000000000E+00 -0.00000000000E+00 -0.23853886428E+03  0.23853886428E+03  0.00000000000E+00 0. -1.
         23    2    1    2    0    0  0.14270520148E+03  0.41340283317E+02 -0.13611385995E+03  0.23712020714E+03  0.12500086483E+03 0.  0.
          5    1    3    3  502    0  0.67238849051E+02 -0.41375387909E+01  0.81420685807E+01  0.68018860103E+02  0.47000000000E+01 0.  1.
         -5    1    3    3    0  502  0.75466352426E+02  0.45477822108E+02 -0.14425592853E+03  0.16910134703E+03  0.47000000000E+01 0.  1.
        -11    1    1    2    0    0  0.44085132961E+01 -0.29864836097E+02  0.23173249612E+02  0.38057100811E+02  0.00000000000E+00 0.  1.
         11    1    1    2    0    0 -0.14711371477E+03 -0.11475447220E+02  0.77901937260E+02  0.16686174754E+03  0.00000000000E+00 0. -1.
<mgrwt>
<rscale>  0 0.19005765E+03</rscale>
<asrwt>0</asrwt>
<pdfrwt beam="2">  1        2 0.36698287E-01 0.19416233E+03</pdfrwt>
<pdfrwt beam="1">  1       -2 0.31307722E-01 0.19416233E+03</pdfrwt>
<totfact> 0.13176189E+03</totfact>
</mgrwt>
</event>
<event>
 7    1  0.7800420E-006  0.1344398E+03  0.7546771E-02  0.1232407E+00
          1   -1    0    0  501    0  0.00000000000E+00  0.00000000000E+00  0.30005522691E+03  0.30005522691E+03  0.00000000000E+00 0. -1.
         -1   -1    0    0    0  501 -0.00000000000E+00 -0.00000000000E+00 -0.48226306702E+02  0.48226306702E+02  0.00000000000E+00 0.  1.
         23    2    1    2    0    0  0.77240942445E+01 -0.48875279938E+02  0.14354373650E+03  0.19666942639E+03  0.12500241745E+03 0.  0.
          5    1    3    3  502    0 -0.85504747081E+01 -0.89133754945E+02  0.84346289658E+02  0.12310289788E+03  0.47000000000E+01 0.  1.
         -5    1    3    3    0  502  0.16274568953E+02  0.40258475008E+02  0.59197446841E+02  0.73566528510E+02  0.47000000000E+01 0.  1.
        -11    1    1    2    0    0 -0.39724616646E+02  0.20338380529E+01  0.15157850107E+02  0.42566913029E+02  0.00000000000E+00 0.  1.
         11    1    1    2    0    0  0.32000522402E+02  0.46841441885E+02  0.93127333607E+02  0.10904519419E+03  0.00000000000E+00 0. -1.
<mgrwt>
<rscale>  0 0.12671874E+03</rscale>
<asrwt>0</asrwt>
<pdfrwt beam="1">  1        1 0.46162341E-01 0.13443980E+03</pdfrwt>
<pdfrwt beam="2">  1       -1 0.74194320E-02 0.13443980E+03</pdfrwt>
<totfact> 0.80369954E+03</totfact>
</mgrwt>
</event>
<event>
 6    1  0.7800420E-006  0.2386567E+03  0.7546771E-02  0.1150432E+00
          1   -1    0    0  501    0  0.00000000000E+00  0.00000000000E+00  0.93579917834E+02  0.93579917834E+02  0.00000000000E+00 0. -1.
         -1   -1    0    0    0  501 -0.00000000000E+00 -0.00000000000E+00 -0.41928164994E+03  0.41928164994E+03  0.00000000000E+00 0.  1.
          5    1    1    2  502    0 -0.14838698108E+03  0.13443284898E+01 -0.21963973019E+02  0.15008334179E+03  0.47000000000E+01 0. -1.
         -5    1    1    2    0  502  0.75215296112E+02  0.10144290665E+02 -0.77181640322E+02  0.10834824874E+03  0.47000000000E+01 0.  1.
        -11    1    1    2    0    0  0.89195856668E+02 -0.15710773148E+02 -0.21736916804E+03  0.23548266274E+03  0.00000000000E+00 0.  1.
         11    1    1    2    0    0 -0.16024171704E+02  0.42221539932E+01 -0.91869507277E+01  0.18947314501E+02  0.00000000000E+00 0. -1.
<mgrwt>
<rscale>  0 0.19918034E+03</rscale>
<asrwt>0</asrwt>
<pdfrwt beam="1">  1        1 0.14396911E-01 0.23865673E+03</pdfrwt>
<pdfrwt beam="2">  1       -1 0.64504869E-01 0.23865673E+03</pdfrwt>
<totfact> 0.99069592E+02</totfact>
</mgrwt>
</event>
<event>
 7    1  0.7800420E-006  0.1366762E+03  0.7546771E-02  0.1232843E+00
          2   -1    0    0  501    0  0.00000000000E+00  0.00000000000E+00  0.33823772576E+03  0.33823772576E+03  0.00000000000E+00 0. -1.
         -2   -1    0    0    0  501 -0.00000000000E+00 -0.00000000000E+00 -0.46270217940E+02  0.46270217940E+02  0.00000000000E+00 0.  1.
         23    2    1    2    0    0  0.49346355010E+02  0.24895652530E+02  0.22766950725E+03  0.26554430439E+03  0.12500206716E+03 0.  0.
          5    1    3    3  502    0  0.78960458072E+02  0.37697445575E+01  0.76925386590E+02  0.11040185694E+03  0.47000000000E+01 0. -1.
         -5    1    3    3    0  502 -0.29614103062E+02  0.21125907973E+02  0.15074412066E+03  0.15514244745E+03  0.47000000000E+01 0. -1.
        -11    1    1    2    0    0 -0.23889373558E+02 -0.41930416534E+02  0.72647459703E+02  0.87215339253E+02  0.00000000000E+00 0. -1.
         11    1    1    2    0    0 -0.25456981452E+02  0.17034764004E+02 -0.83494591262E+01  0.31748300065E+02  0.00000000000E+00 0.  1.
<mgrwt>
<rscale>  0 0.12643515E+03</rscale>
<asrwt>0</asrwt>
<pdfrwt beam="1">  1        2 0.52036571E-01 0.13667616E+03</pdfrwt>
<pdfrwt beam="2">  1       -2 0.71184953E-02 0.13667616E+03</pdfrwt>
<totfact> 0.10317709E+04</totfact>
</mgrwt>
</event>
<event>
 7    1  0.7800420E-006  0.1511558E+03  0.7546771E-02  0.1208473E+00
         -1   -1    0    0    0  501 -0.00000000000E+00  0.00000000000E+00  0.28717811174E+02  0.28717811174E+02  0.00000000000E+00 0.  1.
          1   -1    0    0  501    0  0.00000000000E+00 -0.00000000000E+00 -0.74779380596E+03  0.74779380596E+03  0.00000000000E+00 0. -1.
         23    2    1    2    0    0 -0.55687233496E+02 -0.64190701734E+02 -0.52683236182E+03  0.54808796689E+03  0.12500627111E+03 0.  0.
          5    1    3    3  502    0 -0.69696082200E+02 -0.72928722828E+01 -0.42281512068E+03  0.42860873315E+03  0.47000000000E+01 0. -1.
         -5    1    3    3    0  502  0.14008848704E+02 -0.56897829451E+02 -0.10401724114E+03  0.11947923373E+03  0.47000000000E+01 0. -1.
        -11    1    1    2    0    0  0.10327982673E+02  0.75787394917E+02 -0.11570574169E+03  0.13870189297E+03  0.00000000000E+00 0. -1.
         11    1    1    2    0    0  0.45359250823E+02 -0.11596693183E+02 -0.76537891269E+02  0.89721757272E+02  0.00000000000E+00 0.  1.
<mgrwt>
<rscale>  0 0.14367116E+03</rscale>
<asrwt>0</asrwt>
<pdfrwt beam="2">  1        1 0.11504520E+00 0.15115582E+03</pdfrwt>
<pdfrwt beam="1">  1       -1 0.44181249E-02 0.15115582E+03</pdfrwt>
<totfact> 0.52767916E+03</totfact>
</mgrwt>
</event>
<event>
 7    1  0.7800420E-006  0.1494509E+03  0.7546771E-02  0.1210284E+00
          3   -1    0    0  501    0  0.00000000000E+00  0.00000000000E+00  0.23540919197E+02  0.23540919197E+02  0.00000000000E+00 0. -1.
         -3   -1    0    0    0  501 -0.00000000000E+00 -0.00000000000E+00 -0.78966629683E+03  0.78966629683E+03  0.00000000000E+00 0.  1.
         23    2    1    2    0    0 -0.79104746330E+02 -0.21380826158E+02 -0.39739466784E+03  0.42456811116E+03  0.12498343237E+03 0.  0.
          5    1    3    3  502    0 -0.10717470329E+03 -0.42896042401E+01 -0.22882286187E+03  0.25275840212E+03  0.47000000000E+01 0. -1.
         -5    1    3    3    0  502  0.28069956962E+02 -0.17091221918E+02 -0.16857180597E+03  0.17180970904E+03  0.47000000000E+01 0. -1.
        -11    1    1    2    0    0  0.39476337041E+02  0.55913095258E+02 -0.24059765054E+03  0.25014372839E+03  0.00000000000E+00 0.  1.
         11    1    1    2    0    0  0.39628409289E+02 -0.34532269100E+02 -0.12813305924E+03  0.13849537647E+03  0.00000000000E+00 0. -1.
<mgrwt>
<rscale>  0 0.14228753E+03</rscale>
<asrwt>0</asrwt>
<pdfrwt beam="1">  1        3 0.36216799E-02 0.14945086E+03</pdfrwt>
<pdfrwt beam="2">  1       -3 0.12148712E+00 0.14945086E+03</pdfrwt>
<totfact> 0.51298204E+02</totfact>
</mgrwt>
</event>
<event>
 7    1  0.7800420E-006  0.1341560E+03  0.7546771E-02  0.1233393E+00
          2   -1    0    0  501    0  0.00000000000E+00  0.00000000000E+00  0.39343078520E+03  0.39343078520E+03  0.00000000000E+00 0. -1.
         -2   -1    0    0    0  501 -0.00000000000E+00 -0.00000000000E+00 -0.37122541340E+02  0.37122541340E+02  0.00000000000E+00 0.  1.
         23    2    1    2    0    0 -0.95036978908E+01 -0.47774347242E+02  0.23262503771E+03  0.26853721256E+03  0.12500047133E+03 0.  0.
          5    1    3    3  502    0  0.28025748339E+02 -0.76870336165E+02  0.17827949360E+03  0.19621457385E+03  0.47000000000E+01 0. -1.
         -5    1    3    3    0  502 -0.37529446230E+02  0.29095988923E+02  0.54345544111E+02  0.72322638713E+02  0.47000000000E+01 0. -1.
        -11    1    1    2    0    0  0.16065350826E+02 -0.16587768269E+02  0.81679061190E+02  0.84880613748E+02  0.00000000000E+00 0. -1.
         11    1    1    2    0    0 -0.65616529348E+01  0.64362115511E+02  0.42004144963E+02  0.77135500234E+02  0.00000000000E+00 0.  1.
<mgrwt>
<rscale>  0 0.12607897E+03</rscale>
<asrwt>0</asrwt>
<pdfrwt beam="1">  1        2 0.60527810E-01 0.13415598E+03</pdfrwt>
<pdfrwt beam="2">  1       -2 0.57111605E-02 0.13415598E+03</pdfrwt>
<totfact> 0.12266417E+04</totfact>
</mgrwt>
</event>
<event>
 7    1  0.7800420E-006  0.1301037E+03  0.7546771E-02  0.1241825E+00
          1   -1    0    0  501    0  0.00000000000E+00  0.00000000000E+00  0.41667687015E+02  0.41667687015E+02  0.00000000000E+00 0. -1.
         -1   -1    0    0    0  501 -0.00000000000E+00 -0.00000000000E+00 -0.31652782417E+03  0.31652782417E+03  0.00000000000E+00 0.  1.
         23    2    1    2    0    0 -0.27248510239E+02  0.23631187969E+02 -0.12880762516E+03  0.18308021818E+03  0.12500419046E+03 0.  0.
          5    1    3    3  502    0 -0.10405648056E+02 -0.51239584985E+02 -0.42939889584E+02  0.67821063825E+02  0.47000000000E+01 0.  1.
         -5    1    3    3    0  502 -0.16842862183E+02  0.74870772953E+02 -0.85867735577E+02  0.11525915435E+03  0.47000000000E+01 0.  1.
        -11    1    1    2    0    0  0.12864808728E+02 -0.40082258473E+02 -0.18979410484E+02  0.46176928982E+02  0.00000000000E+00 0. -1.
         11    1    1    2    0    0  0.14383701511E+02  0.16451070504E+02 -0.12707310151E+03  0.12893836402E+03  0.00000000000E+00 0.  1.
<mgrwt>
<rscale>  0 0.12077465E+03</rscale>
<asrwt>0</asrwt>
<pdfrwt beam="1">  1        1 0.64104134E-02 0.13010366E+03</pdfrwt>
<pdfrwt beam="2">  1       -1 0.48696588E-01 0.13010366E+03</pdfrwt>
<totfact> 0.48432182E+03</totfact>
</mgrwt>
</event>
<event>
 7    1  0.7800420E-006  0.1724638E+03  0.7546771E-02  0.1181387E+00
          3   -1    0    0  501    0  0.00000000000E+00  0.00000000000E+00  0.36117663923E+03  0.36117663923E+03  0.00000000000E+00 0. -1.
         -3   -1    0    0    0  501 -0.00000000000E+00 -0.00000000000E+00 -0.94779896307E+02  0.94779896307E+02  0.00000000000E+00 0.  1.
         23    2    1    2    0    0  0.83902593906E+02  0.84139265063E+02  0.25137669370E+03  0.30485078603E+03  0.12499879368E+03 0.  0.
          5    1    3    3  502    0  0.29058158947E+02  0.10834397902E+03  0.16751214767E+03  0.20165615291E+03  0.47000000000E+01 0. -1.
         -5    1    3    3    0  502  0.54844434959E+02 -0.24204713958E+02  0.83864546027E+02  0.10319463312E+03  0.47000000000E+01 0. -1.
        -11    1    1    2    0    0 -0.10249443850E+03 -0.73218279947E+02  0.23134563794E+02  0.12806730451E+03  0.00000000000E+00 0.  1.
         11    1    1    2    0    0  0.18591844594E+02 -0.10920985116E+02 -0.81145145666E+01  0.23038444999E+02  0.00000000000E+00 0. -1.
<mgrwt>
<rscale>  0 0.16664974E+03</rscale>
<asrwt>0</asrwt>
<pdfrwt beam="1">  1        3 0.55565636E-01 0.17246379E+03</pdfrwt>
<pdfrwt beam="2">  1       -3 0.14581523E-01 0.17246379E+03</pdfrwt>
<totfact> 0.30187164E+02</totfact>
</mgrwt>
</event>
<event>
 7    1  0.7800420E-006  0.1255633E+03  0.7546771E-02  0.1249933E+00
         -1   -1    0    0    0  501 -0.00000000000E+00  0.00000000000E+00  0.72926765078E+02  0.72926765078E+02  0.00000000000E+00 0.  1.
          1   -1    0    0  501    0  0.00000000000E+00 -0.00000000000E+00 -0.19105876053E+03  0.19105876053E+03  0.00000000000E+00 0. -1.
         23    2    1    2    0    0 -0.46191469900E+01 -0.10937042491E+02 -0.11854472144E+03  0.17268177986E+03  0.12500076279E+03 0.  0.
          5    1    3    3  502    0  0.49044980124E+02 -0.29803156489E+02 -0.94681339276E+02  0.11081644381E+03  0.47000000000E+01 0. -1.
         -5    1    3    3    0  502 -0.53664127114E+02  0.18866113998E+02 -0.23863382167E+02  0.61865336051E+02  0.47000000000E+01 0. -1.
        -11    1    1    2    0    0  0.27978805277E+02 -0.23592732459E+02 -0.23258160518E+02  0.43363263257E+02  0.00000000000E+00 0.  1.
         11    1    1    2    0    0 -0.23359658287E+02  0.34529774950E+02  0.23670886507E+02  0.47940482490E+02  0.00000000000E+00 0. -1.
<mgrwt>
<rscale>  0 0.11594930E+03</rscale>
<asrwt>0</asrwt>
<pdfrwt beam="2">  1        1 0.29393655E-01 0.12556332E+03</pdfrwt>
<pdfrwt beam="1">  1       -1 0.11219502E-01 0.12556332E+03</pdfrwt>
<totfact> 0.74622851E+03</totfact>
</mgrwt>
</event>
<event>
 7    1  0.7800420E-006  0.1275592E+03  0.7546771E-02  0.1249441E+00
         -3   -1    0    0    0  501 -0.00000000000E+00  0.00000000000E+00  0.24193156634E+02  0.24193156634E+02  0.00000000000E+00 0.  1.
          3   -1    0    0  501    0  0.00000000000E+00 -0.00000000000E+00 -0.67616754755E+03  0.67616754755E+03  0.00000000000E+00 0. -1.
         23    2    1    2    0    0 -0.35494516588E+01 -0.26586575278E+02 -0.55490413849E+03  0.56937681595E+03  0.12470730149E+03 0.  0.
          5    1    3    3  502    0  0.33482364706E+02 -0.51939142740E+01 -0.49187615748E+03  0.49306418424E+03  0.47000000000E+01 0.  1.
         -5    1    3    3    0  502 -0.37031816365E+02 -0.21392661004E+02 -0.63027981010E+02  0.76312631708E+02  0.47000000000E+01 0.  1.
        -11    1    1    2    0    0  0.36288699902E+02 -0.96527476363E+01 -0.54577588737E+02  0.66247705393E+02  0.00000000000E+00 0.  1.
         11    1    1    2    0    0 -0.32739248243E+02  0.36239322914E+02 -0.42492663692E+02  0.64736182838E+02  0.00000000000E+00 0. -1.
<mgrwt>
<rscale>  0 0.11623460E+03</rscale>
<asrwt>0</asrwt>
<pdfrwt beam="2">  1        3 0.10402577E+00 0.12755922E+03</pdfrwt>
<pdfrwt beam="1">  1       -3 0.37220243E-02 0.12755922E+03</pdfrwt>
<totfact> 0.69070152E+02</totfact>
</mgrwt>
</event>
<event>
 6    1  0.7800420E-006  0.1910240E+03  0.7546771E-02  0.1185754E+00
         -2   -1    0    0    0  501 -0.00000000000E+00  0.00000000000E+00  0.44177463408E+02  0.44177463408E+02  0.00000000000E+00 0.  1.
          2   -1    0    0  501    0  0.00000000000E+00 -0.00000000000E+00 -0.51731513024E+03  0.51731513024E+03  0.00000000000E+00 0. -1.
          5    1    1    2  502    0  0.70745747856E+02  0.74379853196E+02 -0.32136456092E+03  0.33739382688E+03  0.47000000000E+01 0. -1.
         -5    1    1    2    0  502 -0.53394981797E+02 -0.35668934449E+02 -0.55021025294E+02  0.84691795295E+02  0.47000000000E+01 0.  1.
        -11    1    1    2    0    0  0.19919448430E+02  0.21447226724E+02 -0.33564345299E+02  0.44534629618E+02  0.00000000000E+00 0.  1.
         11    1    1    2    0    0 -0.37270214489E+02 -0.60158145470E+02 -0.63187735320E+02  0.94872341856E+02  0.00000000000E+00 0. -1.
<mgrwt>
<rscale>  0 0.16263447E+03</rscale>
<asrwt>0</asrwt>
<pdfrwt beam="2">  1        2 0.79586935E-01 0.19102399E+03</pdfrwt>
<pdfrwt beam="1">  1       -2 0.67965335E-02 0.19102399E+03</pdfrwt>
<totfact> 0.71410271E+03</totfact>
</mgrwt>
</event>
<event>
 7    1  0.7800420E-006  0.1717612E+03  0.7546771E-02  0.1182354E+00
         -1   -1    0    0    0  501 -0.00000000000E+00  0.00000000000E+00  0.28410000051E+03  0.28410000051E+03  0.00000000000E+00 0.  1.
          1   -1    0    0  501    0  0.00000000000E+00 -0.00000000000E+00 -0.10446403605E+03  0.10446403605E+03  0.00000000000E+00 0. -1.
         23    2    1    2    0    0  0.11743972450E+03 -0.86167878764E+01  0.24502168028E+02  0.17350008591E+03  0.12504233542E+03 0.  0.
          5    1    3    3  502    0 -0.17478538993E+02  0.26373700364E+02  0.51353002412E+00  0.31991016072E+02  0.47000000000E+01 0. -1.
         -5    1    3    3    0  502  0.13491826350E+03 -0.34990488241E+02  0.23988638004E+02  0.14150906983E+03  0.47000000000E+01 0. -1.
        -11    1    1    2    0    0 -0.85558176535E+02  0.39914704997E+02  0.13802136170E+03  0.16722225190E+03  0.00000000000E+00 0.  1.
         11    1    1    2    0    0 -0.31881547967E+02 -0.31297917121E+02  0.17112434738E+02  0.47841698753E+02  0.00000000000E+00 0. -1.
<mgrwt>
<rscale>  0 0.16575009E+03</rscale>
<asrwt>0</asrwt>
<pdfrwt beam="2">  1        1 0.16071390E-01 0.17176124E+03</pdfrwt>
<pdfrwt beam="1">  1       -1 0.43707692E-01 0.17176124E+03</pdfrwt>
<totfact> 0.17618123E+03</totfact>
</mgrwt>
</event>
<event>
 7    1  0.7800420E-006  0.1387482E+03  0.7546771E-02  0.1226169E+00
         -1   -1    0    0    0  501 -0.00000000000E+00  0.00000000000E+00  0.32728920796E+03  0.32728920796E+03  0.00000000000E+00 0. -1.
          1   -1    0    0  501    0  0.00000000000E+00 -0.00000000000E+00 -0.96937749871E+02  0.96937749871E+02  0.00000000000E+00 0.  1.
         23    2    1    2    0    0 -0.46625700408E+02  0.38132414798E+02 -0.29740391386E+02  0.14189980924E+03  0.12499211169E+03 0.  0.
          5    1    3    3  502    0 -0.45256810307E+02  0.19024580728E+02 -0.76574408557E+02  0.91081521709E+02  0.47000000000E+01 0.  1.
         -5    1    3    3    0  502 -0.13688901011E+01  0.19107834069E+02  0.46834017171E+02  0.50818287528E+02  0.47000000000E+01 0.  1.
        -11    1    1    2    0    0  0.59206936750E+02 -0.41785023075E+01  0.85898684660E+02  0.10441027376E+03  0.00000000000E+00 0.  1.
         11    1    1    2    0    0 -0.12581236342E+02 -0.33953912490E+02  0.17419316482E+03  0.17791687483E+03  0.00000000000E+00 0. -1.
<mgrwt>
<rscale>  0 0.13087080E+03</rscale>
<asrwt>0</asrwt>
<pdfrwt beam="2">  1        1 0.14913500E-01 0.13874821E+03</pdfrwt>
<pdfrwt beam="1">  1       -1 0.50352185E-01 0.13874821E+03</pdfrwt>
<totfact> 0.14922520E+03</totfact>
</mgrwt>
</event>
<event>
 6    1  0.7800420E-006  0.1896617E+03  0.7546771E-02  0.1187227E+00
          2   -1    0    0  501    0  0.00000000000E+00  0.00000000000E+00  0.46229985921E+03  0.46229985921E+03  0.00000000000E+00 0. -1.
         -2   -1    0    0    0  501 -0.00000000000E+00 -0.00000000000E+00 -0.51045118617E+02  0.51045118617E+02  0.00000000000E+00 0.  1.
          5    1    1    2  502    0 -0.55739441166E+02 -0.42264819918E+02  0.18847051402E+03  0.20108810248E+03  0.47000000000E+01 0. -1.
         -5    1    1    2    0  502  0.98454834298E+02  0.53900516838E+02  0.15752861661E+03  0.19348378527E+03  0.47000000000E+01 0.  1.
        -11    1    1    2    0    0 -0.28509846419E+02 -0.41070732864E+02  0.50274814091E+01  0.50248303555E+02  0.00000000000E+00 0.  1.
         11    1    1    2    0    0 -0.14205546713E+02  0.29435035944E+02  0.60228128556E+02  0.68524786522E+02  0.00000000000E+00 0. -1.
<mgrwt>
<rscale>  0 0.16130857E+03</rscale>
<asrwt>0</asrwt>
<pdfrwt beam="1">  1        2 0.71123053E-01 0.18966174E+03</pdfrwt>
<pdfrwt beam="2">  1       -2 0.78530955E-02 0.18966174E+03</pdfrwt>
<totfact> 0.64654524E+03</totfact>
</mgrwt>
</event>
<event>
 7    1  0.7800420E-006  0.1854947E+03  0.7546771E-02  0.1167069E+00
          2   -1    0    0  501    0  0.00000000000E+00  0.00000000000E+00  0.74926405508E+03  0.74926405508E+03  0.00000000000E+00 0. -1.
         -2   -1    0    0    0  501 -0.00000000000E+00 -0.00000000000E+00 -0.42639140880E+02  0.42639140880E+02  0.00000000000E+00 0.  1.
         23    2    1    2    0    0 -0.11796572446E+03 -0.69766666287E+02  0.43510052258E+03  0.47299126968E+03  0.12499990631E+03 0.  0.
          5    1    3    3  502    0 -0.65056713053E+02 -0.63596598599E+02  0.39703471301E+03  0.40735188302E+03  0.47000000000E+01 0. -1.
         -5    1    3    3    0  502 -0.52909011405E+02 -0.61700676875E+01  0.38065809567E+02  0.65639386660E+02  0.47000000000E+01 0. -1.
        -11    1    1    2    0    0  0.10576582568E+03  0.82116574516E+02  0.27013059763E+03  0.30149640374E+03  0.00000000000E+00 0. -1.
         11    1    1    2    0    0  0.12199898780E+02 -0.12349908230E+02  0.13937939910E+01  0.17415522536E+02  0.00000000000E+00 0.  1.
<mgrwt>
<rscale>  0 0.18076038E+03</rscale>
<asrwt>0</asrwt>
<pdfrwt beam="1">  1        2 0.11527138E+00 0.18549468E+03</pdfrwt>
<pdfrwt beam="2">  1       -2 0.65598684E-02 0.18549468E+03</pdfrwt>
<totfact> 0.48880630E+03</totfact>
</mgrwt>
</event>
<event>
 7    1  0.7800420E-006  0.1337319E+03  0.7546771E-02  0.1233599E+00
          2   -1    0    0  501    0  0.00000000000E+00  0.00000000000E+00  0.34143845730E+02  0.34143845730E+02  0.00000000000E+00 0. -1.
         -2   -1    0    0    0  501 -0.00000000000E+00 -0.00000000000E+00 -0.47412133802E+03  0.47412133802E+03  0.00000000000E+00 0.  1.
         23    2    1    2    0    0  0.40182007421E+02 -0.25371489703E+02 -0.15627208389E+03  0.20568225464E+03  0.12500367778E+03 0.  0.
          5    1    3    3  502    0  0.44211583292E+02 -0.65264140630E+02 -0.53825801245E+02  0.95568713652E+02  0.47000000000E+01 0. -1.
         -5    1    3    3    0  502 -0.40295758713E+01  0.39892650928E+02 -0.10244628265E+03  0.11011354099E+03  0.47000000000E+01 0. -1.
        -11    1    1    2    0    0  0.14538994610E+02 -0.80076673560E+01 -0.61161211920E+01  0.17689319919E+02  0.00000000000E+00 0. -1.
         11    1    1    2    0    0 -0.54721002031E+02  0.33379157059E+02 -0.27758928721E+03  0.28489360920E+03  0.00000000000E+00 0.  1.
<mgrwt>
<rscale>  0 0.12594570E+03</rscale>
<asrwt>0</asrwt>
<pdfrwt beam="1">  1        2 0.52528996E-02 0.13373192E+03</pdfrwt>
<pdfrwt beam="2">  1       -2 0.72941741E-01 0.13373192E+03</pdfrwt>
<totfact> 0.24605678E+03</totfact>
</mgrwt>
</event>
<event>
 7    1  0.7800420E-006  0.1295907E+03  0.7546771E-02  0.1238052E+00
         -2   -1    0    0    0  501 -0.00000000000E+00  0.00000000000E+00  0.18626566709E+02  0.18626566709E+02  0.00000000000E+00 0.  1.
          2   -1    0    0  501    0  0.00000000000E+00 -0.00000000000E+00 -0.75288796341E+03  0.75288796341E+03  0.00000000000E+00 0. -1.
         23    2    1    2    0    0 -0.71644037284E+01 -0.33450304652E+02 -0.45004581460E+03  0.46833212473E+03  0.12499396887E+03 0.  0.
          5    1    3    3  502    0 -0.50310285711E+02  0.24787295463E+02 -0.17305236023E+03  0.18197457032E+03  0.47000000000E+01 0.  1.
         -5    1    3    3    0  502  0.43145881983E+02 -0.58237600115E+02 -0.27699345438E+03  0.28635755441E+03  0.47000000000E+01 0.  1.
        -11    1    1    2    0    0 -0.32793953752E+02 -0.75802981826E+01 -0.18974139636E+03  0.19270366321E+03  0.00000000000E+00 0. -1.
         11    1    1    2    0    0  0.39958357481E+02  0.41030602835E+02 -0.94474185740E+02  0.11047874218E+03  0.00000000000E+00 0.  1.
<mgrwt>
<rscale>  0 0.12311081E+03</rscale>
<asrwt>0</asrwt>
<pdfrwt beam="2">  1        2 0.11582893E+00 0.12959068E+03</pdfrwt>
<pdfrwt beam="1">  1       -2 0.28656253E-02 0.12959068E+03</pdfrwt>
<totfact> 0.16463406E+04</totfact>
</mgrwt>
</event>
<event>
 7    1  0.7800420E-006  0.1272106E+03  0.7546771E-02  0.1249647E+00
         -2   -1    0    0    0  501 -0.00000000000E+00  0.00000000000E+00  0.58013897656E+02  0.58013897656E+02  0.00000000000E+00 0.  1.
          2   -1    0    0  501    0  0.00000000000E+00 -0.00000000000E+00 -0.20070087321E+03  0.20070087321E+03  0.00000000000E+00 0. -1.
         23    2    1    2    0    0 -0.20842137955E+02 -0.11111490684E+02 -0.90818801042E+02  0.15630284410E+03  0.12499865803E+03 0.  0.
          5    1    3    3  502    0 -0.30883791497E+02 -0.41417973600E+02 -0.10794855692E+03  0.11976743320E+03  0.47000000000E+01 0. -1.
         -5    1    3    3    0  502  0.10041653542E+02  0.30306482916E+02  0.17129755881E+02  0.36535410893E+02  0.47000000000E+01 0. -1.
        -11    1    1    2    0    0  0.28876191868E+02 -0.10228199337E+02  0.13279920590E+02  0.33388722787E+02  0.00000000000E+00 0.  1.
         11    1    1    2    0    0 -0.80340539126E+01  0.21339690021E+02 -0.65148095099E+02  0.69023203979E+02  0.00000000000E+00 0. -1.
<mgrwt>
<rscale>  0 0.11611532E+03</rscale>
<asrwt>0</asrwt>
<pdfrwt beam="2">  1        2 0.30877058E-01 0.12721055E+03</pdfrwt>
<pdfrwt beam="1">  1       -2 0.89252150E-02 0.12721055E+03</pdfrwt>
<totfact> 0.12614197E+04</totfact>
</mgrwt>
</event>
<event>
 7    1  0.7800420E-006  0.1987965E+03  0.7546771E-02  0.1154989E+00
         -1   -1    0    0    0  501 -0.00000000000E+00  0.00000000000E+00  0.54826036236E+03  0.54826036236E+03  0.00000000000E+00 0.  1.
          1   -1    0    0  501    0  0.00000000000E+00 -0.00000000000E+00 -0.69866752880E+02  0.69866752880E+02  0.00000000000E+00 0. -1.
         23    2    1    2    0    0 -0.38807817372E+02  0.14962688284E+03  0.17231949423E+03  0.26308564839E+03  0.12500319813E+03 0.  0.
          5    1    3    3  502    0  0.15759654235E+01 -0.53516479075E+01 -0.14946178971E+02  0.16631357978E+02  0.47000000000E+01 0. -1.
         -5    1    3    3    0  502 -0.40383782795E+02  0.15497853075E+03  0.18726567320E+03  0.24645429041E+03  0.47000000000E+01 0. -1.
        -11    1    1    2    0    0  0.19767634380E+02 -0.69932754693E+02  0.55589949639E+02  0.91496404568E+02  0.00000000000E+00 0.  1.
         11    1    1    2    0    0  0.19040182992E+02 -0.79694128146E+02  0.25048416562E+03  0.26354506228E+03  0.00000000000E+00 0. -1.
<mgrwt>
<rscale>  0 0.19390078E+03</rscale>
<asrwt>0</asrwt>
<pdfrwt beam="2">  1        1 0.10748732E-01 0.19879650E+03</pdfrwt>
<pdfrwt beam="1">  1       -1 0.84347745E-01 0.19879650E+03</pdfrwt>
<totfact> 0.84577674E+02</totfact>
</mgrwt>
</event>
<event>
 7    1  0.7800420E-006  0.1419995E+03  0.7546771E-02  0.1222655E+00
          2   -1    0    0  501    0  0.00000000000E+00  0.00000000000E+00  0.73281773531E+03  0.73281773531E+03  0.00000000000E+00 0. -1.
         -2   -1    0    0    0  501 -0.00000000000E+00 -0.00000000000E+00 -0.29888908932E+02  0.29888908932E+02  0.00000000000E+00 0.  1.
         23    2    1    2    0    0  0.76087657882E+01 -0.66931503426E+02  0.58200947463E+03  0.59908169836E+03  0.12500453305E+03 0.  0.
          5    1    3    3  502    0  0.47597569872E+02 -0.34986469782E+02  0.11613147966E+03  0.13037711568E+03  0.47000000000E+01 0.  1.
         -5    1    3    3    0  502 -0.39988804083E+02 -0.31945033644E+02  0.46587799497E+03  0.46870458268E+03  0.47000000000E+01 0.  1.
        -11    1    1    2    0    0  0.81771184914E+01  0.55388624853E+02  0.17921887645E+02  0.58787405851E+02  0.00000000000E+00 0.  1.
         11    1    1    2    0    0 -0.15785884280E+02  0.11542878573E+02  0.10299746411E+03  0.10483754003E+03  0.00000000000E+00 0. -1.
<mgrwt>
<rscale>  0 0.13328903E+03</rscale>
<asrwt>0</asrwt>
<pdfrwt beam="1">  1        2 0.11274118E+00 0.14199948E+03</pdfrwt>
<pdfrwt beam="2">  1       -2 0.45982942E-02 0.14199948E+03</pdfrwt>
<totfact> 0.84972693E+03</totfact>
</mgrwt>
</event>
<event>
 7    1  0.7800420E-006  0.1462483E+03  0.7546771E-02  0.1214787E+00
         -1   -1    0    0    0  501 -0.00000000000E+00  0.00000000000E+00  0.20125602107E+03  0.20125602107E+03  0.00000000000E+00 0.  1.
          1   -1    0    0  501    0  0.00000000000E+00 -0.00000000000E+00 -0.98175396273E+02  0.98175396273E+02  0.00000000000E+00 0. -1.
         23    2    1    2    0    0 -0.54552297270E+02 -0.52799154682E+02  0.69766934268E+01  0.14641457629E+03  0.12499940011E+03 0.  0.
          5    1    3    3  502    0 -0.25375717172E+02  0.10337921256E+02 -0.49449471067E+02  0.56728650845E+02  0.47000000000E+01 0.  1.
         -5    1    3    3    0  502 -0.29176580098E+02 -0.63137075938E+02  0.56426164494E+02  0.89685925449E+02  0.47000000000E+01 0.  1.
        -11    1    1    2    0    0  0.35607091710E+02 -0.19955923913E+02  0.51077147761E+02  0.65383322818E+02  0.00000000000E+00 0. -1.
         11    1    1    2    0    0  0.18945205559E+02  0.72755078595E+02  0.45026783606E+02  0.87633518228E+02  0.00000000000E+00 0.  1.
<mgrwt>
<rscale>  0 0.13892187E+03</rscale>
<asrwt>0</asrwt>
<pdfrwt beam="2">  1        1 0.15103907E-01 0.14624826E+03</pdfrwt>
<pdfrwt beam="1">  1       -1 0.30962465E-01 0.14624826E+03</pdfrwt>
<totfact> 0.34518348E+03</totfact>
</mgrwt>
</event>
<event>
 7    1  0.7800420E-006  0.1610044E+03  0.7546771E-02  0.1195114E+00
          1   -1    0    0  501    0  0.00000000000E+00  0.00000000000E+00  0.63014809697E+02  0.63014809697E+02  0.00000000000E+00 0. -1.
         -1   -1    0    0    0  501 -0.00000000000E+00 -0.00000000000E+00 -0.35490770453E+03  0.35490770453E+03  0.00000000000E+00 0.  1.
         23    2    1    2    0    0 -0.98976158686E+02  0.22370377237E+02 -0.18048402455E+03  0.24186133342E+03  0.12500283085E+03 0.  0.
          5    1    3    3  502    0 -0.94462689014E+02  0.29040144903E+02 -0.19837946966E+03  0.22168228079E+03  0.47000000000E+01 0.  1.
         -5    1    3    3    0  502 -0.45134696722E+01 -0.66697676663E+01  0.17895445116E+02  0.20179052632E+02  0.47000000000E+01 0.  1.
        -11    1    1    2    0    0  0.29001772587E+02  0.17775275219E+02 -0.84384354736E+02  0.90982319967E+02  0.00000000000E+00 0.  1.
         11    1    1    2    0    0  0.69974386099E+02 -0.40145652455E+02 -0.27024515548E+02  0.85078860838E+02  0.00000000000E+00 0. -1.
<mgrwt>
<rscale>  0 0.15444556E+03</rscale>
<asrwt>0</asrwt>
<pdfrwt beam="1">  1        1 0.96945860E-02 0.16100441E+03</pdfrwt>
<pdfrwt beam="2">  1       -1 0.54601186E-01 0.16100441E+03</pdfrwt>
<totfact> 0.22768846E+03</totfact>
</mgrwt>
</event>
<event>
 7    1  0.7800420E-006  0.1532467E+03  0.7546771E-02  0.1204621E+00
          2   -1    0    0  501    0  0.00000000000E+00  0.00000000000E+00  0.95833985049E+02  0.95833985049E+02  0.00000000000E+00 0. -1.
         -2   -1    0    0    0  501 -0.00000000000E+00 -0.00000000000E+00 -0.20911089677E+03  0.20911089677E+03  0.00000000000E+00 0.  1.
         23    2    1    2    0    0 -0.23383121095E+02  0.85500876987E+02 -0.47126858869E+02  0.16032934823E+03  0.12500955467E+03 0.  0.
          5    1    3    3  502    0 -0.48713723897E+02  0.40483843743E+02  0.27693347433E+02  0.69289104426E+02  0.47000000000E+01 0. -1.
         -5    1    3    3    0  502  0.25330602802E+02  0.45017033244E+02 -0.74820206302E+02  0.91040243802E+02  0.47000000000E+01 0. -1.
        -11    1    1    2    0    0  0.48468765727E+02 -0.35731848169E+02 -0.65368332496E+02  0.88876347349E+02  0.00000000000E+00 0.  1.
         11    1    1    2    0    0 -0.25085644632E+02 -0.49769028818E+02 -0.78172035505E+00  0.55739186241E+02  0.00000000000E+00 0. -1.
<mgrwt>
<rscale>  0 0.14667402E+03</rscale>
<asrwt>0</asrwt>
<pdfrwt beam="1">  1        2 0.14743690E-01 0.15324673E+03</pdfrwt>
<pdfrwt beam="2">  1       -2 0.32170907E-01 0.15324673E+03</pdfrwt>
<totfact> 0.34561254E+03</totfact>
</mgrwt>
</event>
<event>
 7    1  0.7800420E-006  0.2005177E+03  0.7546771E-02  0.1153581E+00
         -1   -1    0    0    0  501 -0.00000000000E+00  0.00000000000E+00  0.79469782585E+02  0.79469782585E+02  0.00000000000E+00 0.  1.
          1   -1    0    0  501    0  0.00000000000E+00 -0.00000000000E+00 -0.47207976154E+03  0.47207976154E+03  0.00000000000E+00 0. -1.
         23    2    1    2    0    0  0.41153557195E+02 -0.15126093454E+03 -0.15916178329E+03  0.25600744197E+03  0.12503540097E+03 0.  0.
          5    1    3    3  502    0  0.30726949992E+02 -0.72058651148E+02 -0.69392977609E+00  0.78480355501E+02  0.47000000000E+01 0. -1.
         -5    1    3    3    0  502  0.10426607203E+02 -0.79202283387E+02 -0.15846785351E+03  0.17752708647E+03  0.47000000000E+01 0. -1.
        -11    1    1    2    0    0 -0.16473519680E+02  0.31719655270E+02 -0.44164500757E+01  0.36014141839E+02  0.00000000000E+00 0.  1.
         11    1    1    2    0    0 -0.24680037515E+02  0.11954127926E+03 -0.22903174559E+03  0.25952796032E+03  0.00000000000E+00 0. -1.
<mgrwt>
<rscale>  0 0.19551342E+03</rscale>
<asrwt>0</asrwt>
<pdfrwt beam="2">  1        1 0.72627657E-01 0.20051767E+03</pdfrwt>
<pdfrwt beam="1">  1       -1 0.12226120E-01 0.20051767E+03</pdfrwt>
<totfact> 0.21493656E+03</totfact>
</mgrwt>
</event>
<event>
 7    1  0.7800420E-006  0.1353250E+03  0.7546771E-02  0.1231921E+00
          2   -1    0    0  501    0  0.00000000000E+00  0.00000000000E+00  0.76025928269E+03  0.76025928269E+03  0.00000000000E+00 0. -1.
         -2   -1    0    0    0  501 -0.00000000000E+00 -0.00000000000E+00 -0.20248147720E+02  0.20248147720E+02  0.00000000000E+00 0.  1.
         23    2    1    2    0    0  0.64888430316E+01  0.51433544699E+02  0.50958363998E+03  0.52724600151E+03  0.12500138146E+03 0.  0.
          5    1    3    3  502    0 -0.86801010444E+00  0.89562205461E+02  0.27044138258E+03  0.28492590879E+03  0.47000000000E+01 0. -1.
         -5    1    3    3    0  502  0.73568531360E+01 -0.38128660762E+02  0.23914225740E+03  0.24232009272E+03  0.47000000000E+01 0. -1.
        -11    1    1    2    0    0  0.36542968607E+02  0.13872871492E+01  0.91178809632E+02  0.98238935489E+02  0.00000000000E+00 0. -1.
         11    1    1    2    0    0 -0.43031811639E+02 -0.52820831848E+02  0.13924868536E+03  0.15502249341E+03  0.00000000000E+00 0.  1.
<mgrwt>
<rscale>  0 0.12703603E+03</rscale>
<asrwt>0</asrwt>
<pdfrwt beam="1">  1        2 0.11696294E+00 0.13532502E+03</pdfrwt>
<pdfrwt beam="2">  1       -2 0.31151002E-02 0.13532502E+03</pdfrwt>
<totfact> 0.14438104E+04</totfact>
</mgrwt>
</event>
<event>
 7    1  0.7800420E-006  0.1696620E+03  0.7546771E-02  0.1184727E+00
         -2   -1    0    0    0  501 -0.00000000000E+00  0.00000000000E+00  0.26788308325E+03  0.26788308325E+03  0.00000000000E+00 0. -1.
          2   -1    0    0  501    0  0.00000000000E+00 -0.00000000000E+00 -0.97741061735E+02  0.97741061735E+02  0.00000000000E+00 0.  1.
         23    2    1    2    0    0  0.11425143101E+03  0.10395444314E+02  0.52244707519E+02  0.17752384425E+03  0.12499500415E+03 0.  0.
          5    1    3    3  502    0 -0.55491927363E+01  0.30772072564E+01  0.56775995454E+02  0.57322477305E+02  0.47000000000E+01 0.  1.
         -5    1    3    3    0  502  0.11980062375E+03  0.73182370576E+01 -0.45312879351E+01  0.12020136694E+03  0.47000000000E+01 0.  1.
        -11    1    1    2    0    0 -0.84309501384E+02  0.65667515002E+01  0.12693145489E+03  0.15252150173E+03  0.00000000000E+00 0. -1.
         11    1    1    2    0    0 -0.29941929631E+02 -0.16962195814E+02 -0.90341408988E+01  0.35578799005E+02  0.00000000000E+00 0.  1.
<mgrwt>
<rscale>  0 0.16356776E+03</rscale>
<asrwt>0</asrwt>
<pdfrwt beam="2">  1        2 0.15037087E-01 0.16966203E+03</pdfrwt>
<pdfrwt beam="1">  1       -2 0.41212782E-01 0.16966203E+03</pdfrwt>
<totfact> 0.21375965E+03</totfact>
</mgrwt>
</event>
<event>
 7    1  0.7800420E-006  0.1957025E+03  0.7546771E-02  0.1158064E+00
          1   -1    0    0  501    0  0.00000000000E+00  0.00000000000E+00  0.36703715170E+02  0.36703715170E+02  0.00000000000E+00 0. -1.
         -1   -1    0    0    0  501 -0.00000000000E+00 -0.00000000000E+00 -0.12276280141E+04  0.12276280141E+04  0.00000000000E+00 0.  1.
         23    2    1    2    0    0 -0.10727040290E+03  0.10567602370E+03 -0.31380186881E+03  0.36982573954E+03  0.12500041373E+03 0.  0.
          5    1    3    3  502    0  0.24638060676E+02  0.35706360137E+02 -0.98913566073E+02  0.10811087707E+03  0.47000000000E+01 0. -1.
         -5    1    3    3    0  502 -0.13190846357E+03  0.69969663565E+02 -0.21488830274E+03  0.26171486247E+03  0.47000000000E+01 0. -1.
        -11    1    1    2    0    0  0.80076633895E+02 -0.16286909505E+02 -0.43714708740E+03  0.44471913242E+03  0.00000000000E+00 0.  1.
         11    1    1    2    0    0  0.27193769004E+02 -0.89389114197E+02 -0.43997534270E+03  0.44978685729E+03  0.00000000000E+00 0. -1.
<mgrwt>
<rscale>  0 0.19044132E+03</rscale>
<asrwt>0</asrwt>
<pdfrwt beam="1">  1        1 0.56467253E-02 0.19570249E+03</pdfrwt>
<pdfrwt beam="2">  1       -1 0.18886585E+00 0.19570249E+03</pdfrwt>
<totfact> 0.28002129E+02</totfact>
</mgrwt>
</event>
<event>
 7    1  0.7800420E-006  0.1382828E+03  0.7546771E-02  0.1225467E+00
         -1   -1    0    0    0  501 -0.00000000000E+00  0.00000000000E+00  0.41801315507E+03  0.41801315507E+03  0.00000000000E+00 0.  1.
          1   -1    0    0  501    0  0.00000000000E+00 -0.00000000000E+00 -0.37695670828E+02  0.37695670828E+02  0.00000000000E+00 0. -1.
         23    2    1    2    0    0 -0.58855655305E+02  0.57739257063E+01  0.21884006144E+03  0.25886891105E+03  0.12499925696E+03 0.  0.
          5    1    3    3  502    0 -0.10050821650E+02  0.69219910401E+01  0.20829357131E+03  0.20870370104E+03  0.47000000000E+01 0.  1.
         -5    1    3    3    0  502 -0.48804833655E+02 -0.11480653338E+01  0.10546490126E+02  0.50165210017E+02  0.47000000000E+01 0.  1.
        -11    1    1    2    0    0 -0.15335264521E+02  0.23098032504E+02  0.71564275582E+02  0.76747214823E+02  0.00000000000E+00 0.  1.
         11    1    1    2    0    0  0.74190919826E+02 -0.28871958210E+02  0.89913147220E+02  0.12009270002E+03  0.00000000000E+00 0. -1.
<mgrwt>
<rscale>  0 0.13134923E+03</rscale>
<asrwt>0</asrwt>
<pdfrwt beam="2">  1        1 0.57993343E-02 0.13828283E+03</pdfrwt>
<pdfrwt beam="1">  1       -1 0.64309713E-01 0.13828283E+03</pdfrwt>
<totfact> 0.33108528E+03</totfact>
</mgrwt>
</event>
<event>
 7    1  0.7800420E-006  0.1506410E+03  0.7546771E-02  0.1208610E+00
          2   -1    0    0  501    0  0.00000000000E+00  0.00000000000E+00  0.58214103408E+03  0.58214103408E+03  0.00000000000E+00 0. -1.
         -2   -1    0    0    0  501 -0.00000000000E+00 -0.00000000000E+00 -0.32971768683E+02  0.32971768683E+02  0.00000000000E+00 0.  1.
         23    2    1    2    0    0 -0.48918470549E+02  0.68370756684E+02  0.33877944626E+03  0.37076168287E+03  0.12500054058E+03 0.  0.
          5    1    3    3  502    0 -0.35017591078E+02 -0.21533903853E+02  0.36910200709E+02  0.55447214686E+02  0.47000000000E+01 0.  1.
         -5    1    3    3    0  502 -0.13900879471E+02  0.89904660537E+02  0.30186924555E+03  0.31531446818E+03  0.47000000000E+01 0.  1.
        -11    1    1    2    0    0  0.27282601562E+02 -0.89741511070E+02  0.15544013201E+03  0.18154755244E+03  0.00000000000E+00 0. -1.
         11    1    1    2    0    0  0.21635868987E+02  0.21370754387E+02  0.54949687129E+02  0.62803567458E+02  0.00000000000E+00 0.  1.
<mgrwt>
<rscale>  0 0.14356578E+03</rscale>
<asrwt>0</asrwt>
<pdfrwt beam="1">  1        2 0.89560151E-01 0.15064100E+03</pdfrwt>
<pdfrwt beam="2">  1       -2 0.50725802E-02 0.15064100E+03</pdfrwt>
<totfact> 0.96287964E+03</totfact>
</mgrwt>
</event>
<event>
 7    1  0.7800420E-006  0.1423735E+03  0.7546771E-02  0.1220159E+00
          1   -1    0    0  501    0  0.00000000000E+00  0.00000000000E+00  0.28323387424E+03  0.28323387424E+03  0.00000000000E+00 0. -1.
         -1   -1    0    0    0  501 -0.00000000000E+00 -0.00000000000E+00 -0.75478633280E+02  0.75478633280E+02  0.00000000000E+00 0.  1.
         23    2    1    2    0    0 -0.22981836341E+02 -0.64159590001E+02  0.19687338303E+03  0.24295956963E+03  0.12500242293E+03 0.  0.
          5    1    3    3  502    0 -0.48209150864E+02 -0.88409049217E+02  0.17336173445E+03  0.20054092645E+03  0.47000000000E+01 0. -1.
         -5    1    3    3    0  502  0.25227314523E+02  0.24249459216E+02  0.23511648580E+02  0.42418643180E+02  0.47000000000E+01 0. -1.
        -11    1    1    2    0    0 -0.26920761900E+02 -0.17551651402E+01 -0.12647827240E+02  0.29795562754E+02  0.00000000000E+00 0.  1.
         11    1    1    2    0    0  0.49902598241E+02  0.65914755141E+02  0.23529685175E+02  0.85957375140E+02  0.00000000000E+00 0. -1.
<mgrwt>
<rscale>  0 0.13504330E+03</rscale>
<asrwt>0</asrwt>
<pdfrwt beam="1">  1        1 0.43574442E-01 0.14237354E+03</pdfrwt>
<pdfrwt beam="2">  1       -1 0.11612098E-01 0.14237354E+03</pdfrwt>
<totfact> 0.43820919E+03</totfact>
</mgrwt>
</event>
<event>
 7    1  0.7800420E-006  0.1439672E+03  0.7546771E-02  0.1216774E+00
         -2   -1    0    0    0  501 -0.00000000000E+00  0.00000000000E+00  0.22095973191E+02  0.22095973191E+02  0.00000000000E+00 0.  1.
          2   -1    0    0  501    0  0.00000000000E+00 -0.00000000000E+00 -0.12706881566E+04  0.12706881566E+04  0.00000000000E+00 0. -1.
         23    2    1    2    0    0 -0.35672366391E+02 -0.78731693013E+02 -0.10578447200E+04  0.10675963728E+04  0.11513195178E+03 0.  0.
          5    1    3    3  502    0  0.18568341733E+02 -0.54449598333E+02 -0.83253982325E+03  0.83453830911E+03  0.47000000000E+01 0. -1.
         -5    1    3    3    0  502 -0.54240708124E+02 -0.24282094680E+02 -0.22530489676E+03  0.23305806367E+03  0.47000000000E+01 0.  1.
        -11    1    1    2    0    0  0.37271254165E+02  0.15338976040E+02 -0.13454949673E+03  0.14045639054E+03  0.00000000000E+00 0. -1.
         11    1    1    2    0    0 -0.15988877735E+01  0.63392716973E+02 -0.56197966698E+02  0.84731366497E+02  0.00000000000E+00 0.  1.
<mgrwt>
<rscale>  0 0.13747043E+03</rscale>
<asrwt>0</asrwt>
<pdfrwt beam="2">  1        2 0.19549049E+00 0.14396723E+03</pdfrwt>
<pdfrwt beam="1">  1       -2 0.33993804E-02 0.14396723E+03</pdfrwt>
<totfact> 0.62726568E+03</totfact>
</mgrwt>
</event>
<event>
 7    1  0.7800420E-006  0.1908643E+03  0.7546771E-02  0.1159570E+00
         -2   -1    0    0    0  501 -0.00000000000E+00  0.00000000000E+00  0.10445470453E+03  0.10445470453E+03  0.00000000000E+00 0.  1.
          2   -1    0    0  501    0  0.00000000000E+00 -0.00000000000E+00 -0.36968713500E+03  0.36968713500E+03  0.00000000000E+00 0. -1.
         23    2    1    2    0    0 -0.15540484310E+03  0.63903803232E+01 -0.20899595630E+03  0.28303441829E+03  0.11062400267E+03 0.  0.
          5    1    3    3  502    0 -0.12343173704E+03 -0.34520024364E+02 -0.18628829772E+03  0.22616906433E+03  0.47000000000E+01 0. -1.
         -5    1    3    3    0  502 -0.31973106064E+02  0.40910404688E+02 -0.22707658577E+02  0.56865353961E+02  0.47000000000E+01 0.  1.
        -11    1    1    2    0    0  0.15318013561E+03 -0.32079433348E+02 -0.44029534534E+02  0.16257873139E+03  0.00000000000E+00 0.  1.
         11    1    1    2    0    0  0.22247074916E+01  0.25689053025E+02 -0.12206939634E+02  0.28528689839E+02  0.00000000000E+00 0. -1.
<mgrwt>
<rscale>  0 0.18877563E+03</rscale>
<asrwt>0</asrwt>
<pdfrwt beam="2">  1        2 0.56874944E-01 0.19086428E+03</pdfrwt>
<pdfrwt beam="1">  1       -2 0.16069954E-01 0.19086428E+03</pdfrwt>
<totfact> 0.26173393E+03</totfact>
</mgrwt>
</event>
<event>
 7    1  0.7800420E-006  0.1451761E+03  0.7546771E-02  0.1216394E+00
         -2   -1    0    0    0  501 -0.00000000000E+00  0.00000000000E+00  0.74999056554E+02  0.74999056554E+02  0.00000000000E+00 0.  1.
          2   -1    0    0  501    0  0.00000000000E+00 -0.00000000000E+00 -0.34039151030E+03  0.34039151030E+03  0.00000000000E+00 0. -1.
         23    2    1    2    0    0 -0.24708648851E+02  0.69571324380E+02 -0.25978133141E+03  0.29759443701E+03  0.12500168914E+03 0.  0.
          5    1    3    3  502    0 -0.39548596418E+02 -0.12892621047E+02 -0.16840061547E+03  0.17352569967E+03  0.47000000000E+01 0.  1.
         -5    1    3    3    0  502  0.14839947568E+02  0.82463945427E+02 -0.91380715943E+02  0.12406873734E+03  0.47000000000E+01 0.  1.
        -11    1    1    2    0    0  0.59630934056E+02 -0.40046576754E+02 -0.58151361935E+01  0.72065195587E+02  0.00000000000E+00 0. -1.
         11    1    1    2    0    0 -0.34922285205E+02 -0.29524747626E+02  0.20401385714E+00  0.45730934257E+02  0.00000000000E+00 0.  1.
<mgrwt>
<rscale>  0 0.13774659E+03</rscale>
<asrwt>0</asrwt>
<pdfrwt beam="2">  1        2 0.52367925E-01 0.14517613E+03</pdfrwt>
<pdfrwt beam="1">  1       -2 0.11538316E-01 0.14517613E+03</pdfrwt>
<totfact> 0.48402505E+03</totfact>
</mgrwt>
</event>
<event>
 7    1  0.7800420E-006  0.1291825E+03  0.7546771E-02  0.1252888E+00
         -1   -1    0    0    0  501 -0.00000000000E+00  0.00000000000E+00  0.36936193802E+02  0.36936193802E+02  0.00000000000E+00 0.  1.
          1   -1    0    0  501    0  0.00000000000E+00 -0.00000000000E+00 -0.33493129579E+03  0.33493129579E+03  0.00000000000E+00 0. -1.
         23    2    1    2    0    0 -0.32565239195E+02 -0.20327063714E+01 -0.24416537484E+03  0.27623333338E+03  0.12499398986E+03 0.  0.
          5    1    3    3  502    0  0.25374433735E+02 -0.76049919273E+01 -0.18346880686E+01  0.26965790734E+02  0.47000000000E+01 0.  1.
         -5    1    3    3    0  502 -0.57939672930E+02  0.55722855559E+01 -0.24233068678E+03  0.24926754265E+03  0.47000000000E+01 0.  1.
        -11    1    1    2    0    0  0.51411155948E+01 -0.33414249168E+02 -0.28068838583E+02  0.43940901407E+02  0.00000000000E+00 0.  1.
         11    1    1    2    0    0  0.27424123600E+02  0.35446955540E+02 -0.25760888555E+02  0.51693254796E+02  0.00000000000E+00 0. -1.
<mgrwt>
<rscale>  0 0.11425432E+03</rscale>
<asrwt>0</asrwt>
<pdfrwt beam="2">  1        1 0.51527888E-01 0.12918252E+03</pdfrwt>
<pdfrwt beam="1">  1       -1 0.56824918E-02 0.12918252E+03</pdfrwt>
<totfact> 0.10413939E+04</totfact>
</mgrwt>
</event>
<event>
 7    1  0.7800420E-006  0.1670670E+03  0.7546771E-02  0.1188854E+00
          2   -1    0    0  501    0  0.00000000000E+00  0.00000000000E+00  0.34742409607E+03  0.34742409607E+03  0.00000000000E+00 0. -1.
         -2   -1    0    0    0  501 -0.00000000000E+00 -0.00000000000E+00 -0.75493653755E+02  0.75493653755E+02  0.00000000000E+00 0.  1.
         23    2    1    2    0    0  0.92269902138E+02  0.61438286383E+02  0.21366497459E+03  0.27122701366E+03  0.12499189453E+03 0.  0.
          5    1    3    3  502    0  0.98319476016E+02  0.15592295950E+01  0.17097334450E+03  0.19728944496E+03  0.47000000000E+01 0.  1.
         -5    1    3    3    0  502 -0.60495738781E+01  0.59879056788E+02  0.42691630087E+02  0.73937568701E+02  0.47000000000E+01 0.  1.
        -11    1    1    2    0    0 -0.22228859012E+02 -0.37421634820E+02 -0.16421796468E+02  0.46520708559E+02  0.00000000000E+00 0.  1.
         11    1    1    2    0    0 -0.70041043126E+02 -0.24016651562E+02  0.74687264197E+02  0.10517002761E+03  0.00000000000E+00 0. -1.
<mgrwt>
<rscale>  0 0.15986083E+03</rscale>
<asrwt>0</asrwt>
<pdfrwt beam="1">  1        2 0.53449860E-01 0.16706697E+03</pdfrwt>
<pdfrwt beam="2">  1       -2 0.11614408E-01 0.16706697E+03</pdfrwt>
<totfact> 0.47208880E+03</totfact>
</mgrwt>
</event>
<event>
 7    1  0.7800420E-006  0.1559896E+03  0.7546771E-02  0.1200936E+00
         -3   -1    0    0    0  501 -0.00000000000E+00  0.00000000000E+00  0.21989465773E+03  0.21989465773E+03  0.00000000000E+00 0.  1.
          3   -1    0    0  501    0  0.00000000000E+00 -0.00000000000E+00 -0.10668458557E+03  0.10668458557E+03  0.00000000000E+00 0. -1.
         23    2    1    2    0    0  0.54012038531E+02  0.76103006805E+02  0.53490811529E+01  0.15608131172E+03  0.12499518090E+03 0.  0.
          5    1    3    3  502    0  0.38128979593E+02  0.74220888676E+02 -0.50601981856E+02  0.97699590421E+02  0.47000000000E+01 0. -1.
         -5    1    3    3    0  502  0.15883058938E+02  0.18821181291E+01  0.55951063009E+02  0.58381721298E+02  0.47000000000E+01 0. -1.
        -11    1    1    2    0    0  0.27449736941E+01 -0.14255583968E+02  0.81104589566E+02  0.82393634484E+02  0.00000000000E+00 0.  1.
         11    1    1    2    0    0 -0.56757012225E+02 -0.61847422838E+02  0.26756401443E+02  0.88104297095E+02  0.00000000000E+00 0. -1.
<mgrwt>
<rscale>  0 0.14962400E+03</rscale>
<asrwt>0</asrwt>
<pdfrwt beam="2">  1        3 0.16413013E-01 0.15598963E+03</pdfrwt>
<pdfrwt beam="1">  1       -3 0.33829947E-01 0.15598963E+03</pdfrwt>
<totfact> 0.64244585E+02</totfact>
</mgrwt>
</event>
<event>
 7    1  0.7800420E-006  0.1318563E+03  0.7546771E-02  0.1237652E+00
         -2   -1    0    0    0  501 -0.00000000000E+00  0.00000000000E+00  0.45351405354E+02  0.45351405354E+02  0.00000000000E+00 0.  1.
          2   -1    0    0  501    0  0.00000000000E+00 -0.00000000000E+00 -0.35514810080E+03  0.35514810080E+03  0.00000000000E+00 0. -1.
         23    2    1    2    0    0 -0.29479788034E+01  0.41997156077E+02 -0.25122433948E+03  0.28372477981E+03  0.12495451266E+03 0.  0.
          5    1    3    3  502    0  0.41563151479E+02  0.48784964487E+02 -0.62485175034E+02  0.89632334678E+02  0.47000000000E+01 0. -1.
         -5    1    3    3    0  502 -0.44511130282E+02 -0.67878084098E+01 -0.18873916444E+03  0.19409244513E+03  0.47000000000E+01 0. -1.
        -11    1    1    2    0    0  0.36223566842E+02 -0.48213051547E+02 -0.16012670235E+02  0.62394316587E+02  0.00000000000E+00 0.  1.
         11    1    1    2    0    0 -0.33275588039E+02  0.62158954707E+01 -0.42559685736E+02  0.54380409761E+02  0.00000000000E+00 0. -1.
<mgrwt>
<rscale>  0 0.12336176E+03</rscale>
<asrwt>0</asrwt>
<pdfrwt beam="2">  1        2 0.54638167E-01 0.13185629E+03</pdfrwt>
<pdfrwt beam="1">  1       -2 0.69771395E-02 0.13185629E+03</pdfrwt>
<totfact> 0.10075934E+04</totfact>
</mgrwt>
</event>
<event>
 7    1  0.7800420E-006  0.1521141E+03  0.7546771E-02  0.1207137E+00
         -2   -1    0    0    0  501 -0.00000000000E+00  0.00000000000E+00  0.95517904322E+02  0.95517904322E+02  0.00000000000E+00 0.  1.
          2   -1    0    0  501    0  0.00000000000E+00 -0.00000000000E+00 -0.20791965326E+03  0.20791965326E+03  0.00000000000E+00 0. -1.
         23    2    1    2    0    0 -0.55967153792E+02 -0.66354956482E+02 -0.90380434028E+02  0.17693877099E+03  0.12491358321E+03 0.  0.
          5    1    3    3  502    0 -0.67589102923E+02 -0.41944177511E+02  0.28677769938E+01  0.79736534950E+02  0.47000000000E+01 0. -1.
         -5    1    3    3    0  502  0.11621949131E+02 -0.24410778971E+02 -0.93248211022E+02  0.97202236036E+02  0.47000000000E+01 0. -1.
        -11    1    1    2    0    0  0.12582884189E+02  0.46194376943E+02  0.29464656704E+02  0.56217572256E+02  0.00000000000E+00 0.  1.
         11    1    1    2    0    0  0.43384269603E+02  0.20160579539E+02 -0.51485971616E+02  0.70281214343E+02  0.00000000000E+00 0. -1.
<mgrwt>
<rscale>  0 0.14470320E+03</rscale>
<asrwt>0</asrwt>
<pdfrwt beam="2">  1        2 0.31987638E-01 0.15211412E+03</pdfrwt>
<pdfrwt beam="1">  1       -2 0.14695062E-01 0.15211412E+03</pdfrwt>
<totfact> 0.55611498E+03</totfact>
</mgrwt>
</event>
<event>
 7    1  0.7800420E-006  0.1334054E+03  0.7546771E-02  0.1233355E+00
          2   -1    0    0  501    0  0.00000000000E+00  0.00000000000E+00  0.92904781498E+03  0.92904781498E+03  0.00000000000E+00 0. -1.
         -2   -1    0    0    0  501 -0.00000000000E+00 -0.00000000000E+00 -0.17687839926E+02  0.17687839926E+02  0.00000000000E+00 0.  1.
         23    2    1    2    0    0 -0.17663448122E+02  0.43101364189E+02  0.66640261197E+03  0.67962449152E+03  0.12500913265E+03 0.  0.
          5    1    3    3  502    0 -0.24301693864E+02  0.54860683990E+02  0.66190490768E+03  0.66463558721E+03  0.47000000000E+01 0.  1.
         -5    1    3    3    0  502  0.66382457424E+01 -0.11759319800E+02  0.44977042868E+01  0.14988904315E+02  0.47000000000E+01 0.  1.
        -11    1    1    2    0    0 -0.14147986654E+02 -0.64191539203E+02  0.18178184766E+03  0.19330121410E+03  0.00000000000E+00 0.  1.
         11    1    1    2    0    0  0.31811434776E+02  0.21090175014E+02  0.63175515425E+02  0.73809949287E+02  0.00000000000E+00 0. -1.
<mgrwt>
<rscale>  0 0.12610351E+03</rscale>
<asrwt>0</asrwt>
<pdfrwt beam="1">  1        2 0.14293040E+00 0.13340543E+03</pdfrwt>
<pdfrwt beam="2">  1       -2 0.27212069E-02 0.13340543E+03</pdfrwt>
<totfact> 0.13637343E+04</totfact>
</mgrwt>
</event>
<event>
 7    1  0.7800420E-006  0.1337413E+03  0.7546771E-02  0.1234694E+00
          1   -1    0    0  501    0  0.00000000000E+00  0.00000000000E+00  0.14815362162E+04  0.14815362162E+04  0.00000000000E+00 0. -1.
         -1   -1    0    0    0  501 -0.00000000000E+00 -0.00000000000E+00 -0.10172680373E+02  0.10172680373E+02  0.00000000000E+00 0.  1.
         23    2    1    2    0    0 -0.44844415743E+02  0.15857346166E+02  0.10227861573E+04  0.10314932170E+04  0.12499702441E+03 0.  0.
          5    1    3    3  502    0 -0.83625197522E+01 -0.30498341500E+02  0.81002679463E+03  0.81065749771E+03  0.47000000000E+01 0.  1.
         -5    1    3    3    0  502 -0.36481895991E+02  0.46355687666E+02  0.21275936268E+03  0.22083571930E+03  0.47000000000E+01 0.  1.
        -11    1    1    2    0    0 -0.24285275025E+02  0.58571598461E+01  0.60898631701E+02  0.65823432359E+02  0.00000000000E+00 0.  1.
         11    1    1    2    0    0  0.69129690767E+02 -0.21714506012E+02  0.38767874682E+03  0.39439224720E+03  0.00000000000E+00 0. -1.
<mgrwt>
<rscale>  0 0.12524012E+03</rscale>
<asrwt>0</asrwt>
<pdfrwt beam="1">  1        1 0.22792848E+00 0.13374129E+03</pdfrwt>
<pdfrwt beam="2">  1       -1 0.15650289E-02 0.13374129E+03</pdfrwt>
<totfact> 0.70589815E+03</totfact>
</mgrwt>
</event>
<event>
 7    1  0.7800420E-006  0.1124246E+03  0.7546771E-02  0.1264997E+00
          1   -1    0    0  501    0  0.00000000000E+00  0.00000000000E+00  0.33144535637E+03  0.33144535637E+03  0.00000000000E+00 0. -1.
         -1   -1    0    0    0  501 -0.00000000000E+00 -0.00000000000E+00 -0.32353298995E+02  0.32353298995E+02  0.00000000000E+00 0.  1.
         23    2    1    2    0    0 -0.20853378867E+02  0.88928619910E+01  0.15460001588E+03  0.19115557001E+03  0.11011512445E+03 0.  0.
          5    1    3    3  502    0 -0.61273611236E+02 -0.13240309744E+02  0.65818557237E+02  0.91016117874E+02  0.47000000000E+01 0. -1.
         -5    1    3    3    0  502  0.40420232369E+02  0.22133171735E+02  0.88781458646E+02  0.10013945214E+03  0.47000000000E+01 0.  1.
        -11    1    1    2    0    0  0.51428665694E+02  0.10349330760E+02  0.54380485403E+02  0.75559602268E+02  0.00000000000E+00 0.  1.
         11    1    1    2    0    0 -0.30575286827E+02 -0.19242192751E+02  0.90111556085E+02  0.97083483078E+02  0.00000000000E+00 0. -1.
<mgrwt>
<rscale>  0 0.10764363E+03</rscale>
<asrwt>0</asrwt>
<pdfrwt beam="1">  1        1 0.50991591E-01 0.11242458E+03</pdfrwt>
<pdfrwt beam="2">  1       -1 0.49774308E-02 0.11242458E+03</pdfrwt>
<totfact> 0.12687257E+04</totfact>
</mgrwt>
</event>
<event>
 7    1  0.7800420E-006  0.1356566E+03  0.7546771E-02  0.1231132E+00
          3   -1    0    0  501    0  0.00000000000E+00  0.00000000000E+00  0.45885153524E+03  0.45885153524E+03  0.00000000000E+00 0. -1.
         -3   -1    0    0    0  501 -0.00000000000E+00 -0.00000000000E+00 -0.32606971999E+02  0.32606971999E+02  0.00000000000E+00 0.  1.
         23    2    1    2    0    0 -0.51827751522E+02  0.95807382275E+01  0.27636476382E+03  0.30786394075E+03  0.12499926783E+03 0.  0.
          5    1    3    3  502    0 -0.58251103549E+02 -0.11916971162E+02  0.27852424900E+03  0.28483864300E+03  0.47000000000E+01 0.  1.
         -5    1    3    3    0  502  0.64233520272E+01  0.21497709389E+02 -0.21594851756E+01  0.23025297750E+02  0.47000000000E+01 0.  1.
        -11    1    1    2    0    0  0.55492430303E+02  0.24256558771E+02  0.51516556599E+02  0.79509408677E+02  0.00000000000E+00 0.  1.
         11    1    1    2    0    0 -0.36646787811E+01 -0.33837296999E+02  0.98363242817E+02  0.10408515781E+03  0.00000000000E+00 0. -1.
<mgrwt>
<rscale>  0 0.12755313E+03</rscale>
<asrwt>0</asrwt>
<pdfrwt beam="1">  1        3 0.70592539E-01 0.13565664E+03</pdfrwt>
<pdfrwt beam="2">  1       -3 0.50164575E-02 0.13565664E+03</pdfrwt>
<totfact> 0.10232764E+03</totfact>
</mgrwt>
</event>
<event>
 7    1  0.7800420E-006  0.1275647E+03  0.7546771E-02  0.1246946E+00
          2   -1    0    0  501    0  0.00000000000E+00  0.00000000000E+00  0.34595950268E+03  0.34595950268E+03  0.00000000000E+00 0. -1.
         -2   -1    0    0    0  501 -0.00000000000E+00 -0.00000000000E+00 -0.36591937662E+02  0.36591937662E+02  0.00000000000E+00 0.  1.
         23    2    1    2    0    0 -0.34045206258E+01  0.25215501808E+02  0.21797704434E+03  0.25256038449E+03  0.12500137465E+03 0.  0.
          5    1    3    3  502    0 -0.46933459717E+02 -0.29883024284E+02  0.78484307175E+02  0.96320409334E+02  0.47000000000E+01 0. -1.
         -5    1    3    3    0  502  0.43528939091E+02  0.55098526093E+02  0.13949273717E+03  0.15623997516E+03  0.47000000000E+01 0. -1.
        -11    1    1    2    0    0  0.10987949040E+02 -0.56787400431E+02  0.44604822230E+02  0.73042001876E+02  0.00000000000E+00 0.  1.
         11    1    1    2    0    0 -0.75834284144E+01  0.31571898623E+02  0.46785698443E+02  0.56949053969E+02  0.00000000000E+00 0. -1.
<mgrwt>
<rscale>  0 0.11769683E+03</rscale>
<asrwt>0</asrwt>
<pdfrwt beam="1">  1        2 0.53224537E-01 0.12756471E+03</pdfrwt>
<pdfrwt beam="2">  1       -2 0.56295291E-02 0.12756471E+03</pdfrwt>
<totfact> 0.14313297E+04</totfact>
</mgrwt>
</event>
<event>
 7    1  0.7800420E-006  0.1596933E+03  0.7546771E-02  0.1196917E+00
          1   -1    0    0  501    0  0.00000000000E+00  0.00000000000E+00  0.71935868339E+02  0.71935868339E+02  0.00000000000E+00 0. -1.
         -1   -1    0    0    0  501 -0.00000000000E+00 -0.00000000000E+00 -0.30155388617E+03  0.30155388617E+03  0.00000000000E+00 0.  1.
         23    2    1    2    0    0 -0.19466077012E+02 -0.97461738123E+02 -0.11322102354E+03  0.19575735411E+03  0.12499689181E+03 0.  0.
          5    1    3    3  502    0  0.18300129018E+02 -0.58594693458E+02  0.87706348025E+01  0.62187192076E+02  0.47000000000E+01 0. -1.
         -5    1    3    3    0  502 -0.37766206030E+02 -0.38867044665E+02 -0.12199165834E+03  0.13357016203E+03  0.47000000000E+01 0. -1.
        -11    1    1    2    0    0  0.23846164658E+02  0.65956222497E+01  0.57792550318E+01  0.25407510514E+02  0.00000000000E+00 0. -1.
         11    1    1    2    0    0 -0.43800876460E+01  0.90866115873E+02 -0.12217624932E+03  0.15232488989E+03  0.00000000000E+00 0.  1.
<mgrwt>
<rscale>  0 0.15293123E+03</rscale>
<asrwt>0</asrwt>
<pdfrwt beam="1">  1        1 0.11067056E-01 0.15969327E+03</pdfrwt>
<pdfrwt beam="2">  1       -1 0.46392907E-01 0.15969327E+03</pdfrwt>
<totfact> 0.25740441E+03</totfact>
</mgrwt>
</event>
<event>
 7    1  0.7800420E-006  0.2077693E+03  0.7546771E-02  0.1147180E+00
         -1   -1    0    0    0  501 -0.00000000000E+00  0.00000000000E+00  0.32227480428E+02  0.32227480428E+02  0.00000000000E+00 0.  1.
          1   -1    0    0  501    0  0.00000000000E+00 -0.00000000000E+00 -0.12820533700E+04  0.12820533700E+04  0.00000000000E+00 0. -1.
         23    2    1    2    0    0 -0.16429147292E+03  0.23523345890E+02 -0.79104586764E+03  0.81787629522E+03  0.12499213450E+03 0.  0.
          5    1    3    3  502    0 -0.35388459857E+02 -0.63520639911E+01 -0.45864553451E+03  0.46007663290E+03  0.47000000000E+01 0. -1.
         -5    1    3    3    0  502 -0.12890301306E+03  0.29875409881E+02 -0.33240033313E+03  0.35779966232E+03  0.47000000000E+01 0. -1.
        -11    1    1    2    0    0  0.20153274677E+02 -0.30467108005E+02 -0.43707858071E+02  0.56962935383E+02  0.00000000000E+00 0.  1.
         11    1    1    2    0    0  0.14413819824E+03  0.69437621150E+01 -0.41507216381E+03  0.43944161978E+03  0.00000000000E+00 0. -1.
<mgrwt>
<rscale>  0 0.20306300E+03</rscale>
<asrwt>0</asrwt>
<pdfrwt beam="2">  1        1 0.19723895E+00 0.20776927E+03</pdfrwt>
<pdfrwt beam="1">  1       -1 0.49580746E-02 0.20776927E+03</pdfrwt>
<totfact> 0.17897028E+03</totfact>
</mgrwt>
</event>
<event>
 7    1  0.7800420E-006  0.1266781E+03  0.7546771E-02  0.1246764E+00
          2   -1    0    0  501    0  0.00000000000E+00  0.00000000000E+00  0.30688271757E+03  0.30688271757E+03  0.00000000000E+00 0. -1.
         -2   -1    0    0    0  501 -0.00000000000E+00 -0.00000000000E+00 -0.39963968799E+02  0.39963968799E+02  0.00000000000E+00 0.  1.
         23    2    1    2    0    0 -0.17929799790E+02  0.10151325230E+02  0.15698019293E+03  0.20171790341E+03  0.12499121754E+03 0.  0.
          5    1    3    3  502    0  0.23711320878E+02 -0.39783818051E+02  0.21307287446E+02  0.51196380876E+02  0.47000000000E+01 0. -1.
         -5    1    3    3    0  502 -0.41641120669E+02  0.49935143282E+02  0.13567290548E+03  0.15052152254E+03  0.47000000000E+01 0. -1.
        -11    1    1    2    0    0  0.19802209785E+02 -0.37522038754E+02  0.12986444317E+02  0.44369794237E+02  0.00000000000E+00 0.  1.
         11    1    1    2    0    0 -0.18724099947E+01  0.27370713523E+02  0.96952111525E+02  0.10075898872E+03  0.00000000000E+00 0. -1.
<mgrwt>
<rscale>  0 0.11780417E+03</rscale>
<asrwt>0</asrwt>
<pdfrwt beam="1">  1        2 0.47212724E-01 0.12667806E+03</pdfrwt>
<pdfrwt beam="2">  1       -2 0.61483031E-02 0.12667806E+03</pdfrwt>
<totfact> 0.14212520E+04</totfact>
</mgrwt>
</event>
<event>
 7    1  0.7800420E-006  0.1496369E+03  0.7546771E-02  0.1210177E+00
         -1   -1    0    0    0  501 -0.00000000000E+00  0.00000000000E+00  0.19455029855E+02  0.19455029855E+02  0.00000000000E+00 0.  1.
          1   -1    0    0  501    0  0.00000000000E+00 -0.00000000000E+00 -0.98197727990E+03  0.98197727990E+03  0.00000000000E+00 0. -1.
         23    2    1    2    0    0  0.28531952628E+02 -0.77149240110E+02 -0.61399312769E+03  0.63196422060E+03  0.12500055082E+03 0.  0.
          5    1    3    3  502    0 -0.28938233837E+01 -0.10498757492E+03 -0.48370596938E+03  0.49499931305E+03  0.47000000000E+01 0.  1.
         -5    1    3    3    0  502  0.31425776012E+02  0.27838334807E+02 -0.13028715831E+03  0.13696490756E+03  0.47000000000E+01 0.  1.
        -11    1    1    2    0    0 -0.48882755290E+02  0.17781487263E+02 -0.95232005434E+02  0.10851193443E+03  0.00000000000E+00 0.  1.
         11    1    1    2    0    0  0.20350802661E+02  0.59367752847E+02 -0.25329711692E+03  0.26095615473E+03  0.00000000000E+00 0. -1.
<mgrwt>
<rscale>  0 0.14236849E+03</rscale>
<asrwt>0</asrwt>
<pdfrwt beam="2">  1        1 0.15107342E+00 0.14963694E+03</pdfrwt>
<pdfrwt beam="1">  1       -1 0.29930817E-02 0.14963694E+03</pdfrwt>
<totfact> 0.60998877E+03</totfact>
</mgrwt>
</event>
<event>
 7    1  0.7800420E-006  0.1288217E+03  0.7546771E-02  0.1235956E+00
         -2   -1    0    0    0  501 -0.00000000000E+00  0.00000000000E+00  0.25439734059E+02  0.25439734059E+02  0.00000000000E+00 0.  1.
          2   -1    0    0  501    0  0.00000000000E+00 -0.00000000000E+00 -0.57529167417E+03  0.57529167417E+03  0.00000000000E+00 0. -1.
         23    2    1    2    0    0  0.17421482092E+01 -0.31099045097E+02 -0.32076137638E+03  0.34566297597E+03  0.12499938679E+03 0.  0.
          5    1    3    3  502    0  0.55146716240E+02 -0.37379301566E+02 -0.23519695287E+03  0.24449554012E+03  0.47000000000E+01 0. -1.
         -5    1    3    3    0  502 -0.53404568031E+02  0.62802564696E+01 -0.85564423502E+02  0.10116743585E+03  0.47000000000E+01 0. -1.
        -11    1    1    2    0    0 -0.21191572913E+02 -0.26139519061E+02 -0.15894244798E+03  0.16246556247E+03  0.00000000000E+00 0. -1.
         11    1    1    2    0    0  0.19449424704E+02  0.57238564158E+02 -0.70148115756E+02  0.92602869784E+02  0.00000000000E+00 0.  1.
<mgrwt>
<rscale>  0 0.12443448E+03</rscale>
<asrwt>0</asrwt>
<pdfrwt beam="2">  1        2 0.88506408E-01 0.12882171E+03</pdfrwt>
<pdfrwt beam="1">  1       -2 0.39138054E-02 0.12882171E+03</pdfrwt>
<totfact> 0.14221216E+04</totfact>
</mgrwt>
</event>
<event>
 7    1  0.7800420E-006  0.1326161E+03  0.7546771E-02  0.1238769E+00
          2   -1    0    0  501    0  0.00000000000E+00  0.00000000000E+00  0.21028182849E+04  0.21028182849E+04  0.00000000000E+00 0. -1.
         -2   -1    0    0    0  501 -0.00000000000E+00 -0.00000000000E+00 -0.85336548823E+01  0.85336548823E+01  0.00000000000E+00 0.  1.
         23    2    1    2    0    0  0.30089940006E+02 -0.32142574898E+02  0.17049835499E+04  0.17101333103E+04  0.12509390120E+03 0.  0.
          5    1    3    3  502    0 -0.25751126620E+02 -0.44247992134E+01  0.13069665183E+04  0.13072361184E+04  0.47000000000E+01 0.  1.
         -5    1    3    3    0  502  0.55841066627E+02 -0.27717775684E+02  0.39801703163E+03  0.40289719195E+03  0.47000000000E+01 0.  1.
        -11    1    1    2    0    0 -0.53208441870E+02  0.90614890366E+01  0.32101111535E+03  0.32551710408E+03  0.00000000000E+00 0. -1.
         11    1    1    2    0    0  0.23118501864E+02  0.23081085861E+02  0.68289964738E+02  0.75701525327E+02  0.00000000000E+00 0.  1.
<mgrwt>
<rscale>  0 0.12266190E+03</rscale>
<asrwt>0</asrwt>
<pdfrwt beam="1">  1        2 0.32351009E+00 0.13261611E+03</pdfrwt>
<pdfrwt beam="2">  1       -2 0.13128717E-02 0.13261611E+03</pdfrwt>
<totfact> 0.92583958E+03</totfact>
</mgrwt>
</event>
<event>
 7    1  0.7800420E-006  0.1696358E+03  0.7546771E-02  0.1184790E+00
         -1   -1    0    0    0  501 -0.00000000000E+00  0.00000000000E+00  0.16440597486E+02  0.16440597486E+02  0.00000000000E+00 0.  1.
          1   -1    0    0  501    0  0.00000000000E+00 -0.00000000000E+00 -0.17369502463E+04  0.17369502463E+04  0.00000000000E+00 0. -1.
         23    2    1    2    0    0  0.10874898116E+03  0.36355366893E+02 -0.12252783168E+04  0.12369653387E+04  0.12501296663E+03 0.  0.
          5    1    3    3  502    0  0.23990237383E+02  0.35076204863E+01 -0.33002203981E+02  0.41219781159E+02  0.47000000000E+01 0. -1.
         -5    1    3    3    0  502  0.84758743780E+02  0.32847746407E+02 -0.11922761128E+04  0.11957455575E+04  0.47000000000E+01 0. -1.
        -11    1    1    2    0    0 -0.28426899531E+02  0.84310886993E+01 -0.29957346611E+02  0.42149904977E+02  0.00000000000E+00 0.  1.
         11    1    1    2    0    0 -0.80322081633E+02 -0.44786455593E+02 -0.46527398542E+03  0.47427560016E+03  0.00000000000E+00 0. -1.
<mgrwt>
<rscale>  0 0.16350999E+03</rscale>
<asrwt>0</asrwt>
<pdfrwt beam="2">  1        1 0.26722314E+00 0.16963577E+03</pdfrwt>
<pdfrwt beam="1">  1       -1 0.25293224E-02 0.16963577E+03</pdfrwt>
<totfact> 0.24253823E+03</totfact>
</mgrwt>
</event>
<event>
 7    1  0.7800420E-006  0.1700810E+03  0.7546771E-02  0.1184806E+00
         -2   -1    0    0    0  501 -0.00000000000E+00  0.00000000000E+00  0.59820812456E+02  0.59820812456E+02  0.00000000000E+00 0.  1.
          2   -1    0    0  501    0  0.00000000000E+00 -0.00000000000E+00 -0.58453664117E+03  0.58453664117E+03  0.00000000000E+00 0. -1.
         23    2    1    2    0    0  0.67069504826E+02 -0.93830089319E+02 -0.44992734043E+03  0.48100120692E+03  0.12500058101E+03 0.  0.
          5    1    3    3  502    0  0.85655903695E+02 -0.23509049107E+02 -0.17153117202E+03  0.19322174360E+03  0.47000000000E+01 0.  1.
         -5    1    3    3    0  502 -0.18586398869E+02 -0.70321040212E+02 -0.27839616841E+03  0.28777946332E+03  0.47000000000E+01 0.  1.
        -11    1    1    2    0    0 -0.82595182028E+02  0.47574636132E+02 -0.39680917395E+02  0.10324672054E+03  0.00000000000E+00 0. -1.
         11    1    1    2    0    0  0.15525677202E+02  0.46255453187E+02 -0.35107570892E+02  0.60109526167E+02  0.00000000000E+00 0.  1.
<mgrwt>
<rscale>  0 0.16349574E+03</rscale>
<asrwt>0</asrwt>
<pdfrwt beam="2">  1        2 0.89928711E-01 0.17008101E+03</pdfrwt>
<pdfrwt beam="1">  1       -2 0.92032022E-02 0.17008101E+03</pdfrwt>
<totfact> 0.38633755E+03</totfact>
</mgrwt>
</event>
<event>
 7    1  0.7800420E-006  0.1506886E+03  0.7546771E-02  0.1208135E+00
         -2   -1    0    0    0  501 -0.00000000000E+00  0.00000000000E+00  0.43386618138E+02  0.43386618138E+02  0.00000000000E+00 0.  1.
          2   -1    0    0  501    0  0.00000000000E+00 -0.00000000000E+00 -0.45386208709E+03  0.45386208709E+03  0.00000000000E+00 0. -1.
         23    2    1    2    0    0  0.20131502554E+02 -0.81710418767E+02 -0.26777777635E+03  0.30726536811E+03  0.12500079602E+03 0.  0.
          5    1    3    3  502    0 -0.43975347783E+02 -0.54835890481E+02 -0.78006180096E+02  0.10510880187E+03  0.47000000000E+01 0.  1.
         -5    1    3    3    0  502  0.64106850337E+02 -0.26874528286E+02 -0.18977159625E+03  0.20215656624E+03  0.47000000000E+01 0.  1.
        -11    1    1    2    0    0  0.22439736102E+02  0.46720563843E+02 -0.20137206551E+02  0.55604495590E+02  0.00000000000E+00 0.  1.
         11    1    1    2    0    0 -0.42571238655E+02  0.34989854924E+02 -0.12256048606E+03  0.13437884153E+03  0.00000000000E+00 0. -1.
<mgrwt>
<rscale>  0 0.14393124E+03</rscale>
<asrwt>0</asrwt>
<pdfrwt beam="2">  1        2 0.69824940E-01 0.15068865E+03</pdfrwt>
<pdfrwt beam="1">  1       -2 0.66748640E-02 0.15068865E+03</pdfrwt>
<totfact> 0.83652206E+03</totfact>
</mgrwt>
</event>
<event>
 7    1  0.7800420E-006  0.1269978E+03  0.7546771E-02  0.1246822E+00
          1   -1    0    0  501    0  0.00000000000E+00  0.00000000000E+00  0.31125378214E+03  0.31125378214E+03  0.00000000000E+00 0. -1.
         -1   -1    0    0    0  501 -0.00000000000E+00 -0.00000000000E+00 -0.60856901599E+02  0.60856901599E+02  0.00000000000E+00 0.  1.
         23    2    1    2    0    0  0.12825004322E+02  0.18349606332E+02  0.24746082155E+03  0.27814620020E+03  0.12500904646E+03 0.  0.
          5    1    3    3  502    0  0.11777568675E+02 -0.48880638611E+02  0.15966831619E+03  0.16746369502E+03  0.47000000000E+01 0.  1.
         -5    1    3    3    0  502  0.10474356467E+01  0.67230244943E+02  0.87792505357E+02  0.11068250518E+03  0.47000000000E+01 0.  1.
        -11    1    1    2    0    0 -0.49290296154E+02 -0.68953366980E+01 -0.14663245629E+02  0.51885351840E+02  0.00000000000E+00 0.  1.
         11    1    1    2    0    0  0.36465291832E+02 -0.11454269634E+02  0.17599304623E+02  0.42079131698E+02  0.00000000000E+00 0. -1.
<mgrwt>
<rscale>  0 0.11777013E+03</rscale>
<asrwt>0</asrwt>
<pdfrwt beam="1">  1        1 0.47885196E-01 0.12699784E+03</pdfrwt>
<pdfrwt beam="2">  1       -1 0.93626004E-02 0.12699784E+03</pdfrwt>
<totfact> 0.53853202E+03</totfact>
</mgrwt>
</event>
<event>
 7    1  0.7800420E-006  0.1312678E+03  0.7546771E-02  0.1239273E+00
         -1   -1    0    0    0  501 -0.00000000000E+00  0.00000000000E+00  0.18658534066E+02  0.18658534066E+02  0.00000000000E+00 0.  1.
          1   -1    0    0  501    0  0.00000000000E+00 -0.00000000000E+00 -0.90977704395E+03  0.90977704395E+03  0.00000000000E+00 0. -1.
         23    2    1    2    0    0 -0.26255990930E+02 -0.30282277889E+02 -0.70964846824E+03  0.72168703773E+03  0.12499935418E+03 0.  0.
          5    1    3    3  502    0 -0.28389912329E+01 -0.19335996374E+02 -0.68613302048E+03  0.68642738321E+03  0.47000000000E+01 0. -1.
         -5    1    3    3    0  502 -0.23416999698E+02 -0.10946281515E+02 -0.23515447755E+02  0.35259654521E+02  0.47000000000E+01 0. -1.
        -11    1    1    2    0    0  0.53455099794E+02  0.31034036144E+02 -0.76716831979E+02  0.98519193066E+02  0.00000000000E+00 0.  1.
         11    1    1    2    0    0 -0.27199108864E+02 -0.75175825559E+00 -0.10475320967E+03  0.10822934722E+03  0.00000000000E+00 0. -1.
<mgrwt>
<rscale>  0 0.12234806E+03</rscale>
<asrwt>0</asrwt>
<pdfrwt beam="2">  1        1 0.13996567E+00 0.13126779E+03</pdfrwt>
<pdfrwt beam="1">  1       -1 0.28705443E-02 0.13126779E+03</pdfrwt>
<totfact> 0.72998716E+03</totfact>
</mgrwt>
</event>
<event>
 7    1  0.7800420E-006  0.1253497E+03  0.7546771E-02  0.1249829E+00
         -1   -1    0    0    0  501 -0.00000000000E+00  0.00000000000E+00  0.48972522300E+02  0.48972522300E+02  0.00000000000E+00 0.  1.
          1   -1    0    0  501    0  0.00000000000E+00 -0.00000000000E+00 -0.36424968543E+03  0.36424968543E+03  0.00000000000E+00 0. -1.
         23    2    1    2    0    0 -0.23687075192E+01  0.90479280639E+01 -0.29287435835E+03  0.31857172263E+03  0.12500030761E+03 0.  0.
          5    1    3    3  502    0 -0.40440859958E+02  0.52424332853E+02 -0.13555571394E+03  0.15093447390E+03  0.47000000000E+01 0. -1.
         -5    1    3    3    0  502  0.38072152438E+02 -0.43376404789E+02 -0.15731864441E+03  0.16763724873E+03  0.47000000000E+01 0. -1.
        -11    1    1    2    0    0  0.45917429124E+02  0.40570832498E+01 -0.69400527668E+01  0.46615818713E+02  0.00000000000E+00 0. -1.
         11    1    1    2    0    0 -0.43548721605E+02 -0.13105011314E+02 -0.15462752012E+02  0.48034666385E+02  0.00000000000E+00 0.  1.
<mgrwt>
<rscale>  0 0.11600948E+03</rscale>
<asrwt>0</asrwt>
<pdfrwt beam="2">  1        1 0.56038414E-01 0.12534972E+03</pdfrwt>
<pdfrwt beam="1">  1       -1 0.75342342E-02 0.12534972E+03</pdfrwt>
<totfact> 0.61445891E+03</totfact>
</mgrwt>
</event>
<event>
 7    1  0.7800420E-006  0.3124572E+03  0.7546771E-02  0.1080649E+00
          2   -1    0    0  501    0  0.00000000000E+00  0.00000000000E+00  0.13300319580E+04  0.13300319580E+04  0.00000000000E+00 0. -1.
         -2   -1    0    0    0  501 -0.00000000000E+00 -0.00000000000E+00 -0.70613290449E+02  0.70613290449E+02  0.00000000000E+00 0.  1.
         23    2    1    2    0    0 -0.97129508687E+02 -0.26938854717E+03  0.65904663525E+03  0.72936408269E+03  0.12500066751E+03 0.  0.
          5    1    3    3  502    0 -0.12236915860E+03 -0.17346133659E+03  0.47304608163E+03  0.51851492901E+03  0.47000000000E+01 0. -1.
         -5    1    3    3    0  502  0.25239649912E+02 -0.95927210582E+02  0.18600055363E+03  0.21084915368E+03  0.47000000000E+01 0. -1.
        -11    1    1    2    0    0  0.37160552556E+02  0.14037061105E+03  0.39996020604E+03  0.42550320978E+03  0.00000000000E+00 0. -1.
         11    1    1    2    0    0  0.59968956131E+02  0.12901793611E+03  0.20041182621E+03  0.24577795594E+03  0.00000000000E+00 0.  1.
<mgrwt>
<rscale>  0 0.30936897E+03</rscale>
<asrwt>0</asrwt>
<pdfrwt beam="1">  1        2 0.20462028E+00 0.31245719E+03</pdfrwt>
<pdfrwt beam="2">  1       -2 0.10863584E-01 0.31245719E+03</pdfrwt>
<totfact> 0.98007235E+02</totfact>
</mgrwt>
</event>
<event>
 7    1  0.7800420E-006  0.1329351E+03  0.7546771E-02  0.1235826E+00
          3   -1    0    0  501    0  0.00000000000E+00  0.00000000000E+00  0.32913230954E+03  0.32913230954E+03  0.00000000000E+00 0. -1.
         -3   -1    0    0    0  501 -0.00000000000E+00 -0.00000000000E+00 -0.48717346527E+02  0.48717346527E+02  0.00000000000E+00 0.  1.
         23    2    1    2    0    0  0.22124452391E+02 -0.39459947059E+02  0.22537193776E+03  0.26165673946E+03  0.12500064064E+03 0.  0.
          5    1    3    3  502    0  0.41928968419E+02  0.29037537194E+02  0.14666307747E+03  0.15534917203E+03  0.47000000000E+01 0. -1.
         -5    1    3    3    0  502 -0.19804516028E+02 -0.68497484253E+02  0.78708860293E+02  0.10630756743E+03  0.47000000000E+01 0. -1.
        -11    1    1    2    0    0  0.18971044699E+02 -0.20018158927E+01 -0.15534120828E+02  0.24601152691E+02  0.00000000000E+00 0.  1.
         11    1    1    2    0    0 -0.41095497090E+02  0.41461762952E+02  0.70577146085E+02  0.91591763918E+02  0.00000000000E+00 0. -1.
<mgrwt>
<rscale>  0 0.12451697E+03</rscale>
<asrwt>0</asrwt>
<pdfrwt beam="1">  1        3 0.50635739E-01 0.13293509E+03</pdfrwt>
<pdfrwt beam="2">  1       -3 0.74949766E-02 0.13293509E+03</pdfrwt>
<totfact> 0.10627277E+03</totfact>
</mgrwt>
</event>
<event>
 7    1  0.7800420E-006  0.1479332E+03  0.7546771E-02  0.1211939E+00
          1   -1    0    0  501    0  0.00000000000E+00  0.00000000000E+00  0.14242748096E+04  0.14242748096E+04  0.00000000000E+00 0. -1.
         -1   -1    0    0    0  501 -0.00000000000E+00 -0.00000000000E+00 -0.34377320474E+02  0.34377320474E+02  0.00000000000E+00 0.  1.
         23    2    1    2    0    0 -0.44463936103E+02  0.67931240445E+02  0.12962867480E+04  0.13047005634E+04  0.12366297849E+03 0.  0.
          5    1    3    3  502    0 -0.31169250587E+02  0.46165908498E+02  0.12529520109E+04  0.12541984073E+04  0.47000000000E+01 0. -1.
         -5    1    3    3    0  502 -0.13294685516E+02  0.21765331946E+02  0.43334737121E+02  0.50502156182E+02  0.47000000000E+01 0.  1.
        -11    1    1    2    0    0  0.67896032258E+02 -0.36348958724E+02  0.82986578361E+02  0.11321612158E+03  0.00000000000E+00 0.  1.
         11    1    1    2    0    0 -0.23432096154E+02 -0.31582281721E+02  0.10624162800E+02  0.40735445058E+02  0.00000000000E+00 0. -1.
<mgrwt>
<rscale>  0 0.14103801E+03</rscale>
<asrwt>0</asrwt>
<pdfrwt beam="1">  1        1 0.21911916E+00 0.14793319E+03</pdfrwt>
<pdfrwt beam="2">  1       -1 0.52888196E-02 0.14793319E+03</pdfrwt>
<totfact> 0.13066514E+03</totfact>
</mgrwt>
</event>
<event>
 7    1  0.7800420E-006  0.1272030E+03  0.7546771E-02  0.1237191E+00
          1   -1    0    0  501    0  0.00000000000E+00  0.00000000000E+00  0.22836306748E+03  0.22836306748E+03  0.00000000000E+00 0. -1.
         -1   -1    0    0    0  501 -0.00000000000E+00 -0.00000000000E+00 -0.63706350943E+02  0.63706350943E+02  0.00000000000E+00 0.  1.
         23    2    1    2    0    0 -0.50989255007E+01  0.33998341543E+02  0.95822669772E+02  0.15925637573E+03  0.12246927329E+03 0.  0.
          5    1    3    3  502    0 -0.44140300947E+02  0.10640151247E+02  0.10327727799E+03  0.11291530071E+03  0.47000000000E+01 0. -1.
         -5    1    3    3    0  502  0.39041375447E+02  0.23358190296E+02 -0.74546082147E+01  0.46341075023E+02  0.47000000000E+01 0.  1.
        -11    1    1    2    0    0 -0.43052226444E+02 -0.46922643659E+02  0.36704968950E+02  0.73501587979E+02  0.00000000000E+00 0. -1.
         11    1    1    2    0    0  0.48151151945E+02  0.12924302116E+02  0.32129077818E+02  0.59311454714E+02  0.00000000000E+00 0.  1.
<mgrwt>
<rscale>  0 0.12365217E+03</rscale>
<asrwt>0</asrwt>
<pdfrwt beam="1">  1        1 0.35132779E-01 0.12720302E+03</pdfrwt>
<pdfrwt beam="2">  1       -1 0.98009772E-02 0.12720302E+03</pdfrwt>
<totfact> 0.73626198E+03</totfact>
</mgrwt>
</event>
<event>
 7    1  0.7800420E-006  0.1893451E+03  0.7546771E-02  0.1163603E+00
         -2   -1    0    0    0  501 -0.00000000000E+00  0.00000000000E+00  0.46067998523E+02  0.46067998523E+02  0.00000000000E+00 0.  1.
          2   -1    0    0  501    0  0.00000000000E+00 -0.00000000000E+00 -0.12352031665E+04  0.12352031665E+04  0.00000000000E+00 0. -1.
         23    2    1    2    0    0  0.99544270039E+02 -0.10155411750E+03 -0.10329179401E+04  0.10501290608E+04  0.12501709064E+03 0.  0.
          5    1    3    3  502    0  0.93691692819E+02 -0.18124554398E+02 -0.71521470063E+03  0.72156828559E+03  0.47000000000E+01 0. -1.
         -5    1    3    3    0  502  0.58525772203E+01 -0.83429563097E+02 -0.31770323948E+03  0.32856077526E+03  0.47000000000E+01 0. -1.
        -11    1    1    2    0    0 -0.11315201385E+03  0.75546027573E+02 -0.10403703563E+03  0.17127254685E+03  0.00000000000E+00 0.  1.
         11    1    1    2    0    0  0.13607743814E+02  0.26008089922E+02 -0.52180192234E+02  0.59869557329E+02  0.00000000000E+00 0. -1.
<mgrwt>
<rscale>  0 0.18440941E+03</rscale>
<asrwt>0</asrwt>
<pdfrwt beam="2">  1        2 0.19003121E+00 0.18934512E+03</pdfrwt>
<pdfrwt beam="1">  1       -2 0.70873863E-02 0.18934512E+03</pdfrwt>
<totfact> 0.21775924E+03</totfact>
</mgrwt>
</event>
<event>
 7    1  0.7800420E-006  0.1500183E+03  0.7546771E-02  0.1208607E+00
         -1   -1    0    0    0  501 -0.00000000000E+00  0.00000000000E+00  0.64397594116E+03  0.64397594116E+03  0.00000000000E+00 0.  1.
          1   -1    0    0  501    0  0.00000000000E+00 -0.00000000000E+00 -0.42086259145E+02  0.42086259145E+02  0.00000000000E+00 0. -1.
         23    2    1    2    0    0 -0.62740411980E+02 -0.54269940388E+02  0.13268539038E+03  0.20027705996E+03  0.12499560873E+03 0.  0.
          5    1    3    3  502    0 -0.67593046580E+02  0.82537048737E+01  0.19824234764E+02  0.71077660866E+02  0.47000000000E+01 0. -1.
         -5    1    3    3    0  502  0.48526346001E+01 -0.62523645261E+02  0.11286115562E+03  0.12919939910E+03  0.47000000000E+01 0. -1.
        -11    1    1    2    0    0 -0.64529572993E+01  0.54938228833E+02  0.24390801838E+03  0.25010192137E+03  0.00000000000E+00 0.  1.
         11    1    1    2    0    0  0.69193369280E+02 -0.66828844480E+00  0.22529627326E+03  0.23568321897E+03  0.00000000000E+00 0. -1.
<mgrwt>
<rscale>  0 0.14356839E+03</rscale>
<asrwt>0</asrwt>
<pdfrwt beam="2">  1        1 0.64748095E-02 0.15001829E+03</pdfrwt>
<pdfrwt beam="1">  1       -1 0.99073215E-01 0.15001829E+03</pdfrwt>
<totfact> 0.11778316E+03</totfact>
</mgrwt>
</event>
<event>
 7    1  0.7800420E-006  0.1861437E+03  0.7546771E-02  0.1167055E+00
          2   -1    0    0  501    0  0.00000000000E+00  0.00000000000E+00  0.46886715774E+03  0.46886715774E+03  0.00000000000E+00 0. -1.
         -2   -1    0    0    0  501 -0.00000000000E+00 -0.00000000000E+00 -0.66056234856E+02  0.66056234856E+02  0.00000000000E+00 0.  1.
         23    2    1    2    0    0  0.13347627159E+03 -0.34767714144E+02  0.22324346537E+03  0.29066670890E+03  0.12499912724E+03 0.  0.
          5    1    3    3  502    0  0.10535770760E+03 -0.77876343335E+02  0.18325176135E+03  0.22531815159E+03  0.47000000000E+01 0.  1.
         -5    1    3    3    0  502  0.28118563991E+02  0.43108629191E+02  0.39991704023E+02  0.65348557308E+02  0.47000000000E+01 0.  1.
        -11    1    1    2    0    0 -0.45577201905E+02 -0.24003758746E+01  0.12775893616E+03  0.13566646198E+03  0.00000000000E+00 0. -1.
         11    1    1    2    0    0 -0.87899069683E+02  0.37168090018E+02  0.51808521358E+02  0.10859022172E+03  0.00000000000E+00 0.  1.
<mgrwt>
<rscale>  0 0.18077507E+03</rscale>
<asrwt>0</asrwt>
<pdfrwt beam="1">  1        2 0.72133407E-01 0.18614374E+03</pdfrwt>
<pdfrwt beam="2">  1       -2 0.10162498E-01 0.18614374E+03</pdfrwt>
<totfact> 0.42438647E+03</totfact>
</mgrwt>
</event>
<event>
 7    1  0.7800420E-006  0.1533662E+03  0.7546771E-02  0.1205136E+00
          2   -1    0    0  501    0  0.00000000000E+00  0.00000000000E+00  0.15866398009E+04  0.15866398009E+04  0.00000000000E+00 0. -1.
         -2   -1    0    0    0  501 -0.00000000000E+00 -0.00000000000E+00 -0.12375127921E+02  0.12375127921E+02  0.00000000000E+00 0.  1.
         23    2    1    2    0    0  0.83501703028E+02 -0.30354019583E+02  0.86379550057E+03  0.87730487722E+03  0.12500911916E+03 0.  0.
          5    1    3    3  502    0  0.69521528216E+02  0.32313763188E+02  0.29338072957E+03  0.30326846961E+03  0.47000000000E+01 0.  1.
         -5    1    3    3    0  502  0.13980174812E+02 -0.62667782771E+02  0.57041477100E+03  0.57403640761E+03  0.47000000000E+01 0.  1.
        -11    1    1    2    0    0 -0.99374754693E+02  0.83161137381E+01  0.55905886251E+03  0.56788318461E+03  0.00000000000E+00 0. -1.
         11    1    1    2    0    0  0.15873051665E+02  0.22037905845E+02  0.15141030986E+03  0.15382686695E+03  0.00000000000E+00 0.  1.
<mgrwt>
<rscale>  0 0.14626718E+03</rscale>
<asrwt>0</asrwt>
<pdfrwt beam="1">  1        2 0.24409827E+00 0.15336617E+03</pdfrwt>
<pdfrwt beam="2">  1       -2 0.19038671E-02 0.15336617E+03</pdfrwt>
<totfact> 0.10004700E+04</totfact>
</mgrwt>
</event>
<event>
 7    1  0.7800420E-006  0.1195986E+03  0.7546771E-02  0.1255297E+00
         -1   -1    0    0    0  501 -0.00000000000E+00  0.00000000000E+00  0.63430672505E+02  0.63430672505E+02  0.00000000000E+00 0.  1.
          1   -1    0    0  501    0  0.00000000000E+00 -0.00000000000E+00 -0.18183470704E+03  0.18183470704E+03  0.00000000000E+00 0. -1.
         23    2    1    2    0    0  0.33485389498E+01  0.24798150830E+02 -0.60340710105E+02  0.13395833007E+03  0.11695157930E+03 0.  0.
          5    1    3    3  502    0  0.41243766408E+01  0.71913752275E+02 -0.34395254379E+02  0.79960751452E+02  0.47000000000E+01 0. -1.
         -5    1    3    3    0  502 -0.77583769105E+00 -0.47115601444E+02 -0.25945455726E+02  0.53997578616E+02  0.47000000000E+01 0.  1.
        -11    1    1    2    0    0 -0.29135851804E+02 -0.45972806567E+01 -0.70379533675E+02  0.76310625801E+02  0.00000000000E+00 0.  1.
         11    1    1    2    0    0  0.25787312854E+02 -0.20200870174E+02  0.12316209244E+02  0.34996423677E+02  0.00000000000E+00 0. -1.
<mgrwt>
<rscale>  0 0.11289713E+03</rscale>
<asrwt>0</asrwt>
<pdfrwt beam="2">  1        1 0.27974570E-01 0.11959863E+03</pdfrwt>
<pdfrwt beam="1">  1       -1 0.97585651E-02 0.11959863E+03</pdfrwt>
<totfact> 0.97811357E+03</totfact>
</mgrwt>
</event>
<event>
 7    1  0.7800420E-006  0.1553826E+03  0.7546771E-02  0.1203370E+00
          1   -1    0    0  501    0  0.00000000000E+00  0.00000000000E+00  0.24061196972E+03  0.24061196972E+03  0.00000000000E+00 0. -1.
         -1   -1    0    0    0  501 -0.00000000000E+00 -0.00000000000E+00 -0.19592560219E+03  0.19592560219E+03  0.00000000000E+00 0.  1.
         23    2    1    2    0    0  0.45242404539E+02 -0.80440992042E+02  0.18886632835E+03  0.24456951503E+03  0.12500451723E+03 0.  0.
          5    1    3    3  502    0 -0.54163325255E+01 -0.76905681535E+02  0.17565529569E+03  0.19188718929E+03  0.47000000000E+01 0.  1.
         -5    1    3    3    0  502  0.50658737065E+02 -0.35353105069E+01  0.13211032660E+02  0.52682325740E+02  0.47000000000E+01 0.  1.
        -11    1    1    2    0    0 -0.37505166586E+02  0.51480998724E+02 -0.14859334417E+03  0.16166914573E+03  0.00000000000E+00 0.  1.
         11    1    1    2    0    0 -0.77372379536E+01  0.28959993318E+02  0.44133833586E+01  0.30298911148E+02  0.00000000000E+00 0. -1.
<mgrwt>
<rscale>  0 0.14766688E+03</rscale>
<asrwt>0</asrwt>
<pdfrwt beam="1">  1        1 0.37017226E-01 0.15538262E+03</pdfrwt>
<pdfrwt beam="2">  1       -1 0.30142400E-01 0.15538262E+03</pdfrwt>
<totfact> 0.11649667E+03</totfact>
</mgrwt>
</event>
<event>
 7    1  0.7800420E-006  0.1386583E+03  0.7546771E-02  0.1226432E+00
          1   -1    0    0  501    0  0.00000000000E+00  0.00000000000E+00  0.18268488889E+04  0.18268488889E+04  0.00000000000E+00 0. -1.
         -1   -1    0    0    0  501 -0.00000000000E+00 -0.00000000000E+00 -0.11084956175E+02  0.11084956175E+02  0.00000000000E+00 0.  1.
         23    2    1    2    0    0 -0.33505795204E+02 -0.49808407203E+02  0.14370710550E+04  0.14437448974E+04  0.12499038245E+03 0.  0.
          5    1    3    3  502    0 -0.33075875556E+02  0.34951496707E+02  0.34383279528E+03  0.34721564161E+03  0.47000000000E+01 0. -1.
         -5    1    3    3    0  502 -0.42991964813E+00 -0.84759903910E+02  0.10932382597E+04  0.10965292557E+04  0.47000000000E+01 0. -1.
        -11    1    1    2    0    0 -0.22147446422E+02  0.17657564243E+02  0.37500330013E+02  0.46995464771E+02  0.00000000000E+00 0.  1.
         11    1    1    2    0    0  0.55653241626E+02  0.32150842960E+02  0.34119254773E+03  0.34719348299E+03  0.00000000000E+00 0. -1.
<mgrwt>
<rscale>  0 0.13069264E+03</rscale>
<asrwt>0</asrwt>
<pdfrwt beam="1">  1        1 0.28105344E+00 0.13865825E+03</pdfrwt>
<pdfrwt beam="2">  1       -1 0.17053793E-02 0.13865825E+03</pdfrwt>
<totfact> 0.37523549E+03</totfact>
</mgrwt>
</event>
<event>
 7    1  0.7800420E-006  0.1119477E+03  0.7546771E-02  0.1266578E+00
         -1   -1    0    0    0  501 -0.00000000000E+00  0.00000000000E+00  0.90829186417E+02  0.90829186417E+02  0.00000000000E+00 0.  1.
          1   -1    0    0  501    0  0.00000000000E+00 -0.00000000000E+00 -0.12653594483E+03  0.12653594483E+03  0.00000000000E+00 0. -1.
         23    2    1    2    0    0  0.10860709814E+02 -0.15326352127E+02 -0.51512210484E+02  0.12323069136E+03  0.11036051548E+03 0.  0.
          5    1    3    3  502    0  0.49715180446E+02 -0.41264046143E+02 -0.33623800713E+02  0.72986098986E+02  0.47000000000E+01 0. -1.
         -5    1    3    3    0  502 -0.38854470632E+02  0.25937694016E+02 -0.17888409771E+02  0.50244592377E+02  0.47000000000E+01 0.  1.
        -11    1    1    2    0    0  0.12174199804E+02  0.21148367125E+02  0.48162261829E+02  0.53991370027E+02  0.00000000000E+00 0.  1.
         11    1    1    2    0    0 -0.23034909618E+02 -0.58220149975E+01 -0.32356809757E+02  0.40143069855E+02  0.00000000000E+00 0. -1.
<mgrwt>
<rscale>  0 0.10681844E+03</rscale>
<asrwt>0</asrwt>
<pdfrwt beam="2">  1        1 0.19467068E-01 0.11194774E+03</pdfrwt>
<pdfrwt beam="1">  1       -1 0.13973721E-01 0.11194774E+03</pdfrwt>
<totfact> 0.88364218E+03</totfact>
</mgrwt>
</event>
<event>
 7    1  0.7800420E-006  0.1493469E+03  0.7546771E-02  0.1211517E+00
          4   -1    0    0  501    0  0.00000000000E+00  0.00000000000E+00  0.43349645779E+03  0.43349645779E+03  0.00000000000E+00 0. -1.
         -4   -1    0    0    0  501 -0.00000000000E+00 -0.00000000000E+00 -0.41888245558E+02  0.41888245558E+02  0.00000000000E+00 0.  1.
         23    2    1    2    0    0 -0.76010288150E+02 -0.30033518082E+02  0.22844125514E+03  0.27292837988E+03  0.12499966952E+03 0.  0.
          5    1    3    3  502    0 -0.15498282767E+02  0.28930999639E+02  0.44087931136E+01  0.33447376064E+02  0.47000000000E+01 0. -1.
         -5    1    3    3    0  502 -0.60512005384E+02 -0.58964517721E+02  0.22403246203E+03  0.23948100382E+03  0.47000000000E+01 0. -1.
        -11    1    1    2    0    0  0.42476243631E+02 -0.11748115686E+02  0.13482872036E+03  0.14184862822E+03  0.00000000000E+00 0. -1.
         11    1    1    2    0    0  0.33534044519E+02  0.41781633768E+02  0.28338236732E+02  0.60607695247E+02  0.00000000000E+00 0.  1.
<mgrwt>
<rscale>  0 0.14135486E+03</rscale>
<asrwt>0</asrwt>
<pdfrwt beam="1">  1        4 0.66691760E-01 0.14934689E+03</pdfrwt>
<pdfrwt beam="2">  1       -4 0.64443458E-02 0.14934689E+03</pdfrwt>
<totfact> 0.56507133E+02</totfact>
</mgrwt>
</event>
<event>
 7    1  0.7800420E-006  0.1588255E+03  0.7546771E-02  0.1197757E+00
          2   -1    0    0  501    0  0.00000000000E+00  0.00000000000E+00  0.60632657260E+03  0.60632657260E+03  0.00000000000E+00 0. -1.
         -2   -1    0    0    0  501 -0.00000000000E+00 -0.00000000000E+00 -0.35898646204E+02  0.35898646204E+02  0.00000000000E+00 0.  1.
         23    2    1    2    0    0 -0.97265909604E+02 -0.11872699290E+02  0.27003924210E+03  0.31328377153E+03  0.12499564421E+03 0.  0.
          5    1    3    3  502    0 -0.26413003448E+02 -0.34317345026E+02  0.21829973968E+03  0.22260321935E+03  0.47000000000E+01 0. -1.
         -5    1    3    3    0  502 -0.70852906155E+02  0.22444645737E+02  0.51739502419E+02  0.90680552179E+02  0.47000000000E+01 0. -1.
        -11    1    1    2    0    0  0.36723100278E+02  0.24715167930E+01  0.19904484073E+02  0.41843553572E+02  0.00000000000E+00 0.  1.
         11    1    1    2    0    0  0.60542809325E+02  0.94011824966E+01  0.28048420022E+03  0.28709789370E+03  0.00000000000E+00 0. -1.
<mgrwt>
<rscale>  0 0.15223200E+03</rscale>
<asrwt>0</asrwt>
<pdfrwt beam="1">  1        2 0.93281003E-01 0.15882547E+03</pdfrwt>
<pdfrwt beam="2">  1       -2 0.55228691E-02 0.15882547E+03</pdfrwt>
<totfact> 0.81095170E+03</totfact>
</mgrwt>
</event>
<event>
 7    1  0.7800420E-006  0.1211944E+03  0.7546771E-02  0.1251834E+00
          1   -1    0    0  501    0  0.00000000000E+00  0.00000000000E+00  0.10808513785E+03  0.10808513785E+03  0.00000000000E+00 0. -1.
         -1   -1    0    0    0  501 -0.00000000000E+00 -0.00000000000E+00 -0.11286295925E+03  0.11286295925E+03  0.00000000000E+00 0.  1.
         23    2    1    2    0    0  0.26014422283E+02 -0.14692912416E+02  0.11897131590E+02  0.12177697668E+03  0.11745406961E+03 0.  0.
          5    1    3    3  502    0  0.30999379557E+02 -0.64072618612E+02  0.62720300666E+01  0.71607893069E+02  0.47000000000E+01 0. -1.
         -5    1    3    3    0  502 -0.49849572740E+01  0.49379706196E+02  0.56251015232E+01  0.50169083609E+02  0.47000000000E+01 0.  1.
        -11    1    1    2    0    0 -0.23366279951E+02 -0.24153723011E+02 -0.41189569446E+02  0.53159815699E+02  0.00000000000E+00 0.  1.
         11    1    1    2    0    0 -0.26481423320E+01  0.38846635427E+02  0.24514616458E+02  0.46011304719E+02  0.00000000000E+00 0. -1.
<mgrwt>
<rscale>  0 0.11485539E+03</rscale>
<asrwt>0</asrwt>
<pdfrwt beam="1">  1        1 0.16628483E-01 0.12119443E+03</pdfrwt>
<pdfrwt beam="2">  1       -1 0.17363532E-01 0.12119443E+03</pdfrwt>
<totfact> 0.77364683E+03</totfact>
</mgrwt>
</event>
<event>
 7    1  0.7800420E-006  0.1523814E+03  0.7546771E-02  0.1206388E+00
          1   -1    0    0  501    0  0.00000000000E+00  0.00000000000E+00  0.91850358937E+02  0.91850358937E+02  0.00000000000E+00 0. -1.
         -1   -1    0    0    0  501 -0.00000000000E+00 -0.00000000000E+00 -0.24777688175E+03  0.24777688175E+03  0.00000000000E+00 0.  1.
         23    2    1    2    0    0 -0.86677765691E+02 -0.89503876154E+01 -0.18933205406E+02  0.15355308456E+03  0.12500775579E+03 0.  0.
          5    1    3    3  502    0 -0.10754011452E+02 -0.50079016380E+02 -0.39276026736E+02  0.64716712834E+02  0.47000000000E+01 0.  1.
         -5    1    3    3    0  502 -0.75923754239E+02  0.41128628764E+02  0.20342821330E+02  0.88836371726E+02  0.47000000000E+01 0.  1.
        -11    1    1    2    0    0 -0.76201146839E+01 -0.13696750429E+02  0.28136436880E+01  0.15924311944E+02  0.00000000000E+00 0. -1.
         11    1    1    2    0    0  0.94297880374E+02  0.22647138044E+02 -0.13980696110E+03  0.17014984419E+03  0.00000000000E+00 0.  1.
<mgrwt>
<rscale>  0 0.14528627E+03</rscale>
<asrwt>0</asrwt>
<pdfrwt beam="1">  1        1 0.14130824E-01 0.15238138E+03</pdfrwt>
<pdfrwt beam="2">  1       -1 0.38119520E-01 0.15238138E+03</pdfrwt>
<totfact> 0.26398079E+03</totfact>
</mgrwt>
</event>
<event>
 7    1  0.7800420E-006  0.1385062E+03  0.7546771E-02  0.1227030E+00
          2   -1    0    0  501    0  0.00000000000E+00  0.00000000000E+00  0.34800166844E+03  0.34800166844E+03  0.00000000000E+00 0.  1.
         -2   -1    0    0    0  501 -0.00000000000E+00 -0.00000000000E+00 -0.55490058331E+02  0.55490058331E+02  0.00000000000E+00 0. -1.
         23    2    1    2    0    0 -0.43334359871E+02  0.41006911406E+02  0.25232891832E+03  0.28784344705E+03  0.12499813383E+03 0.  0.
          5    1    3    3  502    0 -0.30272616322E+02 -0.25184928687E+02  0.19556999808E+03  0.19955056021E+03  0.47000000000E+01 0.  1.
         -5    1    3    3    0  502 -0.13061743550E+02  0.66191840093E+02  0.56758920239E+02  0.88292886838E+02  0.47000000000E+01 0.  1.
        -11    1    1    2    0    0  0.42732432094E+02 -0.18300140441E+02 -0.20535843477E+02  0.50820042898E+02  0.00000000000E+00 0. -1.
         11    1    1    2    0    0  0.60192777681E+00 -0.22706770965E+02  0.60718535268E+02  0.64828236824E+02  0.00000000000E+00 0.  1.
<mgrwt>
<rscale>  0 0.13028735E+03</rscale>
<asrwt>0</asrwt>
<pdfrwt beam="1">  1        2 0.53538717E-01 0.13850620E+03</pdfrwt>
<pdfrwt beam="2">  1       -2 0.85369323E-02 0.13850620E+03</pdfrwt>
<totfact> 0.75710972E+03</totfact>
</mgrwt>
</event>
<event>
 6    1  0.7800420E-006  0.2081823E+03  0.7546771E-02  0.1148699E+00
          1   -1    0    0  501    0  0.00000000000E+00  0.00000000000E+00  0.23738478203E+03  0.23738478203E+03  0.00000000000E+00 0. -1.
         -1   -1    0    0    0  501 -0.00000000000E+00 -0.00000000000E+00 -0.24329659304E+03  0.24329659304E+03  0.00000000000E+00 0.  1.
          5    1    1    2  502    0  0.20843427482E+00  0.16120042324E+03  0.98092454933E+02  0.18875868089E+03  0.47000000000E+01 0. -1.
         -5    1    1    2    0  502  0.44584245086E+02 -0.11361062194E+02  0.39119936408E+02  0.60574648729E+02  0.47000000000E+01 0.  1.
        -11    1    1    2    0    0  0.64132278716E+00 -0.11294492097E+03 -0.12837947172E+03  0.17099197416E+03  0.00000000000E+00 0.  1.
         11    1    1    2    0    0 -0.45434002148E+02 -0.36894440079E+02 -0.14744730637E+02  0.60356071290E+02  0.00000000000E+00 0. -1.
<mgrwt>
<rscale>  0 0.20123733E+03</rscale>
<asrwt>0</asrwt>
<pdfrwt beam="1">  1        1 0.36520736E-01 0.20818230E+03</pdfrwt>
<pdfrwt beam="2">  1       -1 0.37430245E-01 0.20818230E+03</pdfrwt>
<totfact> 0.81988787E+02</totfact>
</mgrwt>
</event>
<event>
 7    1  0.8753524E-006  0.1642033E+03  0.7546771E-02  0.1191722E+00
          1   -1    0    0  501    0  0.00000000000E+00  0.00000000000E+00  0.56908929505E+03  0.56908929505E+03  0.00000000000E+00 0. -1.
         -1   -1    0    0    0  501 -0.00000000000E+00 -0.00000000000E+00 -0.42087111439E+02  0.42087111439E+02  0.00000000000E+00 0.  1.
         23    2    1    2    0    0  0.94079998513E+02  0.49866823313E+02  0.34870606472E+03  0.38543304703E+03  0.12499987193E+03 0.  0.
          5    1    3    3  502    0  0.46177251126E+02 -0.12622964932E+02  0.26910523273E+03  0.27337043374E+03  0.47000000000E+01 0.  1.
         -5    1    3    3    0  502  0.47902747388E+02  0.62489788244E+02  0.79600831997E+02  0.11206261329E+03  0.47000000000E+01 0.  1.
        -11    1    1    2    0    0 -0.49862299089E+02 -0.24968459718E+02  0.19563605848E+02  0.59096594867E+02  0.00000000000E+00 0.  1.
         11    1    1    2    0    0 -0.44217699424E+02 -0.24898363595E+02  0.15873251304E+03  0.16664676459E+03  0.00000000000E+00 0. -1.
<mgrwt>
<rscale>  0 0.15734962E+03</rscale>
<asrwt>0</asrwt>
<pdfrwt beam="1">  1        1 0.87552193E-01 0.16420327E+03</pdfrwt>
<pdfrwt beam="2">  1       -1 0.64749407E-02 0.16420327E+03</pdfrwt>
<totfact> 0.44012465E+03</totfact>
</mgrwt>
</event>
<event>
 7    1  0.7800420E-006  0.1266327E+03  0.7546771E-02  0.1246204E+00
          2   -1    0    0  501    0  0.00000000000E+00  0.00000000000E+00  0.70844921944E+03  0.70844921944E+03  0.00000000000E+00 0. -1.
         -2   -1    0    0    0  501 -0.00000000000E+00 -0.00000000000E+00 -0.17485779453E+02  0.17485779453E+02  0.00000000000E+00 0.  1.
         23    2    1    2    0    0  0.83706955373E+01 -0.18432388048E+02  0.40084813702E+03  0.42037490090E+03  0.12500402748E+03 0.  0.
          5    1    3    3  502    0 -0.67919417048E+01 -0.69594281877E+02  0.27090389719E+03  0.27982227584E+03  0.47000000000E+01 0.  1.
         -5    1    3    3    0  502  0.15162637242E+02  0.51161893829E+02  0.12994423983E+03  0.14055262506E+03  0.47000000000E+01 0.  1.
        -11    1    1    2    0    0 -0.31354420791E+01 -0.38550933078E+02  0.11431829411E+03  0.12068420694E+03  0.00000000000E+00 0.  1.
         11    1    1    2    0    0 -0.52352534583E+01  0.56983321126E+02  0.17579700886E+03  0.18487589105E+03  0.00000000000E+00 0. -1.
<mgrwt>
<rscale>  0 0.11813627E+03</rscale>
<asrwt>0</asrwt>
<pdfrwt beam="1">  1        2 0.10899217E+00 0.12663265E+03</pdfrwt>
<pdfrwt beam="2">  1       -2 0.26901205E-02 0.12663265E+03</pdfrwt>
<totfact> 0.19391790E+04</totfact>
</mgrwt>
</event>
<event>
 7    1  0.7800420E-006  0.3069007E+03  0.7546771E-02  0.1083217E+00
         -2   -1    0    0    0  501 -0.00000000000E+00  0.00000000000E+00  0.30760703019E+03  0.30760703019E+03  0.00000000000E+00 0.  1.
          2   -1    0    0  501    0  0.00000000000E+00 -0.00000000000E+00 -0.30267073945E+03  0.30267073945E+03  0.00000000000E+00 0. -1.
         23    2    1    2    0    0  0.27763106280E+03 -0.38515188492E+02 -0.45388987644E+02  0.31023892214E+03  0.12500240732E+03 0.  0.
          5    1    3    3  502    0  0.20568702372E+03  0.19711208242E+02  0.81912213527E+00  0.20668440778E+03  0.47000000000E+01 0. -1.
         -5    1    3    3    0  502  0.71944039075E+02 -0.58226396734E+02 -0.46208109779E+02  0.10355451436E+03  0.47000000000E+01 0. -1.
        -11    1    1    2    0    0 -0.17241754286E+03 -0.20774009114E+02  0.43753452603E+02  0.17909141005E+03  0.00000000000E+00 0.  1.
         11    1    1    2    0    0 -0.10521351994E+03  0.59289197606E+02  0.65718257878E+01  0.12094743745E+03  0.00000000000E+00 0. -1.
<mgrwt>
<rscale>  0 0.30408403E+03</rscale>
<asrwt>0</asrwt>
<pdfrwt beam="2">  1        2 0.46564729E-01 0.30690068E+03</pdfrwt>
<pdfrwt beam="1">  1       -2 0.47324159E-01 0.30690068E+03</pdfrwt>
<totfact> 0.46623878E+02</totfact>
</mgrwt>
</event>
<event>
 6    1  0.7800420E-006  0.1361220E+03  0.7546771E-02  0.1289807E+00
         -2   -1    0    0    0  501 -0.00000000000E+00  0.00000000000E+00  0.44914918498E+01  0.44914918498E+01  0.00000000000E+00 0.  1.
          2   -1    0    0  501    0  0.00000000000E+00 -0.00000000000E+00 -0.18965635210E+04  0.18965635210E+04  0.00000000000E+00 0. -1.
          5    1    1    2  502    0 -0.72218951300E+02  0.30826534697E+02 -0.12028461963E+04  0.12054156604E+04  0.47000000000E+01 0. -1.
         -5    1    1    2    0  502  0.52059177808E+02 -0.15389880010E+02 -0.54197779392E+03  0.54471003800E+03  0.47000000000E+01 0.  1.
        -11    1    1    2    0    0  0.85476650181E+01 -0.18783338633E+02 -0.80964272082E+02  0.83552915816E+02  0.00000000000E+00 0.  1.
         11    1    1    2    0    0  0.11612108474E+02  0.33466839467E+01 -0.66283766784E+02  0.67376398655E+02  0.00000000000E+00 0. -1.
<mgrwt>
<rscale>  0 0.95610459E+02</rscale>
<asrwt>0</asrwt>
<pdfrwt beam="2">  1        2 0.29177908E+00 0.13612202E+03</pdfrwt>
<pdfrwt beam="1">  1       -2 0.69099856E-03 0.13612202E+03</pdfrwt>
<totfact> 0.29581325E+04</totfact>
</mgrwt>
</event>
<event>
 7    1  0.7800420E-006  0.3271942E+03  0.7546771E-02  0.1073700E+00
          2   -1    0    0  501    0  0.00000000000E+00  0.00000000000E+00  0.20991190163E+03  0.20991190163E+03  0.00000000000E+00 0. -1.
         -2   -1    0    0    0  501 -0.00000000000E+00 -0.00000000000E+00 -0.49624584946E+03  0.49624584946E+03  0.00000000000E+00 0.  1.
         23    2    1    2    0    0 -0.27431837793E+03 -0.12720000807E+03 -0.11376336228E+03  0.34640746749E+03  0.12500246562E+03 0.  0.
          5    1    3    3  502    0 -0.13108640951E+03 -0.12477015564E+02 -0.25756219012E+01  0.13178788451E+03  0.47000000000E+01 0. -1.
         -5    1    3    3    0  502 -0.14323196842E+03 -0.11472299250E+03 -0.11118774038E+03  0.21461958298E+03  0.47000000000E+01 0. -1.
        -11    1    1    2    0    0  0.77144675492E+02  0.18189050237E+02 -0.58592152019E+01  0.79476241154E+02  0.00000000000E+00 0.  1.
         11    1    1    2    0    0  0.19717370244E+03  0.10901095783E+03 -0.16671137036E+03  0.28027404245E+03  0.00000000000E+00 0. -1.
<mgrwt>
<rscale>  0 0.32427107E+03</rscale>
<asrwt>0</asrwt>
<pdfrwt beam="1">  1        2 0.32294138E-01 0.32719418E+03</pdfrwt>
<pdfrwt beam="2">  1       -2 0.76345516E-01 0.32719418E+03</pdfrwt>
<totfact> 0.25619878E+02</totfact>
</mgrwt>
</event>
<event>
 7    1  0.7800420E-006  0.1411403E+03  0.7546771E-02  0.1222949E+00
         -2   -1    0    0    0  501 -0.00000000000E+00  0.00000000000E+00  0.14344565641E+02  0.14344565641E+02  0.00000000000E+00 0.  1.
          2   -1    0    0  501    0  0.00000000000E+00 -0.00000000000E+00 -0.15493806894E+04  0.15493806894E+04  0.00000000000E+00 0. -1.
         23    2    1    2    0    0 -0.42170897606E+02  0.50254580330E+02 -0.12448990752E+04  0.12528744129E+04  0.12496671406E+03 0.  0.
          5    1    3    3  502    0  0.41420041790E+02  0.15184945666E+02 -0.25578684688E+03  0.25960586178E+03  0.47000000000E+01 0. -1.
         -5    1    3    3    0  502 -0.83590939396E+02  0.35069634664E+02 -0.98911222829E+03  0.99326855108E+03  0.47000000000E+01 0. -1.
        -11    1    1    2    0    0 -0.13744519578E+02 -0.44863569502E+02 -0.74730413165E+02  0.88239936189E+02  0.00000000000E+00 0.  1.
         11    1    1    2    0    0  0.55915417184E+02 -0.53910108275E+01 -0.21540663545E+03  0.22261090601E+03  0.00000000000E+00 0. -1.
<mgrwt>
<rscale>  0 0.13308496E+03</rscale>
<asrwt>0</asrwt>
<pdfrwt beam="2">  1        2 0.23836624E+00 0.14114031E+03</pdfrwt>
<pdfrwt beam="1">  1       -2 0.22068564E-02 0.14114031E+03</pdfrwt>
<totfact> 0.84106811E+03</totfact>
</mgrwt>
</event>
<event>
 7    1  0.7800420E-006  0.2097416E+03  0.7546771E-02  0.1145490E+00
         -2   -1    0    0    0  501 -0.00000000000E+00  0.00000000000E+00  0.15737230618E+03  0.15737230618E+03  0.00000000000E+00 0.  1.
          2   -1    0    0  501    0  0.00000000000E+00 -0.00000000000E+00 -0.38343110870E+03  0.38343110870E+03  0.00000000000E+00 0. -1.
         23    2    1    2    0    0 -0.13157658577E+03  0.10512975744E+03 -0.27204677780E+03  0.34351274882E+03  0.12500758166E+03 0.  0.
          5    1    3    3  502    0 -0.58029334732E+01  0.22073761483E+02  0.86650986869E+01  0.24861595246E+02  0.47000000000E+01 0.  1.
         -5    1    3    3    0  502 -0.12577365230E+03  0.83055995958E+02 -0.28071187648E+03  0.31865115358E+03  0.47000000000E+01 0.  1.
        -11    1    1    2    0    0  0.10339012529E+03 -0.26472494695E+02  0.38271950605E+02  0.11338012694E+03  0.00000000000E+00 0.  1.
         11    1    1    2    0    0  0.28186460482E+02 -0.78657262746E+02  0.77160246765E+01  0.83910539111E+02  0.00000000000E+00 0. -1.
<mgrwt>
<rscale>  0 0.20511968E+03</rscale>
<asrwt>0</asrwt>
<pdfrwt beam="2">  1        2 0.58989400E-01 0.20974165E+03</pdfrwt>
<pdfrwt beam="1">  1       -2 0.24211124E-01 0.20974165E+03</pdfrwt>
<totfact> 0.12541381E+03</totfact>
</mgrwt>
</event>
<event>
 7    1  0.7800420E-006  0.1966478E+03  0.7546771E-02  0.1157487E+00
         -1   -1    0    0    0  501 -0.00000000000E+00  0.00000000000E+00  0.32101167207E+02  0.32101167207E+02  0.00000000000E+00 0.  1.
          1   -1    0    0  501    0  0.00000000000E+00 -0.00000000000E+00 -0.13091513249E+04  0.13091513249E+04  0.00000000000E+00 0. -1.
         23    2    1    2    0    0  0.14631455577E+03 -0.40007528237E+02 -0.95035844707E+03  0.97049036106E+03  0.12514715917E+03 0.  0.
          5    1    3    3  502    0  0.46235613878E+02 -0.52278320074E+02 -0.17300110420E+03  0.18660714562E+03  0.47000000000E+01 0.  1.
         -5    1    3    3    0  502  0.10007894190E+03  0.12270791838E+02 -0.77735734286E+03  0.78388321544E+03  0.47000000000E+01 0.  1.
        -11    1    1    2    0    0 -0.10537969341E+03 -0.75183627474E+00 -0.13931426034E+03  0.17468230641E+03  0.00000000000E+00 0.  1.
         11    1    1    2    0    0 -0.40934862368E+02  0.40759364511E+02 -0.18737745030E+03  0.19607982465E+03  0.00000000000E+00 0. -1.
<mgrwt>
<rscale>  0 0.19108416E+03</rscale>
<asrwt>0</asrwt>
<pdfrwt beam="2">  1        1 0.20140790E+00 0.19664781E+03</pdfrwt>
<pdfrwt beam="1">  1       -1 0.49386410E-02 0.19664781E+03</pdfrwt>
<totfact> 0.17254613E+03</totfact>
</mgrwt>
</event>
<event>
 7    1  0.7800420E-006  0.1357207E+03  0.7546771E-02  0.1231068E+00
          2   -1    0    0  501    0  0.00000000000E+00  0.00000000000E+00  0.68693268072E+03  0.68693268072E+03  0.00000000000E+00 0. -1.
         -2   -1    0    0    0  501 -0.00000000000E+00 -0.00000000000E+00 -0.30714487753E+02  0.30714487753E+02  0.00000000000E+00 0.  1.
         23    2    1    2    0    0 -0.49554438098E+01  0.52648523305E+02  0.55396908428E+03  0.57035238351E+03  0.12499468633E+03 0.  0.
          5    1    3    3  502    0  0.18675297695E+02 -0.37002173260E+02  0.13887254822E+03  0.14500207660E+03  0.47000000000E+01 0.  1.
         -5    1    3    3    0  502 -0.23630741505E+02  0.89650696565E+02  0.41509653606E+03  0.42535030691E+03  0.47000000000E+01 0.  1.
        -11    1    1    2    0    0 -0.34276313717E+02 -0.16993686833E+02  0.82109675235E+02  0.90585042040E+02  0.00000000000E+00 0. -1.
         11    1    1    2    0    0  0.39231757527E+02 -0.35654836471E+02  0.20139433451E+02  0.56709742921E+02  0.00000000000E+00 0.  1.
<mgrwt>
<rscale>  0 0.12759524E+03</rscale>
<asrwt>0</asrwt>
<pdfrwt beam="1">  1        2 0.10568194E+00 0.13572065E+03</pdfrwt>
<pdfrwt beam="2">  1       -2 0.47253063E-02 0.13572065E+03</pdfrwt>
<totfact> 0.87889284E+03</totfact>
</mgrwt>
</event>
<event>
 7    1  0.7800420E-006  0.2976314E+03  0.7546771E-02  0.1088176E+00
          2   -1    0    0  501    0  0.00000000000E+00  0.00000000000E+00  0.16488141658E+04  0.16488141658E+04  0.00000000000E+00 0. -1.
         -2   -1    0    0    0  501 -0.00000000000E+00 -0.00000000000E+00 -0.16218661830E+03  0.16218661830E+03  0.00000000000E+00 0.  1.
         23    2    1    2    0    0 -0.39746344781E+02 -0.26716328374E+03  0.14973606756E+04  0.15266543268E+04  0.12501379302E+03 0.  0.
          5    1    3    3  502    0 -0.14510538718E+02 -0.51273570009E+02  0.63725977217E+03  0.63950108830E+03  0.47000000000E+01 0.  1.
         -5    1    3    3    0  502 -0.25235806063E+02 -0.21588971373E+03  0.86010090344E+03  0.88715323845E+03  0.47000000000E+01 0.  1.
        -11    1    1    2    0    0  0.65743289295E+02  0.15948065381E+03  0.43071646894E+01  0.17255379073E+03  0.00000000000E+00 0. -1.
         11    1    1    2    0    0 -0.25996944514E+02  0.10768262992E+03 -0.15040292748E+02  0.11179266665E+03  0.00000000000E+00 0.  1.
<mgrwt>
<rscale>  0 0.29420063E+03</rscale>
<asrwt>0</asrwt>
<pdfrwt beam="1">  1        2 0.25366371E+00 0.29763138E+03</pdfrwt>
<pdfrwt beam="2">  1       -2 0.24951789E-01 0.29763138E+03</pdfrwt>
<totfact> 0.16267497E+02</totfact>
</mgrwt>
</event>
<event>
 7    1  0.7800420E-006  0.1250041E+03  0.7546771E-02  0.1250740E+00
          2   -1    0    0  501    0  0.00000000000E+00  0.00000000000E+00  0.18021045166E+02  0.18021045166E+02  0.00000000000E+00 0. -1.
         -2   -1    0    0    0  501 -0.00000000000E+00 -0.00000000000E+00 -0.65056011853E+03  0.65056011853E+03  0.00000000000E+00 0.  1.
         23    2    1    2    0    0  0.14006100070E+01  0.50908154003E-01 -0.38802611372E+03  0.40766441825E+03  0.12499619468E+03 0.  0.
          5    1    3    3  502    0 -0.15953955212E+02  0.58370391409E+02 -0.23990997228E+03  0.24746821226E+03  0.47000000000E+01 0. -1.
         -5    1    3    3    0  502  0.17354565219E+02 -0.58319483255E+02 -0.14811614144E+03  0.16019620599E+03  0.47000000000E+01 0. -1.
        -11    1    1    2    0    0  0.34471132574E+02 -0.23059152702E+02 -0.70798934760E+02  0.82051646342E+02  0.00000000000E+00 0. -1.
         11    1    1    2    0    0 -0.35871742581E+02  0.23008244548E+02 -0.17371402488E+03  0.17886509910E+03  0.00000000000E+00 0.  1.
<mgrwt>
<rscale>  0 0.11548316E+03</rscale>
<asrwt>0</asrwt>
<pdfrwt beam="1">  1        2 0.27724691E-02 0.12500405E+03</pdfrwt>
<pdfrwt beam="2">  1       -2 0.10008615E+00 0.12500405E+03</pdfrwt>
<totfact> 0.28303871E+03</totfact>
</mgrwt>
</event>
<event>
 7    1  0.7800420E-006  0.1797373E+03  0.7546771E-02  0.1173408E+00
         -1   -1    0    0    0  501 -0.00000000000E+00  0.00000000000E+00  0.37435254778E+02  0.37435254778E+02  0.00000000000E+00 0.  1.
          1   -1    0    0  501    0  0.00000000000E+00 -0.00000000000E+00 -0.79518366965E+03  0.79518366965E+03  0.00000000000E+00 0. -1.
         23    2    1    2    0    0 -0.12477400330E+03 -0.33346399880E+02 -0.48004111091E+03  0.51258654178E+03  0.12499984146E+03 0.  0.
          5    1    3    3  502    0 -0.13717910797E+03 -0.15958717308E+02 -0.46723982876E+03  0.48724525232E+03  0.47000000000E+01 0. -1.
         -5    1    3    3    0  502  0.12405104670E+02 -0.17387682571E+02 -0.12801282145E+02  0.25341289462E+02  0.47000000000E+01 0. -1.
        -11    1    1    2    0    0  0.17134359170E+02 -0.24200842101E+02 -0.22783491035E+02  0.37394578301E+02  0.00000000000E+00 0.  1.
         11    1    1    2    0    0  0.10763964413E+03  0.57547241981E+02 -0.25492381293E+03  0.28263780435E+03  0.00000000000E+00 0. -1.
<mgrwt>
<rscale>  0 0.17432809E+03</rscale>
<asrwt>0</asrwt>
<pdfrwt beam="2">  1        1 0.12233595E+00 0.17973729E+03</pdfrwt>
<pdfrwt beam="1">  1       -1 0.57592698E-02 0.17973729E+03</pdfrwt>
<totfact> 0.32659775E+03</totfact>
</mgrwt>
</event>
<event>
 7    1  0.7800420E-006  0.1352548E+03  0.7546771E-02  0.1231708E+00
          2   -1    0    0  501    0  0.00000000000E+00  0.00000000000E+00  0.63876231741E+02  0.63876231741E+02  0.00000000000E+00 0. -1.
         -2   -1    0    0    0  501 -0.00000000000E+00 -0.00000000000E+00 -0.23429765520E+03  0.23429765520E+03  0.00000000000E+00 0.  1.
         23    2    1    2    0    0 -0.10780881502E+02 -0.50508854749E+02 -0.12097634357E+03  0.18146388878E+03  0.12500598151E+03 0.  0.
          5    1    3    3  502    0 -0.36191013673E+02 -0.67747651439E+02 -0.12824556306E+03  0.14956118544E+03  0.47000000000E+01 0.  1.
         -5    1    3    3    0  502  0.25410132171E+02  0.17238796690E+02  0.72692194933E+01  0.31902703339E+02  0.47000000000E+01 0.  1.
        -11    1    1    2    0    0  0.17619601976E+02  0.76616830151E+02 -0.34428851888E+02  0.85825024780E+02  0.00000000000E+00 0. -1.
         11    1    1    2    0    0 -0.68387204734E+01 -0.26107975402E+02 -0.15016228009E+02  0.30884973384E+02  0.00000000000E+00 0.  1.
<mgrwt>
<rscale>  0 0.12717518E+03</rscale>
<asrwt>0</asrwt>
<pdfrwt beam="1">  1        2 0.98271129E-02 0.13525482E+03</pdfrwt>
<pdfrwt beam="2">  1       -2 0.36045792E-01 0.13525482E+03</pdfrwt>
<totfact> 0.45330082E+03</totfact>
</mgrwt>
</event>
<event>
 7    1  0.7800420E-006  0.1375656E+03  0.7546771E-02  0.1227742E+00
         -2   -1    0    0    0  501 -0.00000000000E+00  0.00000000000E+00  0.12477451291E+02  0.12477451291E+02  0.00000000000E+00 0.  1.
          2   -1    0    0  501    0  0.00000000000E+00 -0.00000000000E+00 -0.12913259907E+04  0.12913259907E+04  0.00000000000E+00 0. -1.
         23    2    1    2    0    0 -0.57545331724E+02  0.36976345490E+01 -0.86280914041E+03  0.87370698566E+03  0.12489654243E+03 0.  0.
          5    1    3    3  502    0  0.23012588969E+00 -0.36993862816E+02 -0.86788908341E+02  0.94461650711E+02  0.47000000000E+01 0.  1.
         -5    1    3    3    0  502 -0.57775457613E+02  0.40691497365E+02 -0.77602023207E+03  0.77924533495E+03  0.47000000000E+01 0.  1.
        -11    1    1    2    0    0 -0.14275552002E+02 -0.21416585634E+02 -0.45775918309E+02  0.52515675966E+02  0.00000000000E+00 0. -1.
         11    1    1    2    0    0  0.71820883725E+02  0.17718951085E+02 -0.37026348065E+03  0.37758078032E+03  0.00000000000E+00 0.  1.
<mgrwt>
<rscale>  0 0.12980730E+03</rscale>
<asrwt>0</asrwt>
<pdfrwt beam="2">  1        2 0.19866560E+00 0.13756556E+03</pdfrwt>
<pdfrwt beam="1">  1       -2 0.19196073E-02 0.13756556E+03</pdfrwt>
<totfact> 0.14081645E+04</totfact>
</mgrwt>
</event>
<event>
 7    1  0.7800420E-006  0.1472580E+03  0.7546771E-02  0.1213280E+00
          2   -1    0    0  501    0  0.00000000000E+00  0.00000000000E+00  0.12932666189E+03  0.12932666189E+03  0.00000000000E+00 0. -1.
         -2   -1    0    0    0  501 -0.00000000000E+00 -0.00000000000E+00 -0.15999342943E+03  0.15999342943E+03  0.00000000000E+00 0.  1.
         23    2    1    2    0    0 -0.17842705497E+02 -0.75763642280E+02  0.36105517511E+02  0.15161972244E+03  0.12500576070E+03 0.  0.
          5    1    3    3  502    0 -0.71277830750E+02 -0.37268235561E+02  0.26978197131E+02  0.84966838582E+02  0.47000000000E+01 0.  1.
         -5    1    3    3    0  502  0.53435125253E+02 -0.38495406719E+02  0.91273203807E+01  0.66652883858E+02  0.47000000000E+01 0.  1.
        -11    1    1    2    0    0  0.38132841811E+02  0.86028145065E+02 -0.39142886139E+02  0.10191722574E+03  0.00000000000E+00 0. -1.
         11    1    1    2    0    0 -0.20290136314E+02 -0.10264502785E+02 -0.27629398912E+02  0.35783143144E+02  0.00000000000E+00 0.  1.
<mgrwt>
<rscale>  0 0.14003641E+03</rscale>
<asrwt>0</asrwt>
<pdfrwt beam="1">  1        2 0.19896410E-01 0.14725805E+03</pdfrwt>
<pdfrwt beam="2">  1       -2 0.24614374E-01 0.14725805E+03</pdfrwt>
<totfact> 0.39316403E+03</totfact>
</mgrwt>
</event>
<event>
 7    1  0.7800420E-006  0.1319296E+03  0.7546771E-02  0.1237854E+00
          3   -1    0    0  501    0  0.00000000000E+00  0.00000000000E+00  0.55444884076E+03  0.55444884076E+03  0.00000000000E+00 0. -1.
         -3   -1    0    0    0  501 -0.00000000000E+00 -0.00000000000E+00 -0.45637237352E+02  0.45637237352E+02  0.00000000000E+00 0.  1.
         23    2    1    2    0    0 -0.25613254350E+02  0.33551754588E+02  0.47672895242E+03  0.49464726565E+03  0.12499465710E+03 0.  0.
          5    1    3    3  502    0  0.47789088478E+02 -0.50397073089E+01  0.19823381861E+03  0.20402924415E+03  0.47000000000E+01 0.  1.
         -5    1    3    3    0  502 -0.73402342828E+02  0.38591461897E+02  0.27849513381E+03  0.29061802150E+03  0.47000000000E+01 0.  1.
        -11    1    1    2    0    0 -0.33122549889E+02 -0.23057990079E+02  0.82702569240E+01  0.41196739765E+02  0.00000000000E+00 0. -1.
         11    1    1    2    0    0  0.58735804239E+02 -0.10493764509E+02  0.23812394059E+02  0.64242072694E+02  0.00000000000E+00 0.  1.
<mgrwt>
<rscale>  0 0.12323458E+03</rscale>
<asrwt>0</asrwt>
<pdfrwt beam="1">  1        3 0.85299817E-01 0.13192962E+03</pdfrwt>
<pdfrwt beam="2">  1       -3 0.70211138E-02 0.13192962E+03</pdfrwt>
<totfact> 0.39625128E+02</totfact>
</mgrwt>
</event>
<event>
 7    1  0.1180432E-005  0.2609795E+03  0.7546771E-02  0.1109053E+00
         -1   -1    0    0    0  501 -0.00000000000E+00  0.00000000000E+00  0.12058717814E+03  0.12058717814E+03  0.00000000000E+00 0.  1.
          1   -1    0    0  501    0  0.00000000000E+00 -0.00000000000E+00 -0.63057492384E+03  0.63057492384E+03  0.00000000000E+00 0. -1.
         23    2    1    2    0    0 -0.60185428883E+02  0.22105129914E+03 -0.41145996295E+03  0.48724698154E+03  0.12499742880E+03 0.  0.
          5    1    3    3  502    0  0.18180156422E+02  0.59619483283E+01 -0.43663390358E+01  0.20179639045E+02  0.47000000000E+01 0.  1.
         -5    1    3    3    0  502 -0.78365585305E+02  0.21508935081E+03 -0.40709362392E+03  0.46706734249E+03  0.47000000000E+01 0.  1.
        -11    1    1    2    0    0  0.51995034252E+02 -0.54936125847E+02 -0.12499706961E+02  0.76666186706E+02  0.00000000000E+00 0.  1.
         11    1    1    2    0    0  0.81903946311E+01 -0.16611517329E+03 -0.86028075792E+02  0.18724893374E+03  0.00000000000E+00 0. -1.
<mgrwt>
<rscale>  0 0.25684586E+03</rscale>
<asrwt>0</asrwt>
<pdfrwt beam="2">  1        1 0.97011524E-01 0.26097954E+03</pdfrwt>
<pdfrwt beam="1">  1       -1 0.18551874E-01 0.26097954E+03</pdfrwt>
<totfact> 0.75031384E+02</totfact>
</mgrwt>
</event>
<event>
 7    1  0.1391460E-005  0.3690774E+03  0.7546771E-02  0.1056024E+00
          1   -1    0    0  501    0  0.00000000000E+00  0.00000000000E+00  0.98221558863E+03  0.98221558863E+03  0.00000000000E+00 0. -1.
         -1   -1    0    0    0  501 -0.00000000000E+00 -0.00000000000E+00 -0.13508720006E+03  0.13508720006E+03  0.00000000000E+00 0.  1.
         23    2    1    2    0    0  0.58967172627E+02  0.34222193845E+03  0.44816707204E+03  0.58057891679E+03  0.12500068620E+03 0.  0.
          5    1    3    3  502    0  0.80607101505E+02  0.25783439818E+03  0.39449482580E+03  0.47814677588E+03  0.47000000000E+01 0. -1.
         -5    1    3    3    0  502 -0.21639928878E+02  0.84387540275E+02  0.53672246244E+02  0.10243214091E+03  0.47000000000E+01 0. -1.
        -11    1    1    2    0    0  0.23429903577E+02 -0.54221733752E+02  0.75500529207E+02  0.95860767278E+02  0.00000000000E+00 0. -1.
         11    1    1    2    0    0 -0.82397076204E+02 -0.28800020470E+03  0.32346078732E+03  0.44086310461E+03  0.00000000000E+00 0.  1.
<mgrwt>
<rscale>  0 0.36653946E+03</rscale>
<asrwt>0</asrwt>
<pdfrwt beam="1">  1        1 0.15111009E+00 0.36907744E+03</pdfrwt>
<pdfrwt beam="2">  1       -1 0.20782647E-01 0.36907744E+03</pdfrwt>
<totfact> 0.31104965E+02</totfact>
</mgrwt>
</event>
<event>
 7    1  0.7800420E-006  0.1834897E+03  0.7546771E-02  0.1170123E+00
         -2   -1    0    0    0  501 -0.00000000000E+00  0.00000000000E+00  0.12012755913E+03  0.12012755913E+03  0.00000000000E+00 0. -1.
          2   -1    0    0  501    0  0.00000000000E+00 -0.00000000000E+00 -0.24741482604E+03  0.24741482604E+03  0.00000000000E+00 0.  1.
         23    2    1    2    0    0  0.82042608055E+02 -0.10636027902E+03 -0.73717641008E+02  0.19774415302E+03  0.12499984387E+03 0.  0.
          5    1    3    3  502    0 -0.16353381521E+02 -0.17529569058E+02 -0.59523416574E+02  0.64341635037E+02  0.47000000000E+01 0.  1.
         -5    1    3    3    0  502  0.98395989576E+02 -0.88830709963E+02 -0.14194224433E+02  0.13340251798E+03  0.47000000000E+01 0.  1.
        -11    1    1    2    0    0 -0.53469441797E+02  0.69948468963E+01 -0.12905127607E+01  0.53940471933E+02  0.00000000000E+00 0. -1.
         11    1    1    2    0    0 -0.28573166258E+02  0.99365432125E+02 -0.52279113137E+02  0.11585776021E+03  0.00000000000E+00 0.  1.
<mgrwt>
<rscale>  0 0.17762350E+03</rscale>
<asrwt>0</asrwt>
<pdfrwt beam="2">  1        2 0.38063819E-01 0.18348967E+03</pdfrwt>
<pdfrwt beam="1">  1       -2 0.18481163E-01 0.18348967E+03</pdfrwt>
<totfact> 0.31819859E+03</totfact>
</mgrwt>
</event>
<event>
 7    1  0.7800420E-006  0.1399671E+03  0.7546771E-02  0.1224364E+00
          2   -1    0    0  501    0  0.00000000000E+00  0.00000000000E+00  0.36332899864E+03  0.36332899864E+03  0.00000000000E+00 0.  1.
         -2   -1    0    0    0  501 -0.00000000000E+00 -0.00000000000E+00 -0.43964064535E+02  0.43964064535E+02  0.00000000000E+00 0. -1.
         23    2    1    2    0    0 -0.55714733513E+02 -0.29352404808E+02  0.20144986180E+03  0.24530153786E+03  0.12500040985E+03 0.  0.
          5    1    3    3  502    0 -0.89320466511E+02  0.32179376122E+01  0.10482061201E+03  0.13783305685E+03  0.47000000000E+01 0.  1.
         -5    1    3    3    0  502  0.33605732998E+02 -0.32570342421E+02  0.96629249788E+02  0.10746848101E+03  0.47000000000E+01 0.  1.
        -11    1    1    2    0    0  0.57436423610E+02  0.49389707855E+02  0.11985522076E+03  0.14178702318E+03  0.00000000000E+00 0.  1.
         11    1    1    2    0    0 -0.17216900975E+01 -0.20037303046E+02 -0.19401484562E+01  0.20204502127E+02  0.00000000000E+00 0. -1.
<mgrwt>
<rscale>  0 0.13210584E+03</rscale>
<asrwt>0</asrwt>
<pdfrwt beam="1">  1        2 0.55896767E-01 0.13996713E+03</pdfrwt>
<pdfrwt beam="2">  1       -2 0.67637025E-02 0.13996713E+03</pdfrwt>
<totfact> 0.10357827E+04</totfact>
</mgrwt>
</event>
<event>
 7    1  0.7800420E-006  0.1261490E+03  0.7546771E-02  0.1244093E+00
         -2   -1    0    0    0  501 -0.00000000000E+00  0.00000000000E+00  0.66880347854E+02  0.66880347854E+02  0.00000000000E+00 0.  1.
          2   -1    0    0  501    0  0.00000000000E+00 -0.00000000000E+00 -0.19627214531E+03  0.19627214531E+03  0.00000000000E+00 0. -1.
         23    2    1    2    0    0 -0.26562485663E+02  0.32753396872E+02 -0.87844237450E+02  0.15372107300E+03  0.11889157910E+03 0.  0.
          5    1    3    3  502    0 -0.61953146219E+02  0.18628026187E+02 -0.94635535748E+02  0.11473086033E+03  0.47000000000E+01 0. -1.
         -5    1    3    3    0  502  0.35390660556E+02  0.14125370685E+02  0.67912982983E+01  0.38990212671E+02  0.47000000000E+01 0.  1.
        -11    1    1    2    0    0  0.56003963188E+02 -0.37345265503E+02 -0.42519839789E+02  0.79618148207E+02  0.00000000000E+00 0.  1.
         11    1    1    2    0    0 -0.29441477525E+02  0.45918686312E+01  0.97227978806E+00  0.29813271950E+02  0.00000000000E+00 0. -1.
<mgrwt>
<rscale>  0 0.11939829E+03</rscale>
<asrwt>0</asrwt>
<pdfrwt beam="2">  1        2 0.30195714E-01 0.12614895E+03</pdfrwt>
<pdfrwt beam="1">  1       -2 0.10289284E-01 0.12614895E+03</pdfrwt>
<totfact> 0.10338491E+04</totfact>
</mgrwt>
</event>
<event>
 7    1  0.7800420E-006  0.1280368E+03  0.7546771E-02  0.1244896E+00
         -2   -1    0    0    0  501 -0.00000000000E+00  0.00000000000E+00  0.19857362652E+03  0.19857362652E+03  0.00000000000E+00 0.  1.
          2   -1    0    0  501    0  0.00000000000E+00 -0.00000000000E+00 -0.63508874472E+02  0.63508874472E+02  0.00000000000E+00 0. -1.
         23    2    1    2    0    0  0.45537880929E+01 -0.27352459102E+02  0.63438151736E+02  0.14289090678E+03  0.12499807254E+03 0.  0.
          5    1    3    3  502    0  0.52194411079E+02 -0.47130994869E+02  0.57097928767E+02  0.90707500764E+02  0.47000000000E+01 0.  1.
         -5    1    3    3    0  502 -0.47640622987E+02  0.19778535768E+02  0.63402229683E+01  0.52183406011E+02  0.47000000000E+01 0.  1.
        -11    1    1    2    0    0 -0.12716364770E+02 -0.27378458443E+02  0.52653037263E+02  0.60692901172E+02  0.00000000000E+00 0.  1.
         11    1    1    2    0    0  0.81625766772E+01  0.54730917545E+02  0.18973563050E+02  0.58498693046E+02  0.00000000000E+00 0. -1.
<mgrwt>
<rscale>  0 0.11891576E+03</rscale>
<asrwt>0</asrwt>
<pdfrwt beam="2">  1        2 0.97705962E-02 0.12803676E+03</pdfrwt>
<pdfrwt beam="1">  1       -2 0.30549788E-01 0.12803676E+03</pdfrwt>
<totfact> 0.61528806E+03</totfact>
</mgrwt>
</event>
<event>
 7    1  0.7800420E-006  0.1269045E+03  0.7546771E-02  0.1244445E+00
         -2   -1    0    0    0  501 -0.00000000000E+00  0.00000000000E+00  0.31776296285E+02  0.31776296285E+02  0.00000000000E+00 0.  1.
          2   -1    0    0  501    0  0.00000000000E+00 -0.00000000000E+00 -0.51937435685E+03  0.51937435685E+03  0.00000000000E+00 0. -1.
         23    2    1    2    0    0 -0.19742317040E+02  0.94565470719E+01 -0.39827950336E+03  0.41800874041E+03  0.12500223556E+03 0.  0.
          5    1    3    3  502    0  0.26987644266E+02 -0.26340187509E+02 -0.41086277890E+02  0.55967049698E+02  0.47000000000E+01 0.  1.
         -5    1    3    3    0  502 -0.46729961306E+02  0.35796734581E+02 -0.35719322547E+03  0.36204169071E+03  0.47000000000E+01 0.  1.
        -11    1    1    2    0    0  0.10897050756E+02 -0.53099728126E+02 -0.49046940390E+02  0.73102183305E+02  0.00000000000E+00 0.  1.
         11    1    1    2    0    0  0.88452662840E+01  0.43643181055E+02 -0.40271616811E+02  0.60039729419E+02  0.00000000000E+00 0. -1.
<mgrwt>
<rscale>  0 0.11918662E+03</rscale>
<asrwt>0</asrwt>
<pdfrwt beam="2">  1        2 0.79903741E-01 0.12690447E+03</pdfrwt>
<pdfrwt beam="1">  1       -2 0.48886613E-02 0.12690447E+03</pdfrwt>
<totfact> 0.11427725E+04</totfact>
</mgrwt>
</event>
<event>
 7    1  0.7800420E-006  0.2139984E+03  0.7546771E-02  0.1141968E+00
         -1   -1    0    0    0  501 -0.00000000000E+00  0.00000000000E+00  0.25863637506E+03  0.25863637506E+03  0.00000000000E+00 0.  1.
          1   -1    0    0  501    0  0.00000000000E+00 -0.00000000000E+00 -0.21105103238E+03  0.21105103238E+03  0.00000000000E+00 0. -1.
         23    2    1    2    0    0 -0.11790314831E+03 -0.12751638375E+03 -0.87508007288E+02  0.23119901701E+03  0.12503500958E+03 0.  0.
          5    1    3    3  502    0  0.15823431260E+02 -0.88684682526E+01 -0.43003786053E+02  0.46908915153E+02  0.47000000000E+01 0.  1.
         -5    1    3    3    0  502 -0.13372657957E+03 -0.11864791549E+03 -0.44504221235E+02  0.18429010186E+03  0.47000000000E+01 0.  1.
        -11    1    1    2    0    0  0.48696302443E+02 -0.13099756960E+01  0.21183678039E+02  0.53120562151E+02  0.00000000000E+00 0.  1.
         11    1    1    2    0    0  0.69206845866E+02  0.12882635944E+03  0.11390967193E+03  0.18536782828E+03  0.00000000000E+00 0. -1.
<mgrwt>
<rscale>  0 0.20949257E+03</rscale>
<asrwt>0</asrwt>
<pdfrwt beam="2">  1        1 0.32469389E-01 0.21399844E+03</pdfrwt>
<pdfrwt beam="1">  1       -1 0.39790212E-01 0.21399844E+03</pdfrwt>
<totfact> 0.85346084E+02</totfact>
</mgrwt>
</event>
<event>
 7    1  0.7800420E-006  0.2175802E+03  0.7546771E-02  0.1139233E+00
         -2   -1    0    0    0  501 -0.00000000000E+00  0.00000000000E+00  0.62411471739E+02  0.62411471739E+02  0.00000000000E+00 0.  1.
          2   -1    0    0  501    0  0.00000000000E+00 -0.00000000000E+00 -0.93637665645E+03  0.93637665645E+03  0.00000000000E+00 0. -1.
         23    2    1    2    0    0 -0.16480887082E+02 -0.17733280441E+03 -0.70293205962E+03  0.73583600667E+03  0.12499042010E+03 0.  0.
          5    1    3    3  502    0  0.37902010253E+02 -0.82824206001E+02 -0.46781358526E+03  0.47662149766E+03  0.47000000000E+01 0. -1.
         -5    1    3    3    0  502 -0.54382897335E+02 -0.94508598409E+02 -0.23511847436E+03  0.25921450901E+03  0.47000000000E+01 0. -1.
        -11    1    1    2    0    0  0.48607282531E+02  0.87255250389E+02 -0.60440986680E+02  0.11674441959E+03  0.00000000000E+00 0.  1.
         11    1    1    2    0    0 -0.32126395449E+02  0.90077554021E+02 -0.11059213841E+03  0.14620770192E+03  0.00000000000E+00 0. -1.
<mgrwt>
<rscale>  0 0.21297301E+03</rscale>
<asrwt>0</asrwt>
<pdfrwt beam="2">  1        2 0.14405793E+00 0.21758021E+03</pdfrwt>
<pdfrwt beam="1">  1       -2 0.96017659E-02 0.21758021E+03</pdfrwt>
<totfact> 0.20325957E+03</totfact>
</mgrwt>
</event>
<event>
 7    1  0.7800420E-006  0.2801814E+03  0.7546771E-02  0.1097053E+00
          2   -1    0    0  501    0  0.00000000000E+00  0.00000000000E+00  0.22272379014E+03  0.22272379014E+03  0.00000000000E+00 0. -1.
         -2   -1    0    0    0  501 -0.00000000000E+00 -0.00000000000E+00 -0.34533848741E+03  0.34533848741E+03  0.00000000000E+00 0.  1.
         23    2    1    2    0    0  0.13441486601E+03  0.21168319939E+03 -0.25123906860E+02  0.28130555141E+03  0.12499787777E+03 0.  0.
          5    1    3    3  502    0  0.15710608262E+03  0.19556427755E+03 -0.15103771985E+02  0.25135218674E+03  0.47000000000E+01 0.  1.
         -5    1    3    3    0  502 -0.22691216603E+02  0.16118921837E+02 -0.10020134875E+02  0.29953364670E+02  0.47000000000E+01 0.  1.
        -11    1    1    2    0    0 -0.12372873957E+03 -0.12438536274E+03 -0.93295565110E+02  0.19870727699E+03  0.00000000000E+00 0.  1.
         11    1    1    2    0    0 -0.10686126443E+02 -0.87297836642E+02 -0.41952252919E+01  0.88049449152E+02  0.00000000000E+00 0. -1.
<mgrwt>
<rscale>  0 0.27751719E+03</rscale>
<asrwt>0</asrwt>
<pdfrwt beam="1">  1        2 0.34265199E-01 0.28018137E+03</pdfrwt>
<pdfrwt beam="2">  1       -2 0.53128998E-01 0.28018137E+03</pdfrwt>
<totfact> 0.51626076E+02</totfact>
</mgrwt>
</event>
<event>
 7    1  0.7800420E-006  0.1835778E+03  0.7546771E-02  0.1169688E+00
         -2   -1    0    0    0  501 -0.00000000000E+00  0.00000000000E+00  0.29182325209E+03  0.29182325209E+03  0.00000000000E+00 0.  1.
          2   -1    0    0  501    0  0.00000000000E+00 -0.00000000000E+00 -0.10334673748E+03  0.10334673748E+03  0.00000000000E+00 0. -1.
         23    2    1    2    0    0 -0.13035207513E+03 -0.32936908992E+02  0.83245918480E+02  0.20157055143E+03  0.12499720316E+03 0.  0.
          5    1    3    3  502    0 -0.10515872049E+03 -0.71040918671E+02  0.89307243247E+02  0.15525154529E+03  0.47000000000E+01 0. -1.
         -5    1    3    3    0  502 -0.25193354640E+02  0.38104009678E+02 -0.60613247662E+01  0.46319006137E+02  0.47000000000E+01 0. -1.
        -11    1    1    2    0    0  0.11049081392E+03  0.41900282303E+02  0.11909529034E+03  0.16777229151E+03  0.00000000000E+00 0.  1.
         11    1    1    2    0    0  0.19861261207E+02 -0.89633733106E+01 -0.13864694201E+02  0.25827146632E+02  0.00000000000E+00 0. -1.
<mgrwt>
<rscale>  0 0.17806580E+03</rscale>
<asrwt>0</asrwt>
<pdfrwt beam="2">  1        2 0.15899498E-01 0.18357779E+03</pdfrwt>
<pdfrwt beam="1">  1       -2 0.44895885E-01 0.18357779E+03</pdfrwt>
<totfact> 0.17027927E+03</totfact>
</mgrwt>
</event>
<event>
 7    1  0.7800420E-006  0.1672183E+03  0.7546771E-02  0.1187506E+00
          2   -1    0    0  501    0  0.00000000000E+00  0.00000000000E+00  0.13276722222E+04  0.13276722222E+04  0.00000000000E+00 0. -1.
         -2   -1    0    0    0  501 -0.00000000000E+00 -0.00000000000E+00 -0.19648942087E+02  0.19648942087E+02  0.00000000000E+00 0.  1.
         23    2    1    2    0    0 -0.11065174201E+03  0.97004564039E+01  0.88018051195E+03  0.89592393328E+03  0.12499621494E+03 0.  0.
          5    1    3    3  502    0 -0.78300211374E+02  0.29367351996E+02  0.23260671489E+03  0.24722730083E+03  0.47000000000E+01 0.  1.
         -5    1    3    3    0  502 -0.32351530639E+02 -0.19666895592E+02  0.64757379706E+03  0.64869663245E+03  0.47000000000E+01 0.  1.
        -11    1    1    2    0    0  0.89154031284E+02  0.33253096702E+02  0.26226017312E+03  0.27898854482E+03  0.00000000000E+00 0.  1.
         11    1    1    2    0    0  0.21497710729E+02 -0.42953553106E+02  0.16558259503E+03  0.17240868617E+03  0.00000000000E+00 0. -1.
<mgrwt>
<rscale>  0 0.16105916E+03</rscale>
<asrwt>0</asrwt>
<pdfrwt beam="1">  1        2 0.20425719E+00 0.16721830E+03</pdfrwt>
<pdfrwt beam="2">  1       -2 0.30229152E-02 0.16721830E+03</pdfrwt>
<totfact> 0.69841880E+03</totfact>
</mgrwt>
</event>
<event>
 7    1  0.7800420E-006  0.1269888E+03  0.7546771E-02  0.1247248E+00
         -2   -1    0    0    0  501 -0.00000000000E+00  0.00000000000E+00  0.27976604014E+03  0.27976604014E+03  0.00000000000E+00 0.  1.
          2   -1    0    0  501    0  0.00000000000E+00 -0.00000000000E+00 -0.43732565910E+02  0.43732565910E+02  0.00000000000E+00 0. -1.
         23    2    1    2    0    0  0.20103395400E+02  0.97492957002E+01  0.12009952794E+03  0.17478573401E+03  0.12500784347E+03 0.  0.
          5    1    3    3  502    0  0.12362483671E+02 -0.51319309627E+02  0.18946283276E+02  0.56281028714E+02  0.47000000000E+01 0.  1.
         -5    1    3    3    0  502  0.77409117288E+01  0.61068605328E+02  0.10115324466E+03  0.11850470529E+03  0.47000000000E+01 0.  1.
        -11    1    1    2    0    0 -0.37600823626E+02 -0.25266031349E+02  0.11683391214E+03  0.12530904718E+03  0.00000000000E+00 0.  1.
         11    1    1    2    0    0  0.17497428226E+02  0.15516735649E+02 -0.89996585402E+00  0.23403824864E+02  0.00000000000E+00 0. -1.
<mgrwt>
<rscale>  0 0.11751864E+03</rscale>
<asrwt>0</asrwt>
<pdfrwt beam="2">  1        2 0.67280872E-02 0.12698880E+03</pdfrwt>
<pdfrwt beam="1">  1       -2 0.43040928E-01 0.12698880E+03</pdfrwt>
<totfact> 0.51886783E+03</totfact>
</mgrwt>
</event>
<event>
 7    1  0.7800420E-006  0.1529852E+03  0.7546771E-02  0.1204632E+00
          1   -1    0    0  501    0  0.00000000000E+00  0.00000000000E+00  0.23159780501E+03  0.23159780501E+03  0.00000000000E+00 0.  1.
         -1   -1    0    0    0  501 -0.00000000000E+00 -0.00000000000E+00 -0.85976283846E+02  0.85976283846E+02  0.00000000000E+00 0. -1.
         23    2    1    2    0    0  0.73776519903E+02 -0.48340101220E+02  0.77906589685E+02  0.17167963568E+03  0.12499888126E+03 0.  0.
          5    1    3    3  502    0  0.65329857249E+02 -0.36556675578E+02 -0.15871978128E+02  0.76670662363E+02  0.47000000000E+01 0.  1.
         -5    1    3    3    0  502  0.84466626539E+01 -0.11783425642E+02  0.93778567814E+02  0.95008973318E+02  0.47000000000E+01 0.  1.
        -11    1    1    2    0    0 -0.15574496508E+02 -0.21481997109E+02 -0.78692993012E+01  0.27676109061E+02  0.00000000000E+00 0. -1.
         11    1    1    2    0    0 -0.58202023395E+02  0.69822098329E+02  0.75584230783E+02  0.11821834412E+03  0.00000000000E+00 0.  1.
<mgrwt>
<rscale>  0 0.14666489E+03</rscale>
<asrwt>0</asrwt>
<pdfrwt beam="1">  1        1 0.35630431E-01 0.15298516E+03</pdfrwt>
<pdfrwt beam="2">  1       -1 0.13227121E-01 0.15298516E+03</pdfrwt>
<totfact> 0.46141975E+03</totfact>
</mgrwt>
</event>
<event>
 6    1  0.7800420E-006  0.2125830E+03  0.7546771E-02  0.1172080E+00
          2   -1    0    0  501    0  0.00000000000E+00  0.00000000000E+00  0.38062064519E+03  0.38062064519E+03  0.00000000000E+00 0. -1.
         -2   -1    0    0    0  501 -0.00000000000E+00 -0.00000000000E+00 -0.66577226391E+02  0.66577226391E+02  0.00000000000E+00 0.  1.
          5    1    1    2  502    0 -0.11335896517E+02  0.84246915706E+02  0.18057589794E+03  0.19963915015E+03  0.47000000000E+01 0. -1.
         -5    1    1    2    0  502  0.45426427117E+02 -0.99311235225E+02  0.73891231483E+02  0.13194046314E+03  0.47000000000E+01 0.  1.
        -11    1    1    2    0    0  0.21222054604E+02 -0.17685831428E+02  0.39640044037E+02  0.48316636122E+02  0.00000000000E+00 0.  1.
         11    1    1    2    0    0 -0.55312585204E+02  0.32750150947E+02  0.19936245341E+02  0.67301622175E+02  0.00000000000E+00 0. -1.
<mgrwt>
<rscale>  0 0.17565099E+03</rscale>
<asrwt>0</asrwt>
<pdfrwt beam="1">  1        2 0.58557021E-01 0.21258297E+03</pdfrwt>
<pdfrwt beam="2">  1       -2 0.10242650E-01 0.21258297E+03</pdfrwt>
<totfact> 0.52911345E+03</totfact>
</mgrwt>
</event>
<event>
 7    1  0.7800420E-006  0.1624527E+03  0.7546771E-02  0.1193286E+00
          1   -1    0    0  501    0  0.00000000000E+00  0.00000000000E+00  0.30759198417E+03  0.30759198417E+03  0.00000000000E+00 0. -1.
         -1   -1    0    0    0  501 -0.00000000000E+00 -0.00000000000E+00 -0.75248519463E+02  0.75248519463E+02  0.00000000000E+00 0.  1.
         23    2    1    2    0    0 -0.89695266043E+02  0.52102120398E+02  0.15490602278E+03  0.22446996600E+03  0.12502406986E+03 0.  0.
          5    1    3    3  502    0 -0.35043230652E+02  0.72803535577E+02  0.29692607587E+02  0.86209765992E+02  0.47000000000E+01 0. -1.
         -5    1    3    3    0  502 -0.54652035391E+02 -0.20701415179E+02  0.12521341519E+03  0.13826020001E+03  0.47000000000E+01 0. -1.
        -11    1    1    2    0    0  0.82174631854E+02 -0.27803352011E+02  0.11266659281E+02  0.87479335358E+02  0.00000000000E+00 0.  1.
         11    1    1    2    0    0  0.75206341893E+01 -0.24298768387E+02  0.66170782650E+02  0.70891202277E+02  0.00000000000E+00 0. -1.
<mgrwt>
<rscale>  0 0.15600224E+03</rscale>
<asrwt>0</asrwt>
<pdfrwt beam="1">  1        1 0.47321843E-01 0.16245273E+03</pdfrwt>
<pdfrwt beam="2">  1       -1 0.11576695E-01 0.16245273E+03</pdfrwt>
<totfact> 0.40008332E+03</totfact>
</mgrwt>
</event>
<event>
 7    1  0.7800420E-006  0.1328239E+03  0.7546771E-02  0.1237790E+00
          2   -1    0    0  501    0  0.00000000000E+00  0.00000000000E+00  0.68874459315E+03  0.68874459315E+03  0.00000000000E+00 0. -1.
         -2   -1    0    0    0  501 -0.00000000000E+00 -0.00000000000E+00 -0.19444233605E+02  0.19444233605E+02  0.00000000000E+00 0.  1.
         23    2    1    2    0    0  0.43319277114E+02  0.11920110704E+02  0.39289589164E+03  0.41474012568E+03  0.12499416535E+03 0.  0.
          5    1    3    3  502    0  0.84107827954E+02  0.23428966682E+02  0.22183642003E+03  0.23844607452E+03  0.47000000000E+01 0. -1.
         -5    1    3    3    0  502 -0.40788550840E+02 -0.11508855978E+02  0.17105947161E+03  0.17629405116E+03  0.47000000000E+01 0. -1.
        -11    1    1    2    0    0 -0.64908027648E+02 -0.28265905655E+02  0.18367801681E+03  0.19684925028E+03  0.00000000000E+00 0. -1.
         11    1    1    2    0    0  0.21588750534E+02  0.16345794951E+02  0.92726451098E+02  0.96599450803E+02  0.00000000000E+00 0.  1.
<mgrwt>
<rscale>  0 0.12327492E+03</rscale>
<asrwt>0</asrwt>
<pdfrwt beam="1">  1        2 0.10596069E+00 0.13282391E+03</pdfrwt>
<pdfrwt beam="2">  1       -2 0.29914211E-02 0.13282391E+03</pdfrwt>
<totfact> 0.17228503E+04</totfact>
</mgrwt>
</event>
<event>
 7    1  0.7800420E-006  0.1338993E+03  0.7546771E-02  0.1232971E+00
          2   -1    0    0  501    0  0.00000000000E+00  0.00000000000E+00  0.13115372441E+03  0.13115372441E+03  0.00000000000E+00 0. -1.
         -2   -1    0    0    0  501 -0.00000000000E+00 -0.00000000000E+00 -0.11181427859E+03  0.11181427859E+03  0.00000000000E+00 0.  1.
         23    2    1    2    0    0 -0.23856620804E+02 -0.41649061595E+02  0.26737259261E+02  0.13654267775E+03  0.12500095650E+03 0.  0.
          5    1    3    3  502    0 -0.40421984872E+02  0.35024472575E+02  0.49484704539E+00  0.53693439206E+02  0.47000000000E+01 0. -1.
         -5    1    3    3    0  502  0.16565364068E+02 -0.76673534170E+02  0.26242412216E+02  0.82849238546E+02  0.47000000000E+01 0. -1.
        -11    1    1    2    0    0 -0.11495153086E+02  0.54050161521E+02 -0.29792270082E+02  0.62778482472E+02  0.00000000000E+00 0.  1.
         11    1    1    2    0    0  0.35351773890E+02 -0.12401099926E+02  0.22394456642E+02  0.43646842782E+02  0.00000000000E+00 0. -1.
<mgrwt>
<rscale>  0 0.12635197E+03</rscale>
<asrwt>0</asrwt>
<pdfrwt beam="1">  1        2 0.20177496E-01 0.13389930E+03</pdfrwt>
<pdfrwt beam="2">  1       -2 0.17202197E-01 0.13389930E+03</pdfrwt>
<totfact> 0.70740446E+03</totfact>
</mgrwt>
</event>
<event>
 6    1  0.7800420E-006  0.1606609E+03  0.7546771E-02  0.1197828E+00
         -1   -1    0    0    0  501 -0.00000000000E+00  0.00000000000E+00  0.27542632528E+03  0.27542632528E+03  0.00000000000E+00 0.  1.
          1   -1    0    0  501    0  0.00000000000E+00 -0.00000000000E+00 -0.11176472199E+03  0.11176472199E+03  0.00000000000E+00 0. -1.
          5    1    1    2  502    0  0.33545314211E+02 -0.15418264932E+02 -0.75617329698E+02  0.84279781381E+02  0.47000000000E+01 0. -1.
         -5    1    1    2    0  502  0.46357478957E+02 -0.29217777667E+02  0.54902014139E+02  0.77711103090E+02  0.47000000000E+01 0.  1.
        -11    1    1    2    0    0 -0.76873015111E+02  0.69484535410E+02  0.15690487010E+03  0.18803377190E+03  0.00000000000E+00 0.  1.
         11    1    1    2    0    0 -0.30297780563E+01 -0.24848492811E+02  0.27472048749E+02  0.37166390899E+02  0.00000000000E+00 0. -1.
<mgrwt>
<rscale>  0 0.15217315E+03</rscale>
<asrwt>0</asrwt>
<pdfrwt beam="2">  1        1 0.17194573E-01 0.16066089E+03</pdfrwt>
<pdfrwt beam="1">  1       -1 0.42373281E-01 0.16066089E+03</pdfrwt>
<totfact> 0.17025819E+03</totfact>
</mgrwt>
</event>
<event>
 7    1  0.7800420E-006  0.2917381E+03  0.7546771E-02  0.1091194E+00
         -2   -1    0    0    0  501 -0.00000000000E+00  0.00000000000E+00  0.89560783920E+03  0.89560783920E+03  0.00000000000E+00 0.  1.
          2   -1    0    0  501    0  0.00000000000E+00 -0.00000000000E+00 -0.10091300358E+03  0.10091300358E+03  0.00000000000E+00 0. -1.
         23    2    1    2    0    0  0.16836026435E+03 -0.20283701226E+03  0.24782307398E+03  0.38278895980E+03  0.12499231812E+03 0.  0.
          5    1    3    3  502    0  0.58793222557E+02 -0.14661062928E+01  0.76233167533E+02  0.96396982932E+02  0.47000000000E+01 0. -1.
         -5    1    3    3    0  502  0.10956704179E+03 -0.20137090597E+03  0.17158990645E+03  0.28639197686E+03  0.47000000000E+01 0. -1.
        -11    1    1    2    0    0 -0.45698261889E+02  0.20814804348E+02  0.17350906502E+03  0.18062940753E+03  0.00000000000E+00 0.  1.
         11    1    1    2    0    0 -0.12266200246E+03  0.18202220791E+03  0.37336269662E+03  0.43310247546E+03  0.00000000000E+00 0. -1.
<mgrwt>
<rscale>  0 0.28838737E+03</rscale>
<asrwt>0</asrwt>
<pdfrwt beam="2">  1        2 0.15525078E-01 0.29173809E+03</pdfrwt>
<pdfrwt beam="1">  1       -2 0.13778582E+00 0.29173809E+03</pdfrwt>
<totfact> 0.14772811E+02</totfact>
</mgrwt>
</event>
<event>
 7    1  0.7800420E-006  0.1781287E+03  0.7546771E-02  0.1175732E+00
         -2   -1    0    0    0  501 -0.00000000000E+00  0.00000000000E+00  0.35100771491E+02  0.35100771491E+02  0.00000000000E+00 0.  1.
          2   -1    0    0  501    0  0.00000000000E+00 -0.00000000000E+00 -0.81587788803E+03  0.81587788803E+03  0.00000000000E+00 0. -1.
         23    2    1    2    0    0 -0.56728552493E+02 -0.11351447269E+03 -0.49155452439E+03  0.52283426692E+03  0.12500462408E+03 0.  0.
          5    1    3    3  502    0 -0.86330847422E+02 -0.10206781165E+03 -0.29808688449E+03  0.32672424780E+03  0.47000000000E+01 0. -1.
         -5    1    3    3    0  502  0.29602294929E+02 -0.11446661037E+02 -0.19346763990E+03  0.19611001913E+03  0.47000000000E+01 0. -1.
        -11    1    1    2    0    0  0.68960087287E+02  0.12080943312E+03 -0.24563087827E+03  0.28228521238E+03  0.00000000000E+00 0.  1.
         11    1    1    2    0    0 -0.12231534794E+02 -0.72949604321E+01 -0.43591713878E+02  0.45859180215E+02  0.00000000000E+00 0. -1.
<mgrwt>
<rscale>  0 0.17204513E+03</rscale>
<asrwt>0</asrwt>
<pdfrwt beam="2">  1        2 0.12551966E+00 0.17812866E+03</pdfrwt>
<pdfrwt beam="1">  1       -2 0.54001191E-02 0.17812866E+03</pdfrwt>
<totfact> 0.59052411E+03</totfact>
</mgrwt>
</event>
<event>
 7    1  0.7800420E-006  0.1477131E+03  0.7546771E-02  0.1212061E+00
         -2   -1    0    0    0  501 -0.00000000000E+00  0.00000000000E+00  0.46633269753E+02  0.46633269753E+02  0.00000000000E+00 0.  1.
          2   -1    0    0  501    0  0.00000000000E+00 -0.00000000000E+00 -0.39357329078E+03  0.39357329078E+03  0.00000000000E+00 0. -1.
         23    2    1    2    0    0  0.16185924214E+00  0.78700855400E+02 -0.17289011406E+03  0.22739865067E+03  0.12500121579E+03 0.  0.
          5    1    3    3  502    0 -0.26594424766E+02  0.10545613043E+03 -0.11776007819E+03  0.16036765538E+03  0.47000000000E+01 0. -1.
         -5    1    3    3    0  502  0.26756284008E+02 -0.26755275035E+02 -0.55130035864E+02  0.67030995297E+02  0.47000000000E+01 0. -1.
        -11    1    1    2    0    0  0.26106721242E+02 -0.25960542798E+02 -0.94939696268E+01  0.38021653510E+02  0.00000000000E+00 0.  1.
         11    1    1    2    0    0 -0.26268580484E+02 -0.52740312602E+02 -0.16455593734E+03  0.17478625635E+03  0.00000000000E+00 0. -1.
<mgrwt>
<rscale>  0 0.14094618E+03</rscale>
<asrwt>0</asrwt>
<pdfrwt beam="2">  1        2 0.60549736E-01 0.14771308E+03</pdfrwt>
<pdfrwt beam="1">  1       -2 0.71743494E-02 0.14771308E+03</pdfrwt>
<totfact> 0.87217200E+03</totfact>
</mgrwt>
</event>
<event>
 7    1  0.7800420E-006  0.1353003E+03  0.7546771E-02  0.1232153E+00
         -1   -1    0    0    0  501 -0.00000000000E+00  0.00000000000E+00  0.29701196061E+02  0.29701196061E+02  0.00000000000E+00 0.  1.
          1   -1    0    0  501    0  0.00000000000E+00 -0.00000000000E+00 -0.12846576356E+04  0.12846576356E+04  0.00000000000E+00 0. -1.
         23    2    1    2    0    0 -0.50305987274E+02 -0.12288041886E+02 -0.11747298748E+04  0.11824958543E+04  0.12499791359E+03 0.  0.
          5    1    3    3  502    0 -0.13799358604E+02  0.35517694834E+02 -0.91679292762E+03  0.91759647508E+03  0.47000000000E+01 0.  1.
         -5    1    3    3    0  502 -0.36506628670E+02 -0.47805736720E+02 -0.25793694716E+03  0.26489937922E+03  0.47000000000E+01 0.  1.
        -11    1    1    2    0    0 -0.14933705893E+02 -0.21731950087E+02 -0.53874967626E+01  0.26913163093E+02  0.00000000000E+00 0.  1.
         11    1    1    2    0    0  0.65239693166E+02  0.34019991974E+02 -0.74839068019E+02  0.10494981429E+03  0.00000000000E+00 0. -1.
<mgrwt>
<rscale>  0 0.12688446E+03</rscale>
<asrwt>0</asrwt>
<pdfrwt beam="2">  1        1 0.19763963E+00 0.13530028E+03</pdfrwt>
<pdfrwt beam="1">  1       -1 0.45694149E-02 0.13530028E+03</pdfrwt>
<totfact> 0.20071732E+03</totfact>
</mgrwt>
</event>
<event>
 7    1  0.7800420E-006  0.1276055E+03  0.7546771E-02  0.1246325E+00
          1   -1    0    0  501    0  0.00000000000E+00  0.00000000000E+00  0.71027126497E+03  0.71027126497E+03  0.00000000000E+00 0.  1.
         -1   -1    0    0    0  501 -0.00000000000E+00 -0.00000000000E+00 -0.18727077816E+02  0.18727077816E+02  0.00000000000E+00 0. -1.
         23    2    1    2    0    0 -0.21210520739E+02  0.14361686783E+02  0.49740269097E+03  0.51351009076E+03  0.12500812809E+03 0.  0.
          5    1    3    3  502    0  0.20797764557E+02  0.60800190587E+02  0.23210285948E+03  0.24087971597E+03  0.47000000000E+01 0.  1.
         -5    1    3    3    0  502 -0.42008285295E+02 -0.46438503804E+02  0.26529983149E+03  0.27263037479E+03  0.47000000000E+01 0.  1.
        -11    1    1    2    0    0 -0.17048160983E+02 -0.47010855217E+01  0.31639980521E+00  0.17687286587E+02  0.00000000000E+00 0. -1.
         11    1    1    2    0    0  0.38258681722E+02 -0.96606012613E+01  0.19382509638E+03  0.19780096544E+03  0.00000000000E+00 0.  1.
<mgrwt>
<rscale>  0 0.11806403E+03</rscale>
<asrwt>0</asrwt>
<pdfrwt beam="1">  1        1 0.10927248E+00 0.12760555E+03</pdfrwt>
<pdfrwt beam="2">  1       -1 0.28810894E-02 0.12760555E+03</pdfrwt>
<totfact> 0.10533972E+04</totfact>
</mgrwt>
</event>
<event>
 7    1  0.7800420E-006  0.1281854E+03  0.7546771E-02  0.1244404E+00
          1   -1    0    0  501    0  0.00000000000E+00  0.00000000000E+00  0.46391393566E+03  0.46391393566E+03  0.00000000000E+00 0. -1.
         -1   -1    0    0    0  501 -0.00000000000E+00 -0.00000000000E+00 -0.28885074089E+02  0.28885074089E+02  0.00000000000E+00 0.  1.
         23    2    1    2    0    0 -0.19501505115E+02  0.20831285237E+02  0.30827526756E+03  0.33386394489E+03  0.12496896402E+03 0.  0.
          5    1    3    3  502    0 -0.16872640027E+02 -0.13667815563E+02 -0.13673773402E+01  0.22258815883E+02  0.47000000000E+01 0. -1.
         -5    1    3    3    0  502 -0.26288650887E+01  0.34499100800E+02  0.30964264490E+03  0.31160512901E+03  0.47000000000E+01 0. -1.
        -11    1    1    2    0    0  0.33753522087E+01  0.32234230283E+02  0.18545024801E+02  0.37341083934E+02  0.00000000000E+00 0.  1.
         11    1    1    2    0    0  0.16126152907E+02 -0.53065515520E+02  0.10820856922E+03  0.12159398092E+03  0.00000000000E+00 0. -1.
<mgrwt>
<rscale>  0 0.11921098E+03</rscale>
<asrwt>0</asrwt>
<pdfrwt beam="1">  1        1 0.71371369E-01 0.12818539E+03</pdfrwt>
<pdfrwt beam="2">  1       -1 0.44438579E-02 0.12818539E+03</pdfrwt>
<totfact> 0.99319783E+03</totfact>
</mgrwt>
</event>
<event>
 7    1  0.7800420E-006  0.1266432E+03  0.7546771E-02  0.1248738E+00
          2   -1    0    0  501    0  0.00000000000E+00  0.00000000000E+00  0.52114411281E+02  0.52114411281E+02  0.00000000000E+00 0. -1.
         -2   -1    0    0    0  501 -0.00000000000E+00 -0.00000000000E+00 -0.22884267642E+03  0.22884267642E+03  0.00000000000E+00 0.  1.
         23    2    1    2    0    0 -0.19335818931E+02  0.61919371991E+01 -0.92175741078E+02  0.15663611053E+03  0.12500515949E+03 0.  0.
          5    1    3    3  502    0  0.31078250198E+02  0.46739732247E+02 -0.65789898938E+02  0.86607511269E+02  0.47000000000E+01 0.  1.
         -5    1    3    3    0  502 -0.50414069129E+02 -0.40547795048E+02 -0.26385842140E+02  0.70028599263E+02  0.47000000000E+01 0.  1.
        -11    1    1    2    0    0 -0.17631539950E+02 -0.45219402330E+01  0.11401786520E+02  0.21478358418E+02  0.00000000000E+00 0. -1.
         11    1    1    2    0    0  0.36967358881E+02 -0.16699969660E+01 -0.95954310578E+02  0.10284261875E+03  0.00000000000E+00 0.  1.
<mgrwt>
<rscale>  0 0.11664448E+03</rscale>
<asrwt>0</asrwt>
<pdfrwt beam="1">  1        2 0.80176016E-02 0.12664321E+03</pdfrwt>
<pdfrwt beam="2">  1       -2 0.35206566E-01 0.12664321E+03</pdfrwt>
<totfact> 0.60656492E+03</totfact>
</mgrwt>
</event>
<event>
 7    1  0.7800420E-006  0.1572597E+03  0.7546771E-02  0.1200932E+00
         -1   -1    0    0    0  501 -0.00000000000E+00  0.00000000000E+00  0.14773815742E+03  0.14773815742E+03  0.00000000000E+00 0.  1.
          1   -1    0    0  501    0  0.00000000000E+00 -0.00000000000E+00 -0.15355372991E+03  0.15355372991E+03  0.00000000000E+00 0. -1.
         23    2    1    2    0    0  0.31460877700E+01 -0.95313938882E+02 -0.50046931776E+02  0.16503120131E+03  0.12504382117E+03 0.  0.
          5    1    3    3  502    0 -0.24490439923E+02 -0.21452246188E+01 -0.62136482758E+02  0.66988179001E+02  0.47000000000E+01 0.  1.
         -5    1    3    3    0  502  0.27636527693E+02 -0.93168714264E+02  0.12089550982E+02  0.98043022309E+02  0.47000000000E+01 0.  1.
        -11    1    1    2    0    0 -0.12774652252E+02 -0.11508110064E+02  0.19865106717E+02  0.26272624579E+02  0.00000000000E+00 0.  1.
         11    1    1    2    0    0  0.96285644815E+01  0.10682204895E+03  0.24366252568E+02  0.10998806144E+03  0.00000000000E+00 0. -1.
<mgrwt>
<rscale>  0 0.14962737E+03</rscale>
<asrwt>0</asrwt>
<pdfrwt beam="2">  1        1 0.23623651E-01 0.15725966E+03</pdfrwt>
<pdfrwt beam="1">  1       -1 0.22728947E-01 0.15725966E+03</pdfrwt>
<totfact> 0.32643675E+03</totfact>
</mgrwt>
</event>
<event>
 7    1  0.7800420E-006  0.2233582E+03  0.7546771E-02  0.1134639E+00
         -2   -1    0    0    0  501 -0.00000000000E+00  0.00000000000E+00  0.55245066628E+02  0.55245066628E+02  0.00000000000E+00 0.  1.
          2   -1    0    0  501    0  0.00000000000E+00 -0.00000000000E+00 -0.83794401536E+03  0.83794401536E+03  0.00000000000E+00 0. -1.
         23    2    1    2    0    0 -0.18199026117E+03  0.33814110776E+02 -0.42960938699E+03  0.48420356846E+03  0.12500008429E+03 0.  0.
          5    1    3    3  502    0 -0.19281218491E+03  0.49359945448E+02 -0.41337474514E+03  0.45881773373E+03  0.47000000000E+01 0.  1.
         -5    1    3    3    0  502  0.10821923741E+02 -0.15545834672E+02 -0.16234641849E+02  0.25385834732E+02  0.47000000000E+01 0.  1.
        -11    1    1    2    0    0  0.88545661598E+02  0.29396035538E+02 -0.14933460359E+03  0.17608317615E+03  0.00000000000E+00 0.  1.
         11    1    1    2    0    0  0.93444599567E+02 -0.63210146314E+02 -0.20375495815E+03  0.23290233738E+03  0.00000000000E+00 0. -1.
<mgrwt>
<rscale>  0 0.21898968E+03</rscale>
<asrwt>0</asrwt>
<pdfrwt beam="2">  1        2 0.12891446E+00 0.22335817E+03</pdfrwt>
<pdfrwt beam="1">  1       -2 0.84992412E-02 0.22335817E+03</pdfrwt>
<totfact> 0.28550357E+03</totfact>
</mgrwt>
</event>
<event>
 7    1  0.7800420E-006  0.1972015E+03  0.7546771E-02  0.1156150E+00
         -3   -1    0    0    0  501 -0.00000000000E+00  0.00000000000E+00  0.27267911229E+02  0.27267911229E+02  0.00000000000E+00 0.  1.
          3   -1    0    0  501    0  0.00000000000E+00 -0.00000000000E+00 -0.13345429679E+04  0.13345429679E+04  0.00000000000E+00 0. -1.
         23    2    1    2    0    0  0.12851002021E+03  0.82143788274E+02 -0.79297110703E+03  0.81712398987E+03  0.12500404388E+03 0.  0.
          5    1    3    3  502    0  0.83580087373E+02  0.29202412354E+02 -0.18461980004E+03  0.20480471786E+03  0.47000000000E+01 0. -1.
         -5    1    3    3    0  502  0.44929932837E+02  0.52941375920E+02 -0.60835130700E+03  0.61231927201E+03  0.47000000000E+01 0. -1.
        -11    1    1    2    0    0 -0.11910238620E+03 -0.10056291279E+03 -0.47950463304E+03  0.50420528650E+03  0.00000000000E+00 0. -1.
         11    1    1    2    0    0 -0.94076340121E+01  0.18419124519E+02 -0.34799316555E+02  0.40481602715E+02  0.00000000000E+00 0.  1.
<mgrwt>
<rscale>  0 0.19258521E+03</rscale>
<asrwt>0</asrwt>
<pdfrwt beam="2">  1        3 0.20531426E+00 0.19720152E+03</pdfrwt>
<pdfrwt beam="1">  1       -3 0.41950642E-02 0.19720152E+03</pdfrwt>
<totfact> 0.11009177E+02</totfact>
</mgrwt>
</event>
<event>
 7    1  0.7800420E-006  0.1345701E+03  0.7546771E-02  0.1233594E+00
         -2   -1    0    0    0  501 -0.00000000000E+00  0.00000000000E+00  0.15589377557E+02  0.15589377557E+02  0.00000000000E+00 0.  1.
          2   -1    0    0  501    0  0.00000000000E+00 -0.00000000000E+00 -0.97426121234E+03  0.97426121234E+03  0.00000000000E+00 0. -1.
         23    2    1    2    0    0  0.32793695232E+02  0.37505746422E+02 -0.66700198830E+03  0.68044159299E+03  0.12500800618E+03 0.  0.
          5    1    3    3  502    0  0.32531220272E+02  0.82012832081E+02 -0.48767053030E+03  0.49560974672E+03  0.47000000000E+01 0. -1.
         -5    1    3    3    0  502  0.26247496086E+00 -0.44507085659E+02 -0.17933145799E+03  0.18483184626E+03  0.47000000000E+01 0. -1.
        -11    1    1    2    0    0 -0.19547489266E+02 -0.64201330845E+02 -0.14549272018E+03  0.16022498820E+03  0.00000000000E+00 0.  1.
         11    1    1    2    0    0 -0.13246205966E+02  0.26695584423E+02 -0.14617712630E+03  0.14918400870E+03  0.00000000000E+00 0. -1.
<mgrwt>
<rscale>  0 0.12594892E+03</rscale>
<asrwt>0</asrwt>
<pdfrwt beam="2">  1        2 0.14988633E+00 0.13457009E+03</pdfrwt>
<pdfrwt beam="1">  1       -2 0.23983659E-02 0.13457009E+03</pdfrwt>
<totfact> 0.15398065E+04</totfact>
</mgrwt>
</event>
<event>
 7    1  0.7800420E-006  0.1364816E+03  0.7546771E-02  0.1231558E+00
         -1   -1    0    0    0  501 -0.00000000000E+00  0.00000000000E+00  0.78965110226E+02  0.78965110226E+02  0.00000000000E+00 0.  1.
          1   -1    0    0  501    0  0.00000000000E+00 -0.00000000000E+00 -0.19741262966E+03  0.19741262966E+03  0.00000000000E+00 0. -1.
         23    2    1    2    0    0  0.44617210471E+02  0.31783130006E+02 -0.10519702458E+03  0.17231842148E+03  0.12500544619E+03 0.  0.
          5    1    3    3  502    0 -0.32788979467E+02  0.55779355711E+01 -0.79849280727E+02  0.86626948303E+02  0.47000000000E+01 0.  1.
         -5    1    3    3    0  502  0.77406189938E+02  0.26205194435E+02 -0.25347743852E+02  0.85691473172E+02  0.47000000000E+01 0.  1.
        -11    1    1    2    0    0 -0.27447486308E+01 -0.20038284732E+02  0.34176116785E+02  0.39712384197E+02  0.00000000000E+00 0.  1.
         11    1    1    2    0    0 -0.41872461840E+02 -0.11744845274E+02 -0.47426611641E+02  0.64346934215E+02  0.00000000000E+00 0. -1.
<mgrwt>
<rscale>  0 0.12727361E+03</rscale>
<asrwt>0</asrwt>
<pdfrwt beam="2">  1        1 0.30371173E-01 0.13648159E+03</pdfrwt>
<pdfrwt beam="1">  1       -1 0.12148479E-01 0.13648159E+03</pdfrwt>
<totfact> 0.63766088E+03</totfact>
</mgrwt>
</event>
<event>
 7    1  0.7800420E-006  0.2043004E+03  0.7546771E-02  0.1150591E+00
          1   -1    0    0  501    0  0.00000000000E+00  0.00000000000E+00  0.87413459702E+03  0.87413459702E+03  0.00000000000E+00 0. -1.
         -1   -1    0    0    0  501 -0.00000000000E+00 -0.00000000000E+00 -0.43241082029E+02  0.43241082029E+02  0.00000000000E+00 0.  1.
         23    2    1    2    0    0 -0.28689096025E+02 -0.15903012395E+03  0.41069262387E+03  0.45870151819E+03  0.12500002772E+03 0.  0.
          5    1    3    3  502    0  0.85612307539E+01 -0.10866288439E+02  0.18819868079E+03  0.18876494470E+03  0.47000000000E+01 0.  1.
         -5    1    3    3    0  502 -0.37250326779E+02 -0.14816383551E+03  0.22249394309E+03  0.26993657349E+03  0.47000000000E+01 0.  1.
        -11    1    1    2    0    0  0.39405059988E+02  0.12672757101E+03  0.23076233648E+03  0.26620272715E+03  0.00000000000E+00 0.  1.
         11    1    1    2    0    0 -0.10715963963E+02  0.32302552937E+02  0.18943855464E+03  0.19247143371E+03  0.00000000000E+00 0. -1.
<mgrwt>
<rscale>  0 0.19899295E+03</rscale>
<asrwt>0</asrwt>
<pdfrwt beam="1">  1        1 0.13448223E+00 0.20430040E+03</pdfrwt>
<pdfrwt beam="2">  1       -1 0.66524748E-02 0.20430040E+03</pdfrwt>
<totfact> 0.22756499E+03</totfact>
</mgrwt>
</event>
<event>
 7    1  0.7800420E-006  0.1576352E+03  0.7546771E-02  0.1199590E+00
         -2   -1    0    0    0  501 -0.00000000000E+00  0.00000000000E+00  0.43219063078E+02  0.43219063078E+02  0.00000000000E+00 0.  1.
          2   -1    0    0  501    0  0.00000000000E+00 -0.00000000000E+00 -0.49168174604E+03  0.49168174604E+03  0.00000000000E+00 0. -1.
         23    2    1    2    0    0 -0.15132078224E+01  0.96028958052E+02 -0.27640841563E+03  0.31819876469E+03  0.12499996416E+03 0.  0.
          5    1    3    3  502    0  0.28948306399E+02 -0.20912939574E+02 -0.51643832727E+02  0.62964521309E+02  0.47000000000E+01 0.  1.
         -5    1    3    3    0  502 -0.30461514222E+02  0.11694189763E+03 -0.22476458290E+03  0.25523424338E+03  0.47000000000E+01 0.  1.
        -11    1    1    2    0    0  0.19017685535E+01 -0.31011378641E+02  0.17656004066E+01  0.31119763393E+02  0.00000000000E+00 0.  1.
         11    1    1    2    0    0 -0.38856073104E+00 -0.65017579411E+02 -0.17381986774E+03  0.18558228103E+03  0.00000000000E+00 0. -1.
<mgrwt>
<rscale>  0 0.15072124E+03</rscale>
<asrwt>0</asrwt>
<pdfrwt beam="2">  1        2 0.75643340E-01 0.15763515E+03</pdfrwt>
<pdfrwt beam="1">  1       -2 0.66490871E-02 0.15763515E+03</pdfrwt>
<totfact> 0.77310345E+03</totfact>
</mgrwt>
</event>
<event>
 7    1  0.9398674E-006  0.1880177E+03  0.7546771E-02  0.1165113E+00
          1   -1    0    0  501    0  0.00000000000E+00  0.00000000000E+00  0.12823652463E+04  0.12823652463E+04  0.00000000000E+00 0. -1.
         -1   -1    0    0    0  501 -0.00000000000E+00 -0.00000000000E+00 -0.26800771639E+02  0.26800771639E+02  0.00000000000E+00 0.  1.
         23    2    1    2    0    0  0.12668754162E+03 -0.60630595057E+02  0.84267417096E+03  0.86339470729E+03  0.12499943966E+03 0.  0.
          5    1    3    3  502    0  0.95870054899E+02 -0.33302181473E+02  0.78929909674E+03  0.79581106856E+03  0.47000000000E+01 0. -1.
         -5    1    3    3    0  502  0.30817486721E+02 -0.27328413583E+02  0.53375074213E+02  0.67583638730E+02  0.47000000000E+01 0. -1.
        -11    1    1    2    0    0 -0.40270913510E+01  0.31021656764E+02  0.32989534395E+02  0.45462842330E+02  0.00000000000E+00 0.  1.
         11    1    1    2    0    0 -0.12266045027E+03  0.29608938293E+02  0.37990076929E+03  0.40030846830E+03  0.00000000000E+00 0. -1.
<mgrwt>
<rscale>  0 0.18280791E+03</rscale>
<asrwt>0</asrwt>
<pdfrwt beam="1">  1        1 0.19728691E+00 0.18801772E+03</pdfrwt>
<pdfrwt beam="2">  1       -1 0.41231966E-02 0.18801772E+03</pdfrwt>
<totfact> 0.23523414E+03</totfact>
</mgrwt>
</event>
<event>
 7    1  0.7800420E-006  0.1385859E+03  0.7546771E-02  0.1226924E+00
          2   -1    0    0  501    0  0.00000000000E+00  0.00000000000E+00  0.13434003427E+04  0.13434003427E+04  0.00000000000E+00 0. -1.
         -2   -1    0    0    0  501 -0.00000000000E+00 -0.00000000000E+00 -0.13508447608E+02  0.13508447608E+02  0.00000000000E+00 0.  1.
         23    2    1    2    0    0  0.51885482035E+01 -0.59614024404E+02  0.10018750587E+04  0.10114146955E+04  0.12500120086E+03 0.  0.
          5    1    3    3  502    0  0.39307600576E+02 -0.81972689248E+02  0.53041486851E+03  0.53816970556E+03  0.47000000000E+01 0.  1.
         -5    1    3    3    0  502 -0.34119052373E+02  0.22358664844E+02  0.47146019016E+03  0.47324498998E+03  0.47000000000E+01 0.  1.
        -11    1    1    2    0    0  0.39639763429E+02  0.14757968675E+02  0.17101736598E+03  0.17617050817E+03  0.00000000000E+00 0. -1.
         11    1    1    2    0    0 -0.44828311633E+02  0.44856055729E+02  0.15699947040E+03  0.16932358656E+03  0.00000000000E+00 0.  1.
<mgrwt>
<rscale>  0 0.13035916E+03</rscale>
<asrwt>0</asrwt>
<pdfrwt beam="1">  1        2 0.20667687E+00 0.13858591E+03</pdfrwt>
<pdfrwt beam="2">  1       -2 0.20782238E-02 0.13858591E+03</pdfrwt>
<totfact> 0.11769433E+04</totfact>
</mgrwt>
</event>
<event>
 7    1  0.7800420E-006  0.1293441E+03  0.7546771E-02  0.1232239E+00
          1   -1    0    0  501    0  0.00000000000E+00  0.00000000000E+00  0.66625986198E+03  0.66625986198E+03  0.00000000000E+00 0. -1.
         -1   -1    0    0    0  501 -0.00000000000E+00 -0.00000000000E+00 -0.34002913324E+02  0.34002913324E+02  0.00000000000E+00 0.  1.
         23    2    1    2    0    0 -0.66112829322E+01 -0.61154834738E+02  0.52141638568E+03  0.53721964597E+03  0.11378171158E+03 0.  0.
          5    1    3    3  502    0 -0.27468146585E+02 -0.26513080773E+02  0.47031770782E+03  0.47188799393E+03  0.47000000000E+01 0. -1.
         -5    1    3    3    0  502  0.20856863652E+02 -0.34641753965E+02  0.51098677861E+02  0.65331652041E+02  0.47000000000E+01 0.  1.
        -11    1    1    2    0    0  0.35345211678E+02  0.97036543728E+01 -0.95587522080E+00  0.36665495963E+02  0.00000000000E+00 0.  1.
         11    1    1    2    0    0 -0.28733928746E+02  0.51451180365E+02  0.11179643819E+03  0.12637763337E+03  0.00000000000E+00 0. -1.
<mgrwt>
<rscale>  0 0.12682862E+03</rscale>
<asrwt>0</asrwt>
<pdfrwt beam="1">  1        1 0.10250151E+00 0.12934412E+03</pdfrwt>
<pdfrwt beam="2">  1       -1 0.52312179E-02 0.12934412E+03</pdfrwt>
<totfact> 0.48168349E+03</totfact>
</mgrwt>
</event>
<event>
 7    1  0.7800420E-006  0.1262277E+03  0.7546771E-02  0.1248643E+00
          2   -1    0    0  501    0  0.00000000000E+00  0.00000000000E+00  0.62668708904E+02  0.62668708904E+02  0.00000000000E+00 0. -1.
         -2   -1    0    0    0  501 -0.00000000000E+00 -0.00000000000E+00 -0.31526450574E+03  0.31526450574E+03  0.00000000000E+00 0.  1.
         23    2    1    2    0    0  0.15411445066E+02 -0.77259945317E+01 -0.20102391021E+02  0.12781840413E+03  0.12504493064E+03 0.  0.
          5    1    3    3  502    0  0.47185054604E+02  0.32766526255E+02 -0.42375216030E+02  0.71538965287E+02  0.47000000000E+01 0. -1.
         -5    1    3    3    0  502 -0.31773609538E+02 -0.40492520787E+02  0.22272825010E+02  0.56279438844E+02  0.47000000000E+01 0. -1.
        -11    1    1    2    0    0  0.23336869405E+02 -0.10183390700E+02 -0.17431011527E+02  0.30856945452E+02  0.00000000000E+00 0. -1.
         11    1    1    2    0    0 -0.38748314471E+02  0.17909385232E+02 -0.21506239428E+03  0.21925786506E+03  0.00000000000E+00 0.  1.
<mgrwt>
<rscale>  0 0.11669990E+03</rscale>
<asrwt>0</asrwt>
<pdfrwt beam="1">  1        2 0.96413400E-02 0.12622772E+03</pdfrwt>
<pdfrwt beam="2">  1       -2 0.48502231E-01 0.12622772E+03</pdfrwt>
<totfact> 0.26225061E+03</totfact>
</mgrwt>
</event>
<event>
 7    1  0.7800420E-006  0.1267290E+03  0.7546771E-02  0.1247990E+00
          1   -1    0    0  501    0  0.00000000000E+00  0.00000000000E+00  0.16905730781E+03  0.16905730781E+03  0.00000000000E+00 0. -1.
         -1   -1    0    0    0  501 -0.00000000000E+00 -0.00000000000E+00 -0.71975492292E+02  0.71975492292E+02  0.00000000000E+00 0.  1.
         23    2    1    2    0    0 -0.10092346644E+02  0.18262420497E+02  0.70188926832E+02  0.14486796844E+03  0.12499948546E+03 0.  0.
          5    1    3    3  502    0 -0.53338880967E+02  0.73402734888E+01  0.82254916167E+02  0.98421933894E+02  0.47000000000E+01 0. -1.
         -5    1    3    3    0  502  0.43246534323E+02  0.10922147008E+02 -0.12065989336E+02  0.46446034544E+02  0.47000000000E+01 0. -1.
        -11    1    1    2    0    0  0.33830296730E+02 -0.44259860309E+02  0.24563308318E+02  0.60883333737E+02  0.00000000000E+00 0. -1.
         11    1    1    2    0    0 -0.23737950086E+02  0.25997439812E+02  0.23295803644E+01  0.35281497924E+02  0.00000000000E+00 0.  1.
<mgrwt>
<rscale>  0 0.11708205E+03</rscale>
<asrwt>0</asrwt>
<pdfrwt beam="1">  1        1 0.26008817E-01 0.12672901E+03</pdfrwt>
<pdfrwt beam="2">  1       -1 0.11073153E-01 0.12672901E+03</pdfrwt>
<totfact> 0.88736877E+03</totfact>
</mgrwt>
</event>
<event>
 7    1  0.7800420E-006  0.1287896E+03  0.7546771E-02  0.1243944E+00
          2   -1    0    0  501    0  0.00000000000E+00  0.00000000000E+00  0.14317044996E+04  0.14317044996E+04  0.00000000000E+00 0. -1.
         -2   -1    0    0    0  501 -0.00000000000E+00 -0.00000000000E+00 -0.13554666212E+02  0.13554666212E+02  0.00000000000E+00 0.  1.
         23    2    1    2    0    0  0.64865634702E+01  0.30332557665E+02  0.12032905886E+04  0.12101632114E+04  0.12499847227E+03 0.  0.
          5    1    3    3  502    0  0.25745223528E+02  0.67381246421E+02  0.45614372483E+03  0.46183572469E+03  0.47000000000E+01 0. -1.
         -5    1    3    3    0  502 -0.19258660058E+02 -0.37048688756E+02  0.74714686380E+03  0.74832748674E+03  0.47000000000E+01 0. -1.
        -11    1    1    2    0    0 -0.11964140174E+02  0.74994792909E+01 -0.25525353878E+01  0.14349155956E+02  0.00000000000E+00 0.  1.
         11    1    1    2    0    0  0.54775767035E+01 -0.37832036956E+02  0.21741178017E+03  0.22074679845E+03  0.00000000000E+00 0. -1.
<mgrwt>
<rscale>  0 0.11948798E+03</rscale>
<asrwt>0</asrwt>
<pdfrwt beam="1">  1        2 0.22026211E+00 0.12878959E+03</pdfrwt>
<pdfrwt beam="2">  1       -2 0.20853344E-02 0.12878959E+03</pdfrwt>
<totfact> 0.10478992E+04</totfact>
</mgrwt>
</event>
<event>
 7    1  0.7800420E-006  0.1297936E+03  0.7546771E-02  0.1240375E+00
         -2   -1    0    0    0  501 -0.00000000000E+00  0.00000000000E+00  0.87808721857E+03  0.87808721857E+03  0.00000000000E+00 0.  1.
          2   -1    0    0  501    0  0.00000000000E+00 -0.00000000000E+00 -0.15082549703E+02  0.15082549703E+02  0.00000000000E+00 0. -1.
         23    2    1    2    0    0 -0.13391013939E+01 -0.34934227438E+02  0.47036398243E+03  0.48794329820E+03  0.12499677137E+03 0.  0.
          5    1    3    3  502    0  0.25518381153E+02  0.11258196770E+02  0.20597815628E+02  0.34989923976E+02  0.47000000000E+01 0. -1.
         -5    1    3    3    0  502 -0.26857482547E+02 -0.46192424208E+02  0.44976616680E+03  0.45295337423E+03  0.47000000000E+01 0. -1.
        -11    1    1    2    0    0  0.36922657711E+02 -0.12647798234E+02  0.19414151469E+03  0.19802569828E+03  0.00000000000E+00 0.  1.
         11    1    1    2    0    0 -0.35583556317E+02  0.47582025672E+02  0.19849917174E+03  0.20720077179E+03  0.00000000000E+00 0. -1.
<mgrwt>
<rscale>  0 0.12166520E+03</rscale>
<asrwt>0</asrwt>
<pdfrwt beam="2">  1        2 0.23203929E-02 0.12979363E+03</pdfrwt>
<pdfrwt beam="1">  1       -2 0.13509030E+00 0.12979363E+03</pdfrwt>
<totfact> 0.17662967E+03</totfact>
</mgrwt>
</event>
<event>
 7    1  0.7800420E-006  0.1210445E+03  0.7546771E-02  0.1249568E+00
         -1   -1    0    0    0  501 -0.00000000000E+00  0.00000000000E+00  0.25719661184E+02  0.25719661184E+02  0.00000000000E+00 0.  1.
          1   -1    0    0  501    0  0.00000000000E+00 -0.00000000000E+00 -0.21277471815E+04  0.21277471815E+04  0.00000000000E+00 0. -1.
         23    2    1    2    0    0 -0.39294568154E+02 -0.24631899042E+02 -0.20157049058E+04  0.20193360377E+04  0.11180774788E+03 0.  0.
          5    1    3    3  502    0 -0.39448907652E+02 -0.41050147559E+02 -0.19650383773E+04  0.19658685727E+04  0.47000000000E+01 0. -1.
         -5    1    3    3    0  502  0.15433949804E+00  0.16418248518E+02 -0.50666528475E+02  0.53467464993E+02  0.47000000000E+01 0.  1.
        -11    1    1    2    0    0  0.49781880911E+02  0.73833941742E+01 -0.52692729819E+01  0.50601535691E+02  0.00000000000E+00 0.  1.
         11    1    1    2    0    0 -0.10487312756E+02  0.17248504867E+02 -0.81053341526E+02  0.83529269250E+02  0.00000000000E+00 0. -1.
<mgrwt>
<rscale>  0 0.11616121E+03</rscale>
<asrwt>0</asrwt>
<pdfrwt beam="2">  1        1 0.32734572E+00 0.12104448E+03</pdfrwt>
<pdfrwt beam="1">  1       -1 0.39568710E-02 0.12104448E+03</pdfrwt>
<totfact> 0.71392855E+02</totfact>
</mgrwt>
</event>
<event>
 7    1  0.7800420E-006  0.1623688E+03  0.7546771E-02  0.1193417E+00
         -3   -1    0    0    0  501 -0.00000000000E+00  0.00000000000E+00  0.30518437723E+02  0.30518437723E+02  0.00000000000E+00 0.  1.
          3   -1    0    0  501    0  0.00000000000E+00 -0.00000000000E+00 -0.89686006463E+03  0.89686006463E+03  0.00000000000E+00 0. -1.
         23    2    1    2    0    0  0.61309830958E+02  0.83547474675E+02 -0.65624254590E+03  0.67603100538E+03  0.12499826117E+03 0.  0.
          5    1    3    3  502    0  0.10484919584E+02  0.96578286598E+02 -0.53603851645E+03  0.54479049194E+03  0.47000000000E+01 0.  1.
         -5    1    3    3    0  502  0.50824911374E+02 -0.13030811922E+02 -0.12020402944E+03  0.13124051345E+03  0.47000000000E+01 0.  1.
        -11    1    1    2    0    0 -0.51864770579E+02 -0.19829147386E+02 -0.37190490772E+02  0.66830248520E+02  0.00000000000E+00 0.  1.
         11    1    1    2    0    0 -0.94450603788E+01 -0.63718327290E+02 -0.17290859024E+03  0.18451724845E+03  0.00000000000E+00 0. -1.
<mgrwt>
<rscale>  0 0.15588995E+03</rscale>
<asrwt>0</asrwt>
<pdfrwt beam="2">  1        3 0.13797849E+00 0.16236884E+03</pdfrwt>
<pdfrwt beam="1">  1       -3 0.46951435E-02 0.16236884E+03</pdfrwt>
<totfact> 0.25463843E+02</totfact>
</mgrwt>
</event>
<event>
 7    1  0.7800420E-006  0.1275405E+03  0.7546771E-02  0.1245818E+00
          4   -1    0    0  501    0  0.00000000000E+00  0.00000000000E+00  0.17499260096E+03  0.17499260096E+03  0.00000000000E+00 0. -1.
         -4   -1    0    0    0  501 -0.00000000000E+00 -0.00000000000E+00 -0.86883034914E+02  0.86883034914E+02  0.00000000000E+00 0.  1.
         23    2    1    2    0    0  0.24730376866E+02 -0.54894527498E+01  0.10569014305E+03  0.16564115639E+03  0.12499944287E+03 0.  0.
          5    1    3    3  502    0 -0.22016351124E+02  0.42966154767E+02  0.11647069234E+02  0.49885412638E+02  0.47000000000E+01 0.  1.
         -5    1    3    3    0  502  0.46746727990E+02 -0.48455607517E+02  0.94043073817E+02  0.11575574375E+03  0.47000000000E+01 0.  1.
        -11    1    1    2    0    0  0.33397286149E+02  0.12840404203E+02 -0.10026252298E+02  0.37158854091E+02  0.00000000000E+00 0.  1.
         11    1    1    2    0    0 -0.58127663015E+02 -0.73509514533E+01 -0.75543247040E+01  0.59075625401E+02  0.00000000000E+00 0. -1.
<mgrwt>
<rscale>  0 0.11836578E+03</rscale>
<asrwt>0</asrwt>
<pdfrwt beam="1">  1        4 0.26921939E-01 0.12754053E+03</pdfrwt>
<pdfrwt beam="2">  1       -4 0.13366621E-01 0.12754053E+03</pdfrwt>
<totfact> 0.98011844E+02</totfact>
</mgrwt>
</event>
<event>
 7    1  0.7800420E-006  0.1832846E+03  0.7546771E-02  0.1169914E+00
          1   -1    0    0  501    0  0.00000000000E+00  0.00000000000E+00  0.79130595869E+02  0.79130595869E+02  0.00000000000E+00 0. -1.
         -1   -1    0    0    0  501 -0.00000000000E+00 -0.00000000000E+00 -0.53754040085E+03  0.53754040085E+03  0.00000000000E+00 0.  1.
         23    2    1    2    0    0  0.10996901748E+03  0.76704047366E+02 -0.70951668588E+02  0.19653855072E+03  0.12496626326E+03 0.  0.
          5    1    3    3  502    0 -0.20226113527E+02  0.36047076037E+02  0.22666440559E+01  0.41661913476E+02  0.47000000000E+01 0.  1.
         -5    1    3    3    0  502  0.13019513101E+03  0.40656971329E+02 -0.73218312644E+02  0.15487663724E+03  0.47000000000E+01 0.  1.
        -11    1    1    2    0    0 -0.84728359797E+02 -0.25842303708E+02 -0.13571714301E+03  0.16206746287E+03  0.00000000000E+00 0. -1.
         11    1    1    2    0    0 -0.25240657685E+02 -0.50861743658E+02 -0.25174099339E+03  0.25806498313E+03  0.00000000000E+00 0.  1.
<mgrwt>
<rscale>  0 0.17783583E+03</rscale>
<asrwt>0</asrwt>
<pdfrwt beam="1">  1        1 0.12173938E-01 0.18328465E+03</pdfrwt>
<pdfrwt beam="2">  1       -1 0.82698521E-01 0.18328465E+03</pdfrwt>
<totfact> 0.74618924E+02</totfact>
</mgrwt>
</event>
<event>
 7    1  0.7800420E-006  0.3737424E+03  0.7546771E-02  0.1054293E+00
         -1   -1    0    0    0  501 -0.00000000000E+00  0.00000000000E+00  0.14442032441E+03  0.14442032441E+03  0.00000000000E+00 0.  1.
          1   -1    0    0  501    0  0.00000000000E+00 -0.00000000000E+00 -0.94046797542E+03  0.94046797542E+03  0.00000000000E+00 0. -1.
         23    2    1    2    0    0 -0.29240384531E+03  0.19635901639E+03 -0.41830029755E+03  0.56094432168E+03  0.12500608396E+03 0.  0.
          5    1    3    3  502    0 -0.42868234213E+02  0.74256534180E+02 -0.49239554625E+02  0.98986575416E+02  0.47000000000E+01 0.  1.
         -5    1    3    3    0  502 -0.24953561110E+03  0.12210248221E+03 -0.36906074292E+03  0.46195774626E+03  0.47000000000E+01 0.  1.
        -11    1    1    2    0    0  0.16603196053E+03 -0.60649893669E+02 -0.16618399373E+03  0.24261521241E+03  0.00000000000E+00 0.  1.
         11    1    1    2    0    0  0.12637188478E+03 -0.13570912272E+03 -0.21156335973E+03  0.28132876574E+03  0.00000000000E+00 0. -1.
<mgrwt>
<rscale>  0 0.37104680E+03</rscale>
<asrwt>0</asrwt>
<pdfrwt beam="2">  1        1 0.14468739E+00 0.37374242E+03</pdfrwt>
<pdfrwt beam="1">  1       -1 0.22218510E-01 0.37374242E+03</pdfrwt>
<totfact> 0.29980769E+02</totfact>
</mgrwt>
</event>
<event>
 7    1  0.7800420E-006  0.1894526E+03  0.7546771E-02  0.1164054E+00
          2   -1    0    0  501    0  0.00000000000E+00  0.00000000000E+00  0.12183316981E+04  0.12183316981E+04  0.00000000000E+00 0. -1.
         -2   -1    0    0    0  501 -0.00000000000E+00 -0.00000000000E+00 -0.27915296776E+02  0.27915296776E+02  0.00000000000E+00 0.  1.
         23    2    1    2    0    0 -0.10873518212E+03 -0.91875902622E+02  0.77964372232E+03  0.80233199894E+03  0.12501112531E+03 0.  0.
          5    1    3    3  502    0 -0.76022263356E+02 -0.10003053969E+03  0.73758552405E+03  0.74822455766E+03  0.47000000000E+01 0.  1.
         -5    1    3    3    0  502 -0.32712918762E+02  0.81546370725E+01  0.42058198267E+02  0.54107441274E+02  0.47000000000E+01 0.  1.
        -11    1    1    2    0    0  0.72596807128E+02  0.45091844956E+02  0.12077545061E+03  0.14795364260E+03  0.00000000000E+00 0.  1.
         11    1    1    2    0    0  0.36138374990E+02  0.46784057666E+02  0.28999722840E+03  0.29596135335E+03  0.00000000000E+00 0. -1.
<mgrwt>
<rscale>  0 0.18392861E+03</rscale>
<asrwt>0</asrwt>
<pdfrwt beam="1">  1        2 0.18743560E+00 0.18945264E+03</pdfrwt>
<pdfrwt beam="2">  1       -2 0.42946620E-02 0.18945264E+03</pdfrwt>
<totfact> 0.47703161E+03</totfact>
</mgrwt>
</event>
<event>
 7    1  0.7800420E-006  0.1321825E+03  0.7546771E-02  0.1244312E+00
          2   -1    0    0  501    0  0.00000000000E+00  0.00000000000E+00  0.18249862672E+03  0.18249862672E+03  0.00000000000E+00 0. -1.
         -2   -1    0    0    0  501 -0.00000000000E+00 -0.00000000000E+00 -0.66212567605E+02  0.66212567605E+02  0.00000000000E+00 0.  1.
         23    2    1    2    0    0  0.42588301551E+02  0.13834191940E+02  0.67080128741E+02  0.14822941075E+03  0.12436666049E+03 0.  0.
          5    1    3    3  502    0  0.46128664059E+02 -0.49331380935E+02  0.25331677782E+02  0.72285701851E+02  0.47000000000E+01 0.  1.
         -5    1    3    3    0  502 -0.35403625073E+01  0.63165572875E+02  0.41748450959E+02  0.75943708896E+02  0.47000000000E+01 0.  1.
        -11    1    1    2    0    0 -0.15106423988E+02 -0.63163649082E+01 -0.19877909238E+02  0.25753286917E+02  0.00000000000E+00 0.  1.
         11    1    1    2    0    0 -0.27481877564E+02 -0.75178270322E+01  0.69083839615E+02  0.74728496664E+02  0.00000000000E+00 0. -1.
<mgrwt>
<rscale>  0 0.11926633E+03</rscale>
<asrwt>0</asrwt>
<pdfrwt beam="1">  1        2 0.28076712E-01 0.13218250E+03</pdfrwt>
<pdfrwt beam="2">  1       -2 0.10186549E-01 0.13218250E+03</pdfrwt>
<totfact> 0.11409093E+04</totfact>
</mgrwt>
</event>
<event>
 7    1  0.7800420E-006  0.1682885E+03  0.7546771E-02  0.1186271E+00
         -1   -1    0    0    0  501 -0.00000000000E+00  0.00000000000E+00  0.33662370299E+02  0.33662370299E+02  0.00000000000E+00 0.  1.
          1   -1    0    0  501    0  0.00000000000E+00 -0.00000000000E+00 -0.97769113178E+03  0.97769113178E+03  0.00000000000E+00 0. -1.
         23    2    1    2    0    0  0.41937888969E+02  0.10458070976E+03 -0.75235130636E+03  0.77094325336E+03  0.12500040136E+03 0.  0.
          5    1    3    3  502    0 -0.25352942192E+02 -0.13964422451E+02 -0.19229331280E+03  0.19451628446E+03  0.47000000000E+01 0. -1.
         -5    1    3    3    0  502  0.67290831161E+02  0.11854513221E+03 -0.56005799356E+03  0.57642696890E+03  0.47000000000E+01 0. -1.
        -11    1    1    2    0    0 -0.46694654903E+02 -0.25818872669E+02 -0.12913609932E+03  0.13972522009E+03  0.00000000000E+00 0. -1.
         11    1    1    2    0    0  0.47567659341E+01 -0.78761837090E+02 -0.62541355807E+02  0.10068502863E+03  0.00000000000E+00 0.  1.
<mgrwt>
<rscale>  0 0.16216792E+03</rscale>
<asrwt>0</asrwt>
<pdfrwt beam="2">  1        1 0.15041400E+00 0.16828848E+03</pdfrwt>
<pdfrwt beam="1">  1       -1 0.51788269E-02 0.16828848E+03</pdfrwt>
<totfact> 0.27492564E+03</totfact>
</mgrwt>
</event>
<event>
 7    1  0.7800420E-006  0.1395412E+03  0.7546771E-02  0.1224672E+00
          2   -1    0    0  501    0  0.00000000000E+00  0.00000000000E+00  0.30133865750E+03  0.30133865750E+03  0.00000000000E+00 0. -1.
         -2   -1    0    0    0  501 -0.00000000000E+00 -0.00000000000E+00 -0.52401493416E+02  0.52401493416E+02  0.00000000000E+00 0.  1.
         23    2    1    2    0    0 -0.11010504901E+02  0.61040648247E+02  0.14835845787E+03  0.20367121686E+03  0.12499816239E+03 0.  0.
          5    1    3    3  502    0 -0.66688493641E+02  0.44988348822E+02  0.96943755300E+02  0.12606144694E+03  0.47000000000E+01 0. -1.
         -5    1    3    3    0  502  0.55677988740E+02  0.16052299425E+02  0.51414702568E+02  0.77609769921E+02  0.47000000000E+01 0. -1.
        -11    1    1    2    0    0  0.69570136626E+01 -0.19785528894E+02  0.10618621661E+03  0.10823760802E+03  0.00000000000E+00 0. -1.
         11    1    1    2    0    0  0.40534912384E+01 -0.41255119353E+02 -0.56075103983E+01  0.41831326024E+02  0.00000000000E+00 0.  1.
<mgrwt>
<rscale>  0 0.13189387E+03</rscale>
<asrwt>0</asrwt>
<pdfrwt beam="1">  1        2 0.46359792E-01 0.13954115E+03</pdfrwt>
<pdfrwt beam="2">  1       -2 0.80617684E-02 0.13954115E+03</pdfrwt>
<totfact> 0.96440689E+03</totfact>
</mgrwt>
</event>
<event>
 7    1  0.1119088E-005  0.2774009E+03  0.7546771E-02  0.1098661E+00
         -1   -1    0    0    0  501 -0.00000000000E+00  0.00000000000E+00  0.89230464340E+02  0.89230464340E+02  0.00000000000E+00 0.  1.
          1   -1    0    0  501    0  0.00000000000E+00 -0.00000000000E+00 -0.82877773300E+03  0.82877773300E+03  0.00000000000E+00 0. -1.
         23    2    1    2    0    0 -0.37364654828E+02  0.24480697042E+03 -0.37355422208E+03  0.46528920436E+03  0.12499886663E+03 0.  0.
          5    1    3    3  502    0  0.14027330132E+02  0.19362169168E+03 -0.32255474527E+03  0.37649671868E+03  0.47000000000E+01 0. -1.
         -5    1    3    3    0  502 -0.51391984960E+02  0.51185278747E+02 -0.50999476811E+02  0.88792485682E+02  0.47000000000E+01 0. -1.
        -11    1    1    2    0    0  0.61857763671E+02 -0.14046861504E+03 -0.16783287021E+03  0.22743281878E+03  0.00000000000E+00 0. -1.
         11    1    1    2    0    0 -0.24493108843E+02 -0.10433835539E+03 -0.19816017637E+03  0.22528617420E+03  0.00000000000E+00 0.  1.
<mgrwt>
<rscale>  0 0.27462558E+03</rscale>
<asrwt>0</asrwt>
<pdfrwt beam="2">  1        1 0.12750427E+00 0.27740095E+03</pdfrwt>
<pdfrwt beam="1">  1       -1 0.13727763E-01 0.27740095E+03</pdfrwt>
<totfact> 0.80920354E+02</totfact>
</mgrwt>
</event>
<event>
 7    1  0.7800420E-006  0.1387954E+03  0.7546771E-02  0.1226589E+00
         -1   -1    0    0    0  501 -0.00000000000E+00  0.00000000000E+00  0.37564113020E+03  0.37564113020E+03  0.00000000000E+00 0.  1.
          1   -1    0    0  501    0  0.00000000000E+00 -0.00000000000E+00 -0.40884683666E+02  0.40884683666E+02  0.00000000000E+00 0. -1.
         23    2    1    2    0    0 -0.24782689306E+02 -0.55000499800E+02  0.17744053358E+03  0.22527603626E+03  0.12499965155E+03 0.  0.
          5    1    3    3  502    0 -0.67686296645E+02 -0.56805198227E+02  0.82552360333E+02  0.12101755036E+03  0.47000000000E+01 0.  1.
         -5    1    3    3    0  502  0.42903607339E+02  0.18046984266E+01  0.94888173246E+02  0.10425848589E+03  0.47000000000E+01 0.  1.
        -11    1    1    2    0    0  0.35307158640E+02 -0.54156626020E+01  0.10408548012E+03  0.11004413671E+03  0.00000000000E+00 0.  1.
         11    1    1    2    0    0 -0.10524469334E+02  0.60416162402E+02  0.53230432839E+02  0.81205640902E+02  0.00000000000E+00 0. -1.
<mgrwt>
<rscale>  0 0.13058579E+03</rscale>
<asrwt>0</asrwt>
<pdfrwt beam="2">  1        1 0.62899516E-02 0.13879535E+03</pdfrwt>
<pdfrwt beam="1">  1       -1 0.57790941E-01 0.13879535E+03</pdfrwt>
<totfact> 0.36365588E+03</totfact>
</mgrwt>
</event>
<event>
 7    1  0.7800420E-006  0.1399107E+03  0.7546771E-02  0.1224106E+00
         -1   -1    0    0    0  501 -0.00000000000E+00  0.00000000000E+00  0.80218189443E+02  0.80218189443E+02  0.00000000000E+00 0.  1.
          1   -1    0    0  501    0  0.00000000000E+00 -0.00000000000E+00 -0.28956737756E+03  0.28956737756E+03  0.00000000000E+00 0. -1.
         23    2    1    2    0    0 -0.61822049922E+02 -0.32826958974E+00 -0.21647245403E+03  0.25775052963E+03  0.12551071091E+03 0.  0.
          5    1    3    3  502    0 -0.71706570235E+02  0.26050489502E+02 -0.55996629825E+02  0.94753220367E+02  0.47000000000E+01 0.  1.
         -5    1    3    3    0  502  0.98845203138E+01 -0.26378759091E+02 -0.16047582420E+03  0.16299730926E+03  0.47000000000E+01 0.  1.
        -11    1    1    2    0    0  0.27456238027E+02 -0.16205998681E+02  0.47041493255E+02  0.56827647211E+02  0.00000000000E+00 0.  1.
         11    1    1    2    0    0  0.34365811894E+02  0.16534268271E+02 -0.39918227346E+02  0.55207390165E+02  0.00000000000E+00 0. -1.
<mgrwt>
<rscale>  0 0.13228385E+03</rscale>
<asrwt>0</asrwt>
<pdfrwt beam="2">  1        1 0.44548827E-01 0.13991073E+03</pdfrwt>
<pdfrwt beam="1">  1       -1 0.12341260E-01 0.13991073E+03</pdfrwt>
<totfact> 0.38775946E+03</totfact>
</mgrwt>
</event>
<event>
 7    1  0.7800420E-006  0.1366985E+03  0.7546771E-02  0.1229441E+00
         -4   -1    0    0    0  501 -0.00000000000E+00  0.00000000000E+00  0.15529806663E+02  0.15529806663E+02  0.00000000000E+00 0. -1.
          4   -1    0    0  501    0  0.00000000000E+00 -0.00000000000E+00 -0.96616369925E+03  0.96616369925E+03  0.00000000000E+00 0.  1.
         23    2    1    2    0    0  0.25077826975E+02  0.49320343597E+02 -0.57560642473E+03  0.59161578651E+03  0.12500035584E+03 0.  0.
          5    1    3    3  502    0  0.16877749390E+02  0.90719641905E+02 -0.34650867483E+03  0.35861576037E+03  0.47000000000E+01 0. -1.
         -5    1    3    3    0  502  0.82000775850E+01 -0.41399298308E+02 -0.22909774990E+03  0.23300002615E+03  0.47000000000E+01 0. -1.
        -11    1    1    2    0    0 -0.12950938215E+02  0.23491865023E+02 -0.49659035743E+02  0.56441246919E+02  0.00000000000E+00 0.  1.
         11    1    1    2    0    0 -0.12126888760E+02 -0.72812208620E+02 -0.32536843212E+03  0.33363647249E+03  0.00000000000E+00 0. -1.
<mgrwt>
<rscale>  0 0.12867108E+03</rscale>
<asrwt>0</asrwt>
<pdfrwt beam="2">  1        4 0.14864060E+00 0.13669851E+03</pdfrwt>
<pdfrwt beam="1">  1       -4 0.23892005E-02 0.13669851E+03</pdfrwt>
<totfact> 0.41926930E+02</totfact>
</mgrwt>
</event>
<event>
 7    1  0.7800420E-006  0.1598442E+03  0.7546771E-02  0.1196374E+00
          2   -1    0    0  501    0  0.00000000000E+00  0.00000000000E+00  0.11461153492E+03  0.11461153492E+03  0.00000000000E+00 0. -1.
         -2   -1    0    0    0  501 -0.00000000000E+00 -0.00000000000E+00 -0.20682960236E+03  0.20682960236E+03  0.00000000000E+00 0.  1.
         23    2    1    2    0    0 -0.46600419031E+02  0.88057979921E+02 -0.43236658733E+01  0.15990264411E+03  0.12499741847E+03 0.  0.
          5    1    3    3  502    0  0.60928425235E+01 -0.95208907375E+01  0.38904568090E+02  0.40785113813E+02  0.47000000000E+01 0. -1.
         -5    1    3    3    0  502 -0.52693261555E+02  0.97578870659E+02 -0.43228233963E+02  0.11911753030E+03  0.47000000000E+01 0. -1.
        -11    1    1    2    0    0 -0.22237888097E+02 -0.48809966697E+02 -0.51430671968E+02  0.74310500840E+02  0.00000000000E+00 0. -1.
         11    1    1    2    0    0  0.68838307128E+02 -0.39248013224E+02 -0.36463729596E+02  0.87227992333E+02  0.00000000000E+00 0.  1.
<mgrwt>
<rscale>  0 0.15338542E+03</rscale>
<asrwt>0</asrwt>
<pdfrwt beam="1">  1        2 0.17632544E-01 0.15984418E+03</pdfrwt>
<pdfrwt beam="2">  1       -2 0.31819939E-01 0.15984418E+03</pdfrwt>
<totfact> 0.28688452E+03</totfact>
</mgrwt>
</event>
<event>
 7    1  0.7800420E-006  0.1263657E+03  0.7546771E-02  0.1248103E+00
         -1   -1    0    0    0  501 -0.00000000000E+00  0.00000000000E+00  0.22036175502E+02  0.22036175502E+02  0.00000000000E+00 0.  1.
          1   -1    0    0  501    0  0.00000000000E+00 -0.00000000000E+00 -0.69123028448E+03  0.69123028448E+03  0.00000000000E+00 0. -1.
         23    2    1    2    0    0  0.17912923543E+02 -0.41265722251E+01 -0.53710861747E+03  0.55177345814E+03  0.12502152105E+03 0.  0.
          5    1    3    3  502    0  0.50310461060E+02  0.39586755554E+02 -0.19394820655E+03  0.20429451910E+03  0.47000000000E+01 0. -1.
         -5    1    3    3    0  502 -0.32397537518E+02 -0.43713327779E+02 -0.34316041091E+03  0.34747893905E+03  0.47000000000E+01 0. -1.
        -11    1    1    2    0    0 -0.51820720340E+02 -0.14989875961E+02 -0.79211980399E+02  0.95836429799E+02  0.00000000000E+00 0. -1.
         11    1    1    2    0    0  0.33907796797E+02  0.19116448186E+02 -0.52873511114E+02  0.65656572043E+02  0.00000000000E+00 0.  1.
<mgrwt>
<rscale>  0 0.11701584E+03</rscale>
<asrwt>0</asrwt>
<pdfrwt beam="2">  1        1 0.10634312E+00 0.12636567E+03</pdfrwt>
<pdfrwt beam="1">  1       -1 0.33901809E-02 0.12636567E+03</pdfrwt>
<totfact> 0.86358183E+03</totfact>
</mgrwt>
</event>
<event>
 7    1  0.7800420E-006  0.1351208E+03  0.7546771E-02  0.1233180E+00
          1   -1    0    0  501    0  0.00000000000E+00  0.00000000000E+00  0.89113944282E+03  0.89113944282E+03  0.00000000000E+00 0. -1.
         -1   -1    0    0    0  501 -0.00000000000E+00 -0.00000000000E+00 -0.17172422087E+02  0.17172422087E+02  0.00000000000E+00 0.  1.
         23    2    1    2    0    0 -0.45774533095E+02  0.23261752331E+02  0.61482829950E+03  0.62950097300E+03  0.12498487967E+03 0.  0.
          5    1    3    3  502    0 -0.58130900798E+02  0.66234616870E+02  0.35457250365E+03  0.36539017015E+03  0.47000000000E+01 0.  1.
         -5    1    3    3    0  502  0.12356367703E+02 -0.42972864539E+02  0.26025579585E+03  0.26411080285E+03  0.47000000000E+01 0.  1.
        -11    1    1    2    0    0  0.66886255855E+01 -0.48040682923E+02  0.77978052497E+02  0.91832573737E+02  0.00000000000E+00 0.  1.
         11    1    1    2    0    0  0.39085907510E+02  0.24778930592E+02  0.18116066874E+03  0.18697831817E+03  0.00000000000E+00 0. -1.
<mgrwt>
<rscale>  0 0.12621645E+03</rscale>
<asrwt>0</asrwt>
<pdfrwt beam="1">  1        1 0.13709834E+00 0.13512082E+03</pdfrwt>
<pdfrwt beam="2">  1       -1 0.26419118E-02 0.13512082E+03</pdfrwt>
<totfact> 0.85240680E+03</totfact>
</mgrwt>
</event>
<event>
 7    1  0.7800420E-006  0.1457866E+03  0.7546771E-02  0.1217927E+00
          1   -1    0    0  501    0  0.00000000000E+00  0.00000000000E+00  0.72686451397E+02  0.72686451397E+02  0.00000000000E+00 0. -1.
         -1   -1    0    0    0  501 -0.00000000000E+00 -0.00000000000E+00 -0.27762812827E+03  0.27762812827E+03  0.00000000000E+00 0.  1.
         23    2    1    2    0    0  0.60453439947E+02 -0.44494601691E+02 -0.40915087909E+02  0.15141924035E+03  0.12497741375E+03 0.  0.
          5    1    3    3  502    0  0.39650413617E+02 -0.55895115616E+02  0.31135593744E+02  0.75418395949E+02  0.47000000000E+01 0.  1.
         -5    1    3    3    0  502  0.20803026331E+02  0.11400513925E+02 -0.72050681653E+02  0.76000844396E+02  0.47000000000E+01 0.  1.
        -11    1    1    2    0    0  0.11997588673E+02 -0.51165713875E+01 -0.66062678955E+02  0.67337946118E+02  0.00000000000E+00 0.  1.
         11    1    1    2    0    0 -0.72451028620E+02  0.49611173078E+02 -0.97963910011E+02  0.13155739321E+03  0.00000000000E+00 0. -1.
<mgrwt>
<rscale>  0 0.13663736E+03</rscale>
<asrwt>0</asrwt>
<pdfrwt beam="1">  1        1 0.11182531E-01 0.14578663E+03</pdfrwt>
<pdfrwt beam="2">  1       -1 0.42712020E-01 0.14578663E+03</pdfrwt>
<totfact> 0.29311976E+03</totfact>
</mgrwt>
</event>
<event>
 7    1  0.7800420E-006  0.1405915E+03  0.7546771E-02  0.1223365E+00
         -2   -1    0    0    0  501 -0.00000000000E+00  0.00000000000E+00  0.15414847380E+03  0.15414847380E+03  0.00000000000E+00 0.  1.
          2   -1    0    0  501    0  0.00000000000E+00 -0.00000000000E+00 -0.26386247280E+03  0.26386247280E+03  0.00000000000E+00 0. -1.
         23    2    1    2    0    0 -0.32222964821E+02 -0.55696199465E+02 -0.21987359418E+03  0.26097964300E+03  0.12500236216E+03 0.  0.
          5    1    3    3  502    0 -0.50509968600E+02 -0.62438248773E+02 -0.61294030032E+02  0.10113772766E+03  0.47000000000E+01 0.  1.
         -5    1    3    3    0  502  0.18287003778E+02  0.67420493072E+01 -0.15857956414E+03  0.15984191534E+03  0.47000000000E+01 0.  1.
        -11    1    1    2    0    0 -0.19127585274E+02  0.91962632478E+01 -0.57578547040E+01  0.21990649534E+02  0.00000000000E+00 0. -1.
         11    1    1    2    0    0  0.51350550095E+02  0.46499936218E+02  0.11591744988E+03  0.13504065406E+03  0.00000000000E+00 0.  1.
<mgrwt>
<rscale>  0 0.13279628E+03</rscale>
<asrwt>0</asrwt>
<pdfrwt beam="2">  1        2 0.40594226E-01 0.14059152E+03</pdfrwt>
<pdfrwt beam="1">  1       -2 0.23715150E-01 0.14059152E+03</pdfrwt>
<totfact> 0.19192073E+03</totfact>
</mgrwt>
</event>
<event>
 7    1  0.7800420E-006  0.1253125E+03  0.7546771E-02  0.1249701E+00
          2   -1    0    0  501    0  0.00000000000E+00  0.00000000000E+00  0.13570628590E+04  0.13570628590E+04  0.00000000000E+00 0. -1.
         -2   -1    0    0    0  501 -0.00000000000E+00 -0.00000000000E+00 -0.11425352151E+02  0.11425352151E+02  0.00000000000E+00 0.  1.
         23    2    1    2    0    0  0.11344161387E+02  0.38936646717E+01  0.10806813597E+04  0.10879225225E+04  0.12473717667E+03 0.  0.
          5    1    3    3  502    0 -0.19069890306E+02  0.15853510405E+02  0.10054259694E+04  0.10057427426E+04  0.47000000000E+01 0. -1.
         -5    1    3    3    0  502  0.30414051694E+02 -0.11959845733E+02  0.75255390319E+02  0.82179779888E+02  0.47000000000E+01 0.  1.
        -11    1    1    2    0    0 -0.25145085412E+01 -0.42690965012E+02  0.19894941353E+03  0.20349376008E+03  0.00000000000E+00 0. -1.
         11    1    1    2    0    0 -0.88296528461E+01  0.38797300341E+02  0.66006733607E+02  0.77071928512E+02  0.00000000000E+00 0.  1.
<mgrwt>
<rscale>  0 0.11608363E+03</rscale>
<asrwt>0</asrwt>
<pdfrwt beam="1">  1        2 0.20877877E+00 0.12531246E+03</pdfrwt>
<pdfrwt beam="2">  1       -2 0.17577476E-02 0.12531246E+03</pdfrwt>
<totfact> 0.14672887E+04</totfact>
</mgrwt>
</event>
<event>
 7    1  0.7800420E-006  0.1254980E+03  0.7546771E-02  0.1248942E+00
         -4   -1    0    0    0  501 -0.00000000000E+00  0.00000000000E+00  0.10369536049E+04  0.10369536049E+04  0.00000000000E+00 0. -1.
          4   -1    0    0  501    0  0.00000000000E+00 -0.00000000000E+00 -0.11599806802E+02  0.11599806802E+02  0.00000000000E+00 0.  1.
         23    2    1    2    0    0 -0.92148084757E+01 -0.64503731555E+01  0.55024673232E+03  0.56437683320E+03  0.12499289347E+03 0.  0.
          5    1    3    3  502    0 -0.22254763897E+02  0.31077261343E+02  0.49319569247E+03  0.49469703027E+03  0.47000000000E+01 0. -1.
         -5    1    3    3    0  502  0.13039955421E+02 -0.37527634498E+02  0.57051039847E+02  0.69679802928E+02  0.47000000000E+01 0. -1.
        -11    1    1    2    0    0 -0.12283441768E+02  0.46348061824E+02  0.24694561700E+03  0.25155747561E+03  0.00000000000E+00 0.  1.
         11    1    1    2    0    0  0.21498250244E+02 -0.39897688668E+02  0.22816144883E+03  0.23261910295E+03  0.00000000000E+00 0. -1.
<mgrwt>
<rscale>  0 0.11652495E+03</rscale>
<asrwt>0</asrwt>
<pdfrwt beam="2">  1        4 0.17845865E-02 0.12549798E+03</pdfrwt>
<pdfrwt beam="1">  1       -4 0.15953125E+00 0.12549798E+03</pdfrwt>
<totfact> 0.53952773E+02</totfact>
</mgrwt>
</event>
<event>
 7    1  0.7800420E-006  0.1303710E+03  0.7546771E-02  0.1240337E+00
         -3   -1    0    0    0  501 -0.00000000000E+00  0.00000000000E+00  0.64933032742E+03  0.64933032742E+03  0.00000000000E+00 0.  1.
          3   -1    0    0  501    0  0.00000000000E+00 -0.00000000000E+00 -0.23773607289E+02  0.23773607289E+02  0.00000000000E+00 0. -1.
         23    2    1    2    0    0 -0.36483020702E+02 -0.63743801820E+01  0.22071401904E+03  0.25634212339E+03  0.12499985000E+03 0.  0.
          5    1    3    3  502    0 -0.59095944330E+02  0.19984331317E+02  0.21084890505E+03  0.21993420584E+03  0.47000000000E+01 0. -1.
         -5    1    3    3    0  502  0.22612923628E+02 -0.26358711499E+02  0.98651139917E+01  0.36407917558E+02  0.47000000000E+01 0. -1.
        -11    1    1    2    0    0 -0.13739861631E+02  0.30037101213E+02  0.70662015347E+02  0.78000843968E+02  0.00000000000E+00 0. -1.
         11    1    1    2    0    0  0.50222882333E+02 -0.23662721031E+02  0.33418068574E+03  0.33876096734E+03  0.00000000000E+00 0.  1.
<mgrwt>
<rscale>  0 0.12168839E+03</rscale>
<asrwt>0</asrwt>
<pdfrwt beam="2">  1        3 0.36574785E-02 0.13037103E+03</pdfrwt>
<pdfrwt beam="1">  1       -3 0.99896960E-01 0.13037103E+03</pdfrwt>
<totfact> 0.77946883E+02</totfact>
</mgrwt>
</event>
<event>
 7    1  0.7800420E-006  0.1275146E+03  0.7546771E-02  0.1245700E+00
         -2   -1    0    0    0  501 -0.00000000000E+00  0.00000000000E+00  0.87250864838E+02  0.87250864838E+02  0.00000000000E+00 0.  1.
          2   -1    0    0  501    0  0.00000000000E+00 -0.00000000000E+00 -0.14339967063E+03  0.14339967063E+03  0.00000000000E+00 0. -1.
         23    2    1    2    0    0  0.18995473290E+02 -0.16568942500E+02 -0.44423681488E+02  0.13503124084E+03  0.12499845865E+03 0.  0.
          5    1    3    3  502    0  0.36421887342E+02  0.22258286710E+02  0.27738456743E+02  0.51122374626E+02  0.47000000000E+01 0.  1.
         -5    1    3    3    0  502 -0.17426414052E+02 -0.38827229211E+02 -0.72162138231E+02  0.83908866212E+02  0.47000000000E+01 0.  1.
        -11    1    1    2    0    0 -0.42277913051E+02 -0.75141714717E+00  0.24760711690E+02  0.49000810229E+02  0.00000000000E+00 0.  1.
         11    1    1    2    0    0  0.23282439761E+02  0.17320359648E+02 -0.36485835991E+02  0.46618484397E+02  0.00000000000E+00 0. -1.
<mgrwt>
<rscale>  0 0.11843603E+03</rscale>
<asrwt>0</asrwt>
<pdfrwt beam="2">  1        2 0.22061488E-01 0.12751460E+03</pdfrwt>
<pdfrwt beam="1">  1       -2 0.13423210E-01 0.12751460E+03</pdfrwt>
<totfact> 0.95643865E+03</totfact>
</mgrwt>
</event>
<event>
 7    1  0.7800420E-006  0.1715910E+03  0.7546771E-02  0.1185850E+00
          1   -1    0    0  501    0  0.00000000000E+00  0.00000000000E+00  0.41206574770E+03  0.41206574770E+03  0.00000000000E+00 0. -1.
         -1   -1    0    0    0  501 -0.00000000000E+00 -0.00000000000E+00 -0.63339878534E+02  0.63339878534E+02  0.00000000000E+00 0.  1.
         23    2    1    2    0    0 -0.11622477141E+03  0.17562110496E+02  0.25888325355E+03  0.31058656730E+03  0.12500740621E+03 0.  0.
          5    1    3    3  502    0 -0.15345394705E+02  0.14490412262E+02  0.18288570539E+03  0.18415950809E+03  0.47000000000E+01 0. -1.
         -5    1    3    3    0  502 -0.10087937670E+03  0.30716982342E+01  0.75997548158E+02  0.12642705921E+03  0.47000000000E+01 0. -1.
        -11    1    1    2    0    0  0.10460967900E+03 -0.40060394214E+02  0.80008346926E+02  0.13765665877E+03  0.00000000000E+00 0.  1.
         11    1    1    2    0    0  0.11615092403E+02  0.22498283718E+02  0.98342686936E+01  0.27162400161E+02  0.00000000000E+00 0. -1.
<mgrwt>
<rscale>  0 0.16254812E+03</rscale>
<asrwt>0</asrwt>
<pdfrwt beam="1">  1        1 0.63394729E-01 0.17159102E+03</pdfrwt>
<pdfrwt beam="2">  1       -1 0.97445969E-02 0.17159102E+03</pdfrwt>
<totfact> 0.36191298E+03</totfact>
</mgrwt>
</event>
<event>
 7    1  0.7800420E-006  0.1642204E+03  0.7546771E-02  0.1191517E+00
         -2   -1    0    0    0  501 -0.00000000000E+00  0.00000000000E+00  0.17606805274E+03  0.17606805274E+03  0.00000000000E+00 0.  1.
          2   -1    0    0  501    0  0.00000000000E+00 -0.00000000000E+00 -0.14208790599E+03  0.14208790599E+03  0.00000000000E+00 0. -1.
         23    2    1    2    0    0 -0.10472650655E+03  0.19469157879E+02 -0.26833841867E+02  0.16639825456E+03  0.12498653835E+03 0.  0.
          5    1    3    3  502    0 -0.14441322504E+02  0.21324297613E+02  0.44224863559E+02  0.51392665052E+02  0.47000000000E+01 0.  1.
         -5    1    3    3    0  502 -0.90285184042E+02 -0.18551397340E+01 -0.71058705426E+02  0.11500558951E+03  0.47000000000E+01 0.  1.
        -11    1    1    2    0    0 -0.11772005682E+02 -0.67921310585E+01  0.26284293321E+02  0.29590154401E+02  0.00000000000E+00 0.  1.
         11    1    1    2    0    0  0.11649851223E+03 -0.12677026820E+02  0.34529695297E+02  0.12216754977E+03  0.00000000000E+00 0. -1.
<mgrwt>
<rscale>  0 0.15752700E+03</rscale>
<asrwt>0</asrwt>
<pdfrwt beam="2">  1        2 0.21859678E-01 0.16422035E+03</pdfrwt>
<pdfrwt beam="1">  1       -2 0.27087393E-01 0.16422035E+03</pdfrwt>
<totfact> 0.30042804E+03</totfact>
</mgrwt>
</event>
<event>
 7    1  0.7800420E-006  0.1267180E+03  0.7546771E-02  0.1234561E+00
          1   -1    0    0  501    0  0.00000000000E+00  0.00000000000E+00  0.11323043563E+04  0.11323043563E+04  0.00000000000E+00 0. -1.
         -1   -1    0    0    0  501 -0.00000000000E+00 -0.00000000000E+00 -0.15356389771E+02  0.15356389771E+02  0.00000000000E+00 0.  1.
         23    2    1    2    0    0 -0.13597192948E+02  0.15736410815E+02  0.76478800364E+03  0.77521490616E+03  0.12499976776E+03 0.  0.
          5    1    3    3  502    0 -0.24476932013E+02 -0.41883813994E+02  0.15230432908E+03  0.15991270347E+03  0.47000000000E+01 0. -1.
         -5    1    3    3    0  502  0.10879739066E+02  0.57620224809E+02  0.61248367457E+03  0.61530220269E+03  0.47000000000E+01 0. -1.
        -11    1    1    2    0    0  0.37124179060E+02  0.43541366398E+02  0.17839712483E+03  0.18734884415E+03  0.00000000000E+00 0.  1.
         11    1    1    2    0    0 -0.23526986112E+02 -0.59277777213E+02  0.17376283803E+03  0.18509699572E+03  0.00000000000E+00 0. -1.
<mgrwt>
<rscale>  0 0.12532588E+03</rscale>
<asrwt>0</asrwt>
<pdfrwt beam="1">  1        1 0.17420060E+00 0.12671803E+03</pdfrwt>
<pdfrwt beam="2">  1       -1 0.23625224E-02 0.12671803E+03</pdfrwt>
<totfact> 0.66622432E+03</totfact>
</mgrwt>
</event>
<event>
 7    1  0.7800420E-006  0.1305449E+03  0.7546771E-02  0.1240157E+00
         -1   -1    0    0    0  501 -0.00000000000E+00  0.00000000000E+00  0.14622581294E+02  0.14622581294E+02  0.00000000000E+00 0.  1.
          1   -1    0    0  501    0  0.00000000000E+00 -0.00000000000E+00 -0.94248924671E+03  0.94248924671E+03  0.00000000000E+00 0. -1.
         23    2    1    2    0    0 -0.17690002136E+01  0.37573171993E+02 -0.62536767235E+03  0.63884793669E+03  0.12500835160E+03 0.  0.
          5    1    3    3  502    0  0.60465522046E+02  0.29935321884E+02 -0.31679004746E+03  0.32392935499E+03  0.47000000000E+01 0. -1.
         -5    1    3    3    0  502 -0.62234522259E+02  0.76378501098E+01 -0.30857762489E+03  0.31491858170E+03  0.47000000000E+01 0. -1.
        -11    1    1    2    0    0  0.41639404015E+02 -0.23087364544E+02 -0.22432511925E+03  0.22932209988E+03  0.00000000000E+00 0.  1.
         11    1    1    2    0    0 -0.39870403801E+02 -0.14485807449E+02 -0.78173873820E+02  0.88941791441E+02  0.00000000000E+00 0. -1.
<mgrwt>
<rscale>  0 0.12179990E+03</rscale>
<asrwt>0</asrwt>
<pdfrwt beam="2">  1        1 0.14499839E+00 0.13054486E+03</pdfrwt>
<pdfrwt beam="1">  1       -1 0.22496272E-02 0.13054486E+03</pdfrwt>
<totfact> 0.98124801E+03</totfact>
</mgrwt>
</event>
<event>
 7    1  0.7800420E-006  0.1267466E+03  0.7546771E-02  0.1248481E+00
          2   -1    0    0  501    0  0.00000000000E+00  0.00000000000E+00  0.10694352845E+03  0.10694352845E+03  0.00000000000E+00 0. -1.
         -2   -1    0    0    0  501 -0.00000000000E+00 -0.00000000000E+00 -0.11247837137E+03  0.11247837137E+03  0.00000000000E+00 0.  1.
         23    2    1    2    0    0  0.10811865797E+02  0.17932214789E+02 -0.14616211702E+02  0.12758655403E+03  0.12500493732E+03 0.  0.
          5    1    3    3  502    0  0.22972082683E+02  0.69299390444E+02 -0.14545500883E+02  0.74590774863E+02  0.47000000000E+01 0.  1.
         -5    1    3    3    0  502 -0.12160216886E+02 -0.51367175655E+02 -0.70710819193E-01  0.52995779167E+02  0.47000000000E+01 0.  1.
        -11    1    1    2    0    0 -0.33750325547E+02 -0.34163109647E+02 -0.19429301413E+02  0.51804442751E+02  0.00000000000E+00 0.  1.
         11    1    1    2    0    0  0.22938459750E+02  0.16230894859E+02  0.28510670189E+02  0.40030903040E+02  0.00000000000E+00 0. -1.
<mgrwt>
<rscale>  0 0.11679417E+03</rscale>
<asrwt>0</asrwt>
<pdfrwt beam="1">  1        2 0.16452851E-01 0.12674658E+03</pdfrwt>
<pdfrwt beam="2">  1       -2 0.17304365E-01 0.12674658E+03</pdfrwt>
<totfact> 0.88060085E+03</totfact>
</mgrwt>
</event>
<event>
 7    1  0.7800420E-006  0.1339145E+03  0.7546771E-02  0.1236146E+00
         -1   -1    0    0    0  501 -0.00000000000E+00  0.00000000000E+00  0.91187970235E+02  0.91187970235E+02  0.00000000000E+00 0.  1.
          1   -1    0    0  501    0  0.00000000000E+00 -0.00000000000E+00 -0.15172211429E+03  0.15172211429E+03  0.00000000000E+00 0. -1.
         23    2    1    2    0    0 -0.37655720751E+02 -0.29850838317E+02 -0.19483393129E+02  0.13532441919E+03  0.12499627982E+03 0.  0.
          5    1    3    3  502    0  0.30074383728E+02  0.75634062635E+00 -0.46940247772E+02  0.55951027414E+02  0.47000000000E+01 0. -1.
         -5    1    3    3    0  502 -0.67730104480E+02 -0.30607178943E+02  0.27456854644E+02  0.79373391780E+02  0.47000000000E+01 0. -1.
        -11    1    1    2    0    0  0.18971970068E+02 -0.30599375009E+02 -0.11877025459E+02  0.37912018318E+02  0.00000000000E+00 0.  1.
         11    1    1    2    0    0  0.18683750684E+02  0.60450213326E+02 -0.29173725472E+02  0.69673647018E+02  0.00000000000E+00 0. -1.
<mgrwt>
<rscale>  0 0.12431330E+03</rscale>
<asrwt>0</asrwt>
<pdfrwt beam="2">  1        1 0.23341864E-01 0.13391451E+03</pdfrwt>
<pdfrwt beam="1">  1       -1 0.14028919E-01 0.13391451E+03</pdfrwt>
<totfact> 0.70807286E+03</totfact>
</mgrwt>
</event>
<event>
 7    1  0.7800420E-006  0.1469540E+03  0.7546771E-02  0.1213873E+00
          2   -1    0    0  501    0  0.00000000000E+00  0.00000000000E+00  0.75576150159E+02  0.75576150159E+02  0.00000000000E+00 0. -1.
         -2   -1    0    0    0  501 -0.00000000000E+00 -0.00000000000E+00 -0.23868467162E+03  0.23868467162E+03  0.00000000000E+00 0.  1.
         23    2    1    2    0    0  0.43801453367E+02  0.63663679715E+02 -0.70729799441E+02  0.16308950491E+03  0.12499540252E+03 0.  0.
          5    1    3    3  502    0 -0.14410284547E+02 -0.70552694099E+00 -0.74562461525E+02  0.76090766442E+02  0.47000000000E+01 0. -1.
         -5    1    3    3    0  502  0.58211737914E+02  0.64369206656E+02  0.38326620841E+01  0.86998738469E+02  0.47000000000E+01 0. -1.
        -11    1    1    2    0    0 -0.17283041580E+02 -0.54312903450E+02 -0.10567620319E+03  0.12006687690E+03  0.00000000000E+00 0.  1.
         11    1    1    2    0    0 -0.26518411787E+02 -0.93507762656E+01  0.13297481169E+02  0.31104439971E+02  0.00000000000E+00 0. -1.
<mgrwt>
<rscale>  0 0.13959663E+03</rscale>
<asrwt>0</asrwt>
<pdfrwt beam="1">  1        2 0.11627100E-01 0.14695401E+03</pdfrwt>
<pdfrwt beam="2">  1       -2 0.36720718E-01 0.14695401E+03</pdfrwt>
<totfact> 0.35861470E+03</totfact>
</mgrwt>
</event>
<event>
 7    1  0.7800420E-006  0.1261041E+03  0.7546771E-02  0.1248601E+00
          2   -1    0    0  501    0  0.00000000000E+00  0.00000000000E+00  0.26380545637E+03  0.26380545637E+03  0.00000000000E+00 0. -1.
         -2   -1    0    0    0  501 -0.00000000000E+00 -0.00000000000E+00 -0.48014792136E+02  0.48014792136E+02  0.00000000000E+00 0.  1.
         23    2    1    2    0    0  0.14149831710E+01 -0.16574539303E+02  0.16007216878E+03  0.20377767001E+03  0.12500208818E+03 0.  0.
          5    1    3    3  502    0  0.52597652546E+02  0.33129011428E+01  0.13140225098E+03  0.14165496790E+03  0.47000000000E+01 0. -1.
         -5    1    3    3    0  502 -0.51182669375E+02 -0.19887440446E+02  0.28669917798E+02  0.62122702117E+02  0.47000000000E+01 0. -1.
        -11    1    1    2    0    0 -0.38222726784E+02 -0.65318881603E+01  0.18390846608E+01  0.38820415224E+02  0.00000000000E+00 0.  1.
         11    1    1    2    0    0  0.36807743613E+02  0.23106427463E+02  0.53879410799E+02  0.69222163272E+02  0.00000000000E+00 0. -1.
<mgrwt>
<rscale>  0 0.11672420E+03</rscale>
<asrwt>0</asrwt>
<pdfrwt beam="1">  1        2 0.40585454E-01 0.12610408E+03</pdfrwt>
<pdfrwt beam="2">  1       -2 0.73868912E-02 0.12610408E+03</pdfrwt>
<totfact> 0.12603046E+04</totfact>
</mgrwt>
</event>
<event>
 7    1  0.7800420E-006  0.1802432E+03  0.7546771E-02  0.1172960E+00
         -2   -1    0    0    0  501 -0.00000000000E+00  0.00000000000E+00  0.39877338931E+02  0.39877338931E+02  0.00000000000E+00 0. -1.
          2   -1    0    0  501    0  0.00000000000E+00 -0.00000000000E+00 -0.78809377917E+03  0.78809377917E+03  0.00000000000E+00 0.  1.
         23    2    1    2    0    0  0.48322261734E+02 -0.12052487451E+03 -0.51406920279E+03  0.54475200886E+03  0.12500527809E+03 0.  0.
          5    1    3    3  502    0  0.22974568689E+02 -0.10754843170E+02 -0.31430435396E+03  0.31536140280E+03  0.47000000000E+01 0.  1.
         -5    1    3    3    0  502  0.25347693045E+02 -0.10977003134E+03 -0.19976484883E+03  0.22939060606E+03  0.47000000000E+01 0.  1.
        -11    1    1    2    0    0 -0.66262383464E+02  0.88952478334E+02 -0.21556275097E+03  0.24242637330E+03  0.00000000000E+00 0.  1.
         11    1    1    2    0    0  0.17940121730E+02  0.31572396174E+02 -0.18584486482E+02  0.40792735942E+02  0.00000000000E+00 0. -1.
<mgrwt>
<rscale>  0 0.17477246E+03</rscale>
<asrwt>0</asrwt>
<pdfrwt beam="2">  1        2 0.12124519E+00 0.18024319E+03</pdfrwt>
<pdfrwt beam="1">  1       -2 0.61349755E-02 0.18024319E+03</pdfrwt>
<totfact> 0.50816958E+03</totfact>
</mgrwt>
</event>
<event>
 6    1  0.7800420E-006  0.1878211E+03  0.7546771E-02  0.1175711E+00
          4   -1    0    0  501    0  0.00000000000E+00  0.00000000000E+00  0.90534934455E+02  0.90534934455E+02  0.00000000000E+00 0. -1.
         -4   -1    0    0    0  501 -0.00000000000E+00 -0.00000000000E+00 -0.28893117915E+03  0.28893117915E+03  0.00000000000E+00 0.  1.
          5    1    1    2  502    0  0.10140519828E+03 -0.15899451341E+02  0.10163553534E+01  0.10275665316E+03  0.47000000000E+01 0. -1.
         -5    1    1    2    0  502 -0.13921706443E+02  0.52019810548E+02 -0.90213298864E+02  0.10516845483E+03  0.47000000000E+01 0.  1.
        -11    1    1    2    0    0 -0.27309250004E+02 -0.52101565994E+02 -0.87842224949E+02  0.10571955731E+03  0.00000000000E+00 0.  1.
         11    1    1    2    0    0 -0.60174241832E+02  0.15981206787E+02 -0.21357076233E+02  0.65821448295E+02  0.00000000000E+00 0. -1.
<mgrwt>
<rscale>  0 0.17206545E+03</rscale>
<asrwt>0</asrwt>
<pdfrwt beam="1">  1        4 0.13928452E-01 0.18782107E+03</pdfrwt>
<pdfrwt beam="2">  1       -4 0.44450950E-01 0.18782107E+03</pdfrwt>
<totfact> 0.37232710E+02</totfact>
</mgrwt>
</event>
<event>
 7    1  0.7800420E-006  0.1321891E+03  0.7546771E-02  0.1237972E+00
          3   -1    0    0  501    0  0.00000000000E+00  0.00000000000E+00  0.33569107707E+03  0.33569107707E+03  0.00000000000E+00 0. -1.
         -3   -1    0    0    0  501 -0.00000000000E+00 -0.00000000000E+00 -0.45912346638E+02  0.45912346638E+02  0.00000000000E+00 0.  1.
         23    2    1    2    0    0 -0.34918540085E+02  0.25094031414E+02  0.23042858098E+03  0.26565257364E+03  0.12499977637E+03 0.  0.
          5    1    3    3  502    0 -0.64861827028E+02 -0.89253585708E+01  0.58958437697E+02  0.88232114373E+02  0.47000000000E+01 0. -1.
         -5    1    3    3    0  502  0.29943286943E+02  0.34019389984E+02  0.17147014329E+03  0.17742045927E+03  0.47000000000E+01 0. -1.
        -11    1    1    2    0    0 -0.19532630450E+02  0.20675012615E+02  0.15560671273E+02  0.32420892791E+02  0.00000000000E+00 0. -1.
         11    1    1    2    0    0  0.54451170535E+02 -0.45769044029E+02  0.43789478179E+02  0.83529957279E+02  0.00000000000E+00 0.  1.
<mgrwt>
<rscale>  0 0.12316080E+03</rscale>
<asrwt>0</asrwt>
<pdfrwt beam="1">  1        3 0.51644780E-01 0.13218910E+03</pdfrwt>
<pdfrwt beam="2">  1       -3 0.70634381E-02 0.13218910E+03</pdfrwt>
<totfact> 0.11232797E+03</totfact>
</mgrwt>
</event>
<event>
 7    1  0.7800420E-006  0.1610628E+03  0.7546771E-02  0.1195021E+00
         -1   -1    0    0    0  501 -0.00000000000E+00  0.00000000000E+00  0.13667633483E+03  0.13667633483E+03  0.00000000000E+00 0.  1.
          1   -1    0    0  501    0  0.00000000000E+00 -0.00000000000E+00 -0.26803045237E+03  0.26803045237E+03  0.00000000000E+00 0. -1.
         23    2    1    2    0    0  0.99141211892E+02 -0.22082370653E+02 -0.19601915765E+03  0.25370206674E+03  0.12499847005E+03 0.  0.
          5    1    3    3  502    0 -0.25376706962E+02 -0.10438350357E+02 -0.10160474470E+02  0.29635479680E+02  0.47000000000E+01 0. -1.
         -5    1    3    3    0  502  0.12451791885E+03 -0.11644020296E+02 -0.18585868318E+03  0.22406658706E+03  0.47000000000E+01 0. -1.
        -11    1    1    2    0    0 -0.74056128538E+02 -0.19756363339E+02  0.92904257081E+01  0.77207098613E+02  0.00000000000E+00 0.  1.
         11    1    1    2    0    0 -0.25085083354E+02  0.41838733992E+02  0.55374614402E+02  0.73797621839E+02  0.00000000000E+00 0. -1.
<mgrwt>
<rscale>  0 0.15452417E+03</rscale>
<asrwt>0</asrwt>
<pdfrwt beam="2">  1        1 0.41235453E-01 0.16106281E+03</pdfrwt>
<pdfrwt beam="1">  1       -1 0.21027129E-01 0.16106281E+03</pdfrwt>
<totfact> 0.18483117E+03</totfact>
</mgrwt>
</event>
<event>
 7    1  0.7800420E-006  0.1435001E+03  0.7546771E-02  0.1218814E+00
         -2   -1    0    0    0  501 -0.00000000000E+00  0.00000000000E+00  0.60330764648E+02  0.60330764648E+02  0.00000000000E+00 0.  1.
          2   -1    0    0  501    0  0.00000000000E+00 -0.00000000000E+00 -0.27873463907E+03  0.27873463907E+03  0.00000000000E+00 0. -1.
         23    2    1    2    0    0  0.53515477356E+02  0.45953262136E+02 -0.11664976632E+03  0.18493091142E+03  0.12496665714E+03 0.  0.
          5    1    3    3  502    0  0.14152890142E+02 -0.38677588663E+02 -0.67826810925E+02  0.79491046316E+02  0.47000000000E+01 0. -1.
         -5    1    3    3    0  502  0.39362587214E+02  0.84630850799E+02 -0.48822955392E+02  0.10543986510E+03  0.47000000000E+01 0. -1.
        -11    1    1    2    0    0  0.88999515155E+01 -0.38333476280E+02 -0.63338870881E+01  0.39859536705E+02  0.00000000000E+00 0.  1.
         11    1    1    2    0    0 -0.62415428872E+02 -0.76197858564E+01 -0.95420221017E+02  0.11427495560E+03  0.00000000000E+00 0. -1.
<mgrwt>
<rscale>  0 0.13600083E+03</rscale>
<asrwt>0</asrwt>
<pdfrwt beam="2">  1        2 0.42882252E-01 0.14350008E+03</pdfrwt>
<pdfrwt beam="1">  1       -2 0.92816561E-02 0.14350008E+03</pdfrwt>
<totfact> 0.84314773E+03</totfact>
</mgrwt>
</event>
<event>
 7    1  0.7800420E-006  0.1688227E+03  0.7546771E-02  0.1183829E+00
          1   -1    0    0  501    0  0.00000000000E+00  0.00000000000E+00  0.36674360994E+03  0.36674360994E+03  0.00000000000E+00 0. -1.
         -1   -1    0    0    0  501 -0.00000000000E+00 -0.00000000000E+00 -0.95319344286E+02  0.95319344286E+02  0.00000000000E+00 0.  1.
         23    2    1    2    0    0  0.62931106266E+02 -0.94426125466E+02  0.25981529469E+03  0.30984688984E+03  0.12499796191E+03 0.  0.
          5    1    3    3  502    0  0.44440117900E+02  0.21763815665E+02  0.59944782811E+02  0.77872040795E+02  0.47000000000E+01 0.  1.
         -5    1    3    3    0  502  0.18490988366E+02 -0.11618994113E+03  0.19987051188E+03  0.23197484904E+03  0.47000000000E+01 0.  1.
        -11    1    1    2    0    0  0.44705030402E+01  0.70703034558E+02  0.32250768746E+02  0.77839685109E+02  0.00000000000E+00 0. -1.
         11    1    1    2    0    0 -0.67401609306E+02  0.23723090908E+02 -0.20641797779E+02  0.74376379280E+02  0.00000000000E+00 0.  1.
<mgrwt>
<rscale>  0 0.16438856E+03</rscale>
<asrwt>0</asrwt>
<pdfrwt beam="1">  1        1 0.56422093E-01 0.16882271E+03</pdfrwt>
<pdfrwt beam="2">  1       -1 0.14664515E-01 0.16882271E+03</pdfrwt>
<totfact> 0.22233041E+03</totfact>
</mgrwt>
</event>
<event>
 7    1  0.7800420E-006  0.1305353E+03  0.7546771E-02  0.1238445E+00
          1   -1    0    0  501    0  0.00000000000E+00  0.00000000000E+00  0.30551361455E+03  0.30551361455E+03  0.00000000000E+00 0. -1.
         -1   -1    0    0    0  501 -0.00000000000E+00 -0.00000000000E+00 -0.95176120743E+02  0.95176120743E+02  0.00000000000E+00 0.  1.
         23    2    1    2    0    0 -0.75224809485E+01  0.36872528495E+02  0.25689310792E+03  0.28815540912E+03  0.12499319914E+03 0.  0.
          5    1    3    3  502    0 -0.11846540794E+02  0.68506260900E+02  0.24339689215E+03  0.25317500947E+03  0.47000000000E+01 0. -1.
         -5    1    3    3    0  502  0.43240598456E+01 -0.31633732405E+02  0.13496215766E+02  0.34980399646E+02  0.47000000000E+01 0. -1.
        -11    1    1    2    0    0 -0.13959060187E+02  0.26487619398E+02  0.17862939355E+01  0.29994002546E+02  0.00000000000E+00 0. -1.
         11    1    1    2    0    0  0.21481541135E+02 -0.63360147893E+02 -0.48341908050E+02  0.82540323627E+02  0.00000000000E+00 0.  1.
<mgrwt>
<rscale>  0 0.12286462E+03</rscale>
<asrwt>0</asrwt>
<pdfrwt beam="1">  1        1 0.47002094E-01 0.13053532E+03</pdfrwt>
<pdfrwt beam="2">  1       -1 0.14642480E-01 0.13053532E+03</pdfrwt>
<totfact> 0.27728662E+03</totfact>
</mgrwt>
</event>
<event>
 6    1  0.7800420E-006  0.4259487E+03  0.7546771E-02  0.1084752E+00
          1   -1    0    0  501    0  0.00000000000E+00  0.00000000000E+00  0.18403482902E+04  0.18403482902E+04  0.00000000000E+00 0. -1.
         -1   -1    0    0    0  501 -0.00000000000E+00 -0.00000000000E+00 -0.40712699124E+02  0.40712699124E+02  0.00000000000E+00 0.  1.
          5    1    1    2  502    0 -0.10985105767E+03  0.19855359468E+03  0.10244113218E+04  0.10492527966E+04  0.47000000000E+01 0. -1.
         -5    1    1    2    0  502  0.12073314213E+03 -0.14729676146E+03  0.56558128523E+03  0.59680575378E+03  0.47000000000E+01 0.  1.
        -11    1    1    2    0    0 -0.35124294305E+02 -0.22843614926E+02  0.18631066977E+03  0.19096390357E+03  0.00000000000E+00 0.  1.
         11    1    1    2    0    0  0.24242209846E+02 -0.28413218288E+02  0.23332314229E+02  0.44038535387E+02  0.00000000000E+00 0. -1.
<mgrwt>
<rscale>  0 0.30097967E+03</rscale>
<asrwt>0</asrwt>
<pdfrwt beam="1">  1        1 0.28313044E+00 0.42594866E+03</pdfrwt>
<pdfrwt beam="2">  1       -1 0.62634936E-02 0.42594866E+03</pdfrwt>
<totfact> 0.52701592E+02</totfact>
</mgrwt>
</event>
<event>
 7    1  0.7800420E-006  0.1272720E+03  0.7546771E-02  0.1245789E+00
          2   -1    0    0  501    0  0.00000000000E+00  0.00000000000E+00  0.54797054804E+03  0.54797054804E+03  0.00000000000E+00 0.  1.
         -2   -1    0    0    0  501 -0.00000000000E+00 -0.00000000000E+00 -0.22596924172E+02  0.22596924172E+02  0.00000000000E+00 0. -1.
         23    2    1    2    0    0  0.21282157787E+02 -0.12566574382E+02  0.29756781480E+03  0.32364297702E+03  0.12484920160E+03 0.  0.
          5    1    3    3  502    0  0.44831336767E+02  0.16021458998E+02  0.27683320382E+03  0.28093637829E+03  0.47000000000E+01 0. -1.
         -5    1    3    3    0  502 -0.23549178980E+02 -0.28588033380E+02  0.20734610972E+02  0.42706598732E+02  0.47000000000E+01 0. -1.
        -11    1    1    2    0    0 -0.31335247071E+02  0.47821772152E+02  0.15890658796E+03  0.16887901971E+03  0.00000000000E+00 0. -1.
         11    1    1    2    0    0  0.10053089284E+02 -0.35255197770E+02  0.68899221114E+02  0.78045475487E+02  0.00000000000E+00 0.  1.
<mgrwt>
<rscale>  0 0.11838260E+03</rscale>
<asrwt>0</asrwt>
<pdfrwt beam="1">  1        2 0.84303151E-01 0.12727204E+03</pdfrwt>
<pdfrwt beam="2">  1       -2 0.34764503E-02 0.12727204E+03</pdfrwt>
<totfact> 0.17875060E+04</totfact>
</mgrwt>
</event>
<event>
 7    1  0.7800420E-006  0.2122537E+03  0.7546771E-02  0.1143394E+00
         -2   -1    0    0    0  501 -0.00000000000E+00  0.00000000000E+00  0.13956892950E+04  0.13956892950E+04  0.00000000000E+00 0.  1.
          2   -1    0    0  501    0  0.00000000000E+00 -0.00000000000E+00 -0.31633607198E+02  0.31633607198E+02  0.00000000000E+00 0. -1.
         23    2    1    2    0    0  0.98028647140E+02 -0.14077302276E+03  0.53146966418E+03  0.57228633436E+03  0.12499993982E+03 0.  0.
          5    1    3    3  502    0 -0.20884882605E+02 -0.13677673277E+02  0.16038525934E+03  0.16238466208E+03  0.47000000000E+01 0.  1.
         -5    1    3    3    0  502  0.11891352974E+03 -0.12709534948E+03  0.37108440484E+03  0.40990167227E+03  0.47000000000E+01 0.  1.
        -11    1    1    2    0    0 -0.62513352328E+02  0.14592919007E+03  0.67655142573E+03  0.69492811095E+03  0.00000000000E+00 0.  1.
         11    1    1    2    0    0 -0.35515294811E+02 -0.51561673142E+01  0.15603459794E+03  0.16010845693E+03  0.00000000000E+00 0. -1.
<mgrwt>
<rscale>  0 0.20770850E+03</rscale>
<asrwt>0</asrwt>
<pdfrwt beam="2">  1        2 0.48667099E-02 0.21225373E+03</pdfrwt>
<pdfrwt beam="1">  1       -2 0.21472138E+00 0.21225373E+03</pdfrwt>
<totfact> 0.18991606E+02</totfact>
</mgrwt>
</event>
<event>
 7    1  0.7800420E-006  0.1442332E+03  0.7546771E-02  0.1219206E+00
         -2   -1    0    0    0  501 -0.00000000000E+00  0.00000000000E+00  0.89426014805E+02  0.89426014805E+02  0.00000000000E+00 0.  1.
          2   -1    0    0  501    0  0.00000000000E+00 -0.00000000000E+00 -0.18518163835E+03  0.18518163835E+03  0.00000000000E+00 0. -1.
         23    2    1    2    0    0  0.71707243288E+02  0.63229563499E+01 -0.50759472556E+02  0.15290439001E+03  0.12498527879E+03 0.  0.
          5    1    3    3  502    0  0.75075039655E+02  0.14166685199E+02 -0.86706930797E+02  0.11565957979E+03  0.47000000000E+01 0.  1.
         -5    1    3    3    0  502 -0.33677963671E+01 -0.78437288487E+01  0.35947458241E+02  0.37244810224E+02  0.47000000000E+01 0.  1.
        -11    1    1    2    0    0 -0.46603969864E+02  0.25302542851E+02 -0.58659623569E+02  0.79076545948E+02  0.00000000000E+00 0. -1.
         11    1    1    2    0    0 -0.25103273423E+02 -0.31625499201E+02  0.13663472576E+02  0.42626717198E+02  0.00000000000E+00 0.  1.
<mgrwt>
<rscale>  0 0.13572043E+03</rscale>
<asrwt>0</asrwt>
<pdfrwt beam="2">  1        2 0.28489483E-01 0.14423324E+03</pdfrwt>
<pdfrwt beam="1">  1       -2 0.13757849E-01 0.14423324E+03</pdfrwt>
<totfact> 0.69961419E+03</totfact>
</mgrwt>
</event>
<event>
 7    1  0.7800420E-006  0.1260384E+03  0.7546771E-02  0.1247207E+00
          1   -1    0    0  501    0  0.00000000000E+00  0.00000000000E+00  0.46547558153E+03  0.46547558153E+03  0.00000000000E+00 0. -1.
         -1   -1    0    0    0  501 -0.00000000000E+00 -0.00000000000E+00 -0.44061286776E+02  0.44061286776E+02  0.00000000000E+00 0.  1.
         23    2    1    2    0    0  0.13378256686E+02 -0.11684678536E+02  0.38888538377E+03  0.40880008869E+03  0.12478045255E+03 0.  0.
          5    1    3    3  502    0  0.41445521144E+02  0.44470277332E+02  0.15416446794E+03  0.16578332233E+03  0.47000000000E+01 0. -1.
         -5    1    3    3    0  502 -0.28067264457E+02 -0.56154955867E+02  0.23472091583E+03  0.24301676636E+03  0.47000000000E+01 0. -1.
        -11    1    1    2    0    0  0.37651666231E+02 -0.31259909418E+01 -0.11993965167E+01  0.37800242610E+02  0.00000000000E+00 0.  1.
         11    1    1    2    0    0 -0.51029922918E+02  0.14810669477E+02  0.33728307499E+02  0.62936537004E+02  0.00000000000E+00 0. -1.
<mgrwt>
<rscale>  0 0.11754284E+03</rscale>
<asrwt>0</asrwt>
<pdfrwt beam="1">  1        1 0.71611625E-01 0.12603837E+03</pdfrwt>
<pdfrwt beam="2">  1       -1 0.67786598E-02 0.12603837E+03</pdfrwt>
<totfact> 0.52830563E+03</totfact>
</mgrwt>
</event>
<event>
 6    1  0.7800420E-006  0.4769792E+03  0.7546771E-02  0.1056298E+00
         -2   -1    0    0    0  501 -0.00000000000E+00  0.00000000000E+00  0.11441887764E+03  0.11441887764E+03  0.00000000000E+00 0.  1.
          2   -1    0    0  501    0  0.00000000000E+00 -0.00000000000E+00 -0.96214098676E+03  0.96214098676E+03  0.00000000000E+00 0. -1.
          5    1    1    2  502    0 -0.24957543880E+03  0.24116164273E+00 -0.62464630400E+03  0.67267603860E+03  0.47000000000E+01 0. -1.
         -5    1    1    2    0  502  0.14497364222E+03  0.91727293939E+02 -0.11207752468E+03  0.20497491293E+03  0.47000000000E+01 0.  1.
        -11    1    1    2    0    0  0.11860978288E+03 -0.85587264463E+02 -0.11083467264E+03  0.18351508137E+03  0.00000000000E+00 0. -1.
         11    1    1    2    0    0 -0.14007986304E+02 -0.63811911183E+01 -0.16360780313E+00  0.15393831488E+02  0.00000000000E+00 0.  1.
<mgrwt>
<rscale>  0 0.36583372E+03</rscale>
<asrwt>0</asrwt>
<pdfrwt beam="2">  1        2 0.14802169E+00 0.47697924E+03</pdfrwt>
<pdfrwt beam="1">  1       -2 0.17602904E-01 0.47697924E+03</pdfrwt>
<totfact> 0.72033741E+02</totfact>
</mgrwt>
</event>
<event>
 7    1  0.7800420E-006  0.1606774E+03  0.7546771E-02  0.1195383E+00
         -1   -1    0    0    0  501 -0.00000000000E+00  0.00000000000E+00  0.29260474032E+02  0.29260474032E+02  0.00000000000E+00 0.  1.
          1   -1    0    0  501    0  0.00000000000E+00 -0.00000000000E+00 -0.76193113320E+03  0.76193113320E+03  0.00000000000E+00 0. -1.
         23    2    1    2    0    0  0.29673301464E+02  0.96495833130E+02 -0.43663855686E+03  0.46526387357E+03  0.12500116833E+03 0.  0.
          5    1    3    3  502    0  0.71486500596E+02  0.41877954948E+02 -0.31177875922E+03  0.32263317805E+03  0.47000000000E+01 0. -1.
         -5    1    3    3    0  502 -0.41813199132E+02  0.54617878182E+02 -0.12485979764E+03  0.14263069552E+03  0.47000000000E+01 0. -1.
        -11    1    1    2    0    0 -0.32315075902E+01 -0.58942697581E+02 -0.26251428784E+03  0.26906957382E+03  0.00000000000E+00 0. -1.
         11    1    1    2    0    0 -0.26441793874E+02 -0.37553135549E+02 -0.33517814474E+02  0.56858159836E+02  0.00000000000E+00 0.  1.
<mgrwt>
<rscale>  0 0.15421885E+03</rscale>
<asrwt>0</asrwt>
<pdfrwt beam="2">  1        1 0.11722018E+00 0.16067745E+03</pdfrwt>
<pdfrwt beam="1">  1       -1 0.45016111E-02 0.16067745E+03</pdfrwt>
<totfact> 0.50059885E+03</totfact>
</mgrwt>
</event>
<event>
 7    1  0.7800420E-006  0.1472271E+03  0.7546771E-02  0.1207533E+00
         -1   -1    0    0    0  501 -0.00000000000E+00  0.00000000000E+00  0.17262464570E+03  0.17262464570E+03  0.00000000000E+00 0.  1.
          1   -1    0    0  501    0  0.00000000000E+00 -0.00000000000E+00 -0.12487827904E+03  0.12487827904E+03  0.00000000000E+00 0. -1.
         23    2    1    2    0    0  0.88666451354E+02  0.39719182803E+02 -0.14089189650E+02  0.14789975126E+03  0.11061861544E+03 0.  0.
          5    1    3    3  502    0 -0.98731491178E+01  0.43420583054E+02 -0.19918491174E+02  0.49006758686E+02  0.47000000000E+01 0. -1.
         -5    1    3    3    0  502  0.98539600471E+02 -0.37014002509E+01  0.58293015239E+01  0.98892992579E+02  0.47000000000E+01 0.  1.
        -11    1    1    2    0    0 -0.10372713225E+03 -0.51886641605E+02  0.58699924009E+02  0.12998931733E+03  0.00000000000E+00 0.  1.
         11    1    1    2    0    0  0.15060680897E+02  0.12167458801E+02  0.31356323016E+01  0.19613856140E+02  0.00000000000E+00 0. -1.
<mgrwt>
<rscale>  0 0.14439620E+03</rscale>
<asrwt>0</asrwt>
<pdfrwt beam="2">  1        1 0.19212043E-01 0.14722714E+03</pdfrwt>
<pdfrwt beam="1">  1       -1 0.26557638E-01 0.14722714E+03</pdfrwt>
<totfact> 0.32753793E+03</totfact>
</mgrwt>
</event>
<event>
 7    1  0.7800420E-006  0.3420616E+03  0.7546771E-02  0.1067134E+00
          1   -1    0    0  501    0  0.00000000000E+00  0.00000000000E+00  0.23678375419E+04  0.23678375419E+04  0.00000000000E+00 0. -1.
         -1   -1    0    0    0  501 -0.00000000000E+00 -0.00000000000E+00 -0.76862313497E+02  0.76862313497E+02  0.00000000000E+00 0.  1.
         23    2    1    2    0    0 -0.68683553015E+02 -0.31091559632E+03  0.19090054171E+04  0.19394091408E+04  0.12498077570E+03 0.  0.
          5    1    3    3  502    0 -0.34556273284E+02 -0.57370537804E+02  0.72328598325E+03  0.72639535943E+03  0.47000000000E+01 0.  1.
         -5    1    3    3    0  502 -0.34127279731E+02 -0.25354505851E+03  0.11857194339E+04  0.12130137814E+04  0.47000000000E+01 0.  1.
        -11    1    1    2    0    0  0.42601624482E+02  0.82809727068E+02  0.63601045257E+02  0.11277163767E+03  0.00000000000E+00 0.  1.
         11    1    1    2    0    0  0.26081928533E+02  0.22810586925E+03  0.31836876606E+03  0.39251907697E+03  0.00000000000E+00 0. -1.
<mgrwt>
<rscale>  0 0.33920654E+03</rscale>
<asrwt>0</asrwt>
<pdfrwt beam="1">  1        1 0.36428264E+00 0.34206159E+03</pdfrwt>
<pdfrwt beam="2">  1       -1 0.11824973E-01 0.34206159E+03</pdfrwt>
<totfact> 0.89499736E+01</totfact>
</mgrwt>
</event>
<event>
 7    1  0.7800420E-006  0.1814078E+03  0.7546771E-02  0.1172049E+00
         -1   -1    0    0    0  501 -0.00000000000E+00  0.00000000000E+00  0.65767176464E+02  0.65767176464E+02  0.00000000000E+00 0.  1.
          1   -1    0    0  501    0  0.00000000000E+00 -0.00000000000E+00 -0.49534919179E+03  0.49534919179E+03  0.00000000000E+00 0. -1.
         23    2    1    2    0    0  0.93633626015E+02 -0.92288251222E+02 -0.31901912753E+03  0.36699045200E+03  0.12499764356E+03 0.  0.
          5    1    3    3  502    0 -0.90920039289E+01 -0.70962952546E+02 -0.90218659212E+02  0.11523845556E+03  0.47000000000E+01 0.  1.
         -5    1    3    3    0  502  0.10272562994E+03 -0.21325298676E+02 -0.22880046832E+03  0.25175199644E+03  0.47000000000E+01 0.  1.
        -11    1    1    2    0    0 -0.42824386349E+02  0.32809253979E+02  0.54294307766E+01  0.54220419874E+02  0.00000000000E+00 0.  1.
         11    1    1    2    0    0 -0.50809239666E+02  0.59478997243E+02 -0.11599231857E+03  0.13990549638E+03  0.00000000000E+00 0. -1.
<mgrwt>
<rscale>  0 0.17568140E+03</rscale>
<asrwt>0</asrwt>
<pdfrwt beam="2">  1        1 0.76207566E-01 0.18140780E+03</pdfrwt>
<pdfrwt beam="1">  1       -1 0.10118027E-01 0.18140780E+03</pdfrwt>
<totfact> 0.26976932E+03</totfact>
</mgrwt>
</event>
<event>
 7    1  0.7800420E-006  0.1454470E+03  0.7546771E-02  0.1214423E+00
         -2   -1    0    0    0  501 -0.00000000000E+00  0.00000000000E+00  0.23302682006E+02  0.23302682006E+02  0.00000000000E+00 0.  1.
          2   -1    0    0  501    0  0.00000000000E+00 -0.00000000000E+00 -0.14213840794E+04  0.14213840794E+04  0.00000000000E+00 0. -1.
         23    2    1    2    0    0 -0.97918739059E+00  0.74362595563E+02 -0.12211320325E+04  0.12297634984E+04  0.12499626630E+03 0.  0.
          5    1    3    3  502    0  0.20326065064E+02 -0.29659430217E+02 -0.21539924382E+03  0.21843020615E+03  0.47000000000E+01 0. -1.
         -5    1    3    3    0  502 -0.21305252454E+02  0.10402202578E+03 -0.10057327887E+04  0.10113332922E+04  0.47000000000E+01 0. -1.
        -11    1    1    2    0    0  0.33696448272E+02 -0.19290687172E+02 -0.12952999477E+03  0.13522426107E+03  0.00000000000E+00 0. -1.
         11    1    1    2    0    0 -0.32717260881E+02 -0.55071908391E+02 -0.47419370051E+02  0.79699001934E+02  0.00000000000E+00 0.  1.
<mgrwt>
<rscale>  0 0.13918976E+03</rscale>
<asrwt>0</asrwt>
<pdfrwt beam="2">  1        2 0.21867449E+00 0.14544697E+03</pdfrwt>
<pdfrwt beam="1">  1       -2 0.35850278E-02 0.14544697E+03</pdfrwt>
<totfact> 0.48158929E+03</totfact>
</mgrwt>
</event>
<event>
 7    1  0.7800420E-006  0.1507527E+03  0.7546771E-02  0.1208542E+00
          2   -1    0    0  501    0  0.00000000000E+00  0.00000000000E+00  0.36510979501E+03  0.36510979501E+03  0.00000000000E+00 0.  1.
         -2   -1    0    0    0  501 -0.00000000000E+00 -0.00000000000E+00 -0.52031871955E+02  0.52031871955E+02  0.00000000000E+00 0. -1.
         23    2    1    2    0    0  0.17768622794E+02 -0.82373831418E+02  0.18671670560E+03  0.23997814589E+03  0.12500084118E+03 0.  0.
          5    1    3    3  502    0  0.26137333370E+02  0.17503669343E+02  0.10759465869E+03  0.11219732268E+03  0.47000000000E+01 0. -1.
         -5    1    3    3    0  502 -0.83687105763E+01 -0.99877500761E+02  0.79122046907E+02  0.12778082322E+03  0.47000000000E+01 0. -1.
        -11    1    1    2    0    0  0.19401299803E+02  0.54762333138E+02  0.20481976505E+02  0.61602231504E+02  0.00000000000E+00 0. -1.
         11    1    1    2    0    0 -0.37169922596E+02  0.27611498280E+02  0.10587924095E+03  0.11556128957E+03  0.00000000000E+00 0.  1.
<mgrwt>
<rscale>  0 0.14361789E+03</rscale>
<asrwt>0</asrwt>
<pdfrwt beam="1">  1        2 0.56170736E-01 0.15075272E+03</pdfrwt>
<pdfrwt beam="2">  1       -2 0.80049036E-02 0.15075272E+03</pdfrwt>
<totfact> 0.79921367E+03</totfact>
</mgrwt>
</event>
<event>
 7    1  0.7800420E-006  0.1653483E+03  0.7546771E-02  0.1189462E+00
          2   -1    0    0  501    0  0.00000000000E+00  0.00000000000E+00  0.35822049898E+03  0.35822049898E+03  0.00000000000E+00 0. -1.
         -2   -1    0    0    0  501 -0.00000000000E+00 -0.00000000000E+00 -0.75117626243E+02  0.75117626243E+02  0.00000000000E+00 0.  1.
         23    2    1    2    0    0  0.42119621779E+02  0.99735777070E+02  0.22544941639E+03  0.27958450419E+03  0.12497506899E+03 0.  0.
          5    1    3    3  502    0  0.47810448492E+02  0.87621861530E+02  0.23956627723E+03  0.25957180276E+03  0.47000000000E+01 0.  1.
         -5    1    3    3    0  502 -0.56908267136E+01  0.12113915539E+02 -0.14116860846E+02  0.20012701430E+02  0.47000000000E+01 0.  1.
        -11    1    1    2    0    0  0.18493473629E+02 -0.12618160584E+02  0.40459372746E+02  0.46240538344E+02  0.00000000000E+00 0. -1.
         11    1    1    2    0    0 -0.60613095408E+02 -0.87117616486E+02  0.17194083602E+02  0.10751308268E+03  0.00000000000E+00 0.  1.
<mgrwt>
<rscale>  0 0.15932364E+03</rscale>
<asrwt>0</asrwt>
<pdfrwt beam="1">  1        2 0.55110845E-01 0.16534829E+03</pdfrwt>
<pdfrwt beam="2">  1       -2 0.11556558E-01 0.16534829E+03</pdfrwt>
<totfact> 0.46030874E+03</totfact>
</mgrwt>
</event>
<event>
 7    1  0.7800420E-006  0.1633809E+03  0.7546771E-02  0.1191931E+00
          4   -1    0    0  501    0  0.00000000000E+00  0.00000000000E+00  0.63633303695E+03  0.63633303695E+03  0.00000000000E+00 0. -1.
         -4   -1    0    0    0  501 -0.00000000000E+00 -0.00000000000E+00 -0.38444107971E+02  0.38444107971E+02  0.00000000000E+00 0.  1.
         23    2    1    2    0    0  0.66091590601E+02 -0.81858624094E+02  0.40306716473E+03  0.43492119925E+03  0.12499751031E+03 0.  0.
          5    1    3    3  502    0  0.39946982574E+02 -0.67896925515E+02  0.39640131018E+03  0.40418045799E+03  0.47000000000E+01 0. -1.
         -5    1    3    3    0  502  0.26144608028E+02 -0.13961698579E+02  0.66658545536E+01  0.30740741258E+02  0.47000000000E+01 0. -1.
        -11    1    1    2    0    0  0.13848838762E+02  0.43128734757E+02  0.35919183721E+02  0.57810603318E+02  0.00000000000E+00 0. -1.
         11    1    1    2    0    0 -0.79940429363E+02  0.38729889337E+02  0.15890258053E+03  0.18204534236E+03  0.00000000000E+00 0.  1.
<mgrwt>
<rscale>  0 0.15716818E+03</rscale>
<asrwt>0</asrwt>
<pdfrwt beam="1">  1        4 0.97897383E-01 0.16338087E+03</pdfrwt>
<pdfrwt beam="2">  1       -4 0.59144786E-02 0.16338087E+03</pdfrwt>
<totfact> 0.28144986E+02</totfact>
</mgrwt>
</event>
<event>
 7    1  0.7800420E-006  0.1281452E+03  0.7546771E-02  0.1244823E+00
          3   -1    0    0  501    0  0.00000000000E+00  0.00000000000E+00  0.65207182848E+02  0.65207182848E+02  0.00000000000E+00 0. -1.
         -3   -1    0    0    0  501 -0.00000000000E+00 -0.00000000000E+00 -0.20964752883E+03  0.20964752883E+03  0.00000000000E+00 0.  1.
         23    2    1    2    0    0 -0.25486252668E+02  0.12114116179E+02 -0.41580746295E+02  0.13472252743E+03  0.12499960020E+03 0.  0.
          5    1    3    3  502    0 -0.68758019857E+02  0.34945390270E+02 -0.36030885472E+02  0.85259370768E+02  0.47000000000E+01 0.  1.
         -5    1    3    3    0  502  0.43271767189E+02 -0.22831274090E+02 -0.55498608226E+01  0.49463156667E+02  0.47000000000E+01 0.  1.
        -11    1    1    2    0    0  0.53703185333E+02  0.13531553096E+02 -0.47791412111E+02  0.73151583138E+02  0.00000000000E+00 0. -1.
         11    1    1    2    0    0 -0.28216932665E+02 -0.25645669276E+02 -0.55068187579E+02  0.66980601108E+02  0.00000000000E+00 0.  1.
<mgrwt>
<rscale>  0 0.11895960E+03</rscale>
<asrwt>0</asrwt>
<pdfrwt beam="1">  1        3 0.10031874E-01 0.12814523E+03</pdfrwt>
<pdfrwt beam="2">  1       -3 0.32253466E-01 0.12814523E+03</pdfrwt>
<totfact> 0.15647814E+03</totfact>
</mgrwt>
</event>
<event>
 7    1  0.7800420E-006  0.1280461E+03  0.7546771E-02  0.1244166E+00
         -2   -1    0    0    0  501 -0.00000000000E+00  0.00000000000E+00  0.10464601508E+03  0.10464601508E+03  0.00000000000E+00 0.  1.
          2   -1    0    0  501    0  0.00000000000E+00 -0.00000000000E+00 -0.12127514550E+03  0.12127514550E+03  0.00000000000E+00 0. -1.
         23    2    1    2    0    0 -0.21329266308E+02 -0.17750983178E+02 -0.17635868447E+02  0.12925492158E+03  0.12500310353E+03 0.  0.
          5    1    3    3  502    0 -0.72771302773E+02 -0.11562863291E+02 -0.22012689866E+02  0.77045511420E+02  0.47000000000E+01 0. -1.
         -5    1    3    3    0  502  0.51442036465E+02 -0.61881198873E+01  0.43768214189E+01  0.52209410159E+02  0.47000000000E+01 0. -1.
        -11    1    1    2    0    0  0.13427112004E+02  0.54231050232E+02 -0.11992756807E+02  0.57141231715E+02  0.00000000000E+00 0.  1.
         11    1    1    2    0    0  0.79021543038E+01 -0.36480067054E+02  0.12999494839E+02  0.39525007287E+02  0.00000000000E+00 0. -1.
<mgrwt>
<rscale>  0 0.11935419E+03</rscale>
<asrwt>0</asrwt>
<pdfrwt beam="2">  1        2 0.18657715E-01 0.12804613E+03</pdfrwt>
<pdfrwt beam="1">  1       -2 0.16099387E-01 0.12804613E+03</pdfrwt>
<totfact> 0.85951665E+03</totfact>
</mgrwt>
</event>
<event>
 7    1  0.7800420E-006  0.1255961E+03  0.7546771E-02  0.1252188E+00
         -2   -1    0    0    0  501 -0.00000000000E+00  0.00000000000E+00  0.43503812356E+02  0.43503812356E+02  0.00000000000E+00 0.  1.
          2   -1    0    0  501    0  0.00000000000E+00 -0.00000000000E+00 -0.33079988097E+03  0.33079988097E+03  0.00000000000E+00 0. -1.
         23    2    1    2    0    0 -0.91088118944E+01 -0.81476708455E+01 -0.24933310577E+03  0.27917985126E+03  0.12500014687E+03 0.  0.
          5    1    3    3  502    0  0.25062170848E+02 -0.58657406193E+02 -0.13952588166E+03  0.15348734594E+03  0.47000000000E+01 0.  1.
         -5    1    3    3    0  502 -0.34170982743E+02  0.50509735348E+02 -0.10980722411E+03  0.12569250532E+03  0.47000000000E+01 0.  1.
        -11    1    1    2    0    0 -0.21436385191E+02 -0.20707744418E+02 -0.43510285994E+02  0.52739684074E+02  0.00000000000E+00 0. -1.
         11    1    1    2    0    0  0.30545197086E+02  0.28855415264E+02  0.55473231517E+01  0.42384157998E+02  0.00000000000E+00 0.  1.
<mgrwt>
<rscale>  0 0.11465328E+03</rscale>
<asrwt>0</asrwt>
<pdfrwt beam="2">  1        2 0.50892291E-01 0.12559615E+03</pdfrwt>
<pdfrwt beam="1">  1       -2 0.66928940E-02 0.12559615E+03</pdfrwt>
<totfact> 0.11531782E+04</totfact>
</mgrwt>
</event>
<event>
 7    1  0.7800420E-006  0.1476019E+03  0.7546771E-02  0.1212707E+00
          1   -1    0    0  501    0  0.00000000000E+00  0.00000000000E+00  0.41418095755E+03  0.41418095755E+03  0.00000000000E+00 0. -1.
         -1   -1    0    0    0  501 -0.00000000000E+00 -0.00000000000E+00 -0.47474452892E+02  0.47474452892E+02  0.00000000000E+00 0.  1.
         23    2    1    2    0    0 -0.77384127623E+02  0.13145579968E+02  0.26592503443E+03  0.30414213384E+03  0.12500081663E+03 0.  0.
          5    1    3    3  502    0 -0.29401392613E+02 -0.48942478804E+02  0.56552032441E+02  0.80498636586E+02  0.47000000000E+01 0.  1.
         -5    1    3    3    0  502 -0.47982735010E+02  0.62088058772E+02  0.20937300199E+03  0.22364349725E+03  0.47000000000E+01 0.  1.
        -11    1    1    2    0    0  0.96266501732E+02  0.17099182486E+01  0.73287086164E+02  0.12100066188E+03  0.00000000000E+00 0.  1.
         11    1    1    2    0    0 -0.18882374108E+02 -0.14855498216E+02  0.27494384068E+02  0.36512614731E+02  0.00000000000E+00 0. -1.
<mgrwt>
<rscale>  0 0.14046292E+03</rscale>
<asrwt>0</asrwt>
<pdfrwt beam="1">  1        1 0.63720145E-01 0.14760188E+03</pdfrwt>
<pdfrwt beam="2">  1       -1 0.73037623E-02 0.14760188E+03</pdfrwt>
<totfact> 0.55309636E+03</totfact>
</mgrwt>
</event>
<event>
 7    1  0.7800420E-006  0.1525405E+03  0.7546771E-02  0.1206471E+00
         -2   -1    0    0    0  501 -0.00000000000E+00  0.00000000000E+00  0.59128366893E+02  0.59128366893E+02  0.00000000000E+00 0.  1.
          2   -1    0    0  501    0  0.00000000000E+00 -0.00000000000E+00 -0.33088097260E+03  0.33088097260E+03  0.00000000000E+00 0. -1.
         23    2    1    2    0    0 -0.86314498864E+02 -0.13952871060E+02 -0.17160642970E+03  0.22960260634E+03  0.12499485909E+03 0.  0.
          5    1    3    3  502    0 -0.94350834412E+02 -0.95918364688E+01 -0.49532258465E+02  0.10709630204E+03  0.47000000000E+01 0.  1.
         -5    1    3    3    0  502  0.80363355480E+01 -0.43610345910E+01 -0.12207417124E+03  0.12250630431E+03  0.47000000000E+01 0.  1.
        -11    1    1    2    0    0  0.61268466209E+02 -0.19781033690E+02 -0.15979481796E+02  0.66335948655E+02  0.00000000000E+00 0.  1.
         11    1    1    2    0    0  0.25046032655E+02  0.33733904750E+02 -0.84166694211E+02  0.94070784496E+02  0.00000000000E+00 0. -1.
<mgrwt>
<rscale>  0 0.14522116E+03</rscale>
<asrwt>0</asrwt>
<pdfrwt beam="2">  1        2 0.50904764E-01 0.15254045E+03</pdfrwt>
<pdfrwt beam="1">  1       -2 0.90966720E-02 0.15254045E+03</pdfrwt>
<totfact> 0.72810152E+03</totfact>
</mgrwt>
</event>
<event>
 7    1  0.7800420E-006  0.1255006E+03  0.7546771E-02  0.1249298E+00
          4   -1    0    0  501    0  0.00000000000E+00  0.00000000000E+00  0.30030391390E+03  0.30030391390E+03  0.00000000000E+00 0. -1.
         -4   -1    0    0    0  501 -0.00000000000E+00 -0.00000000000E+00 -0.47814990376E+02  0.47814990376E+02  0.00000000000E+00 0.  1.
         23    2    1    2    0    0 -0.10564628255E+02 -0.36920755958E+01  0.21346716064E+03  0.24762596781E+03  0.12500059387E+03 0.  0.
          5    1    3    3  502    0  0.21679802750E+02 -0.54747644608E+02  0.68126300810E+02  0.90169846952E+02  0.47000000000E+01 0.  1.
         -5    1    3    3    0  502 -0.32244431005E+02  0.51055569012E+02  0.14534085983E+03  0.15745612085E+03  0.47000000000E+01 0.  1.
        -11    1    1    2    0    0  0.33902439530E+02  0.85175473612E+01 -0.17544275642E+02  0.39111707032E+02  0.00000000000E+00 0.  1.
         11    1    1    2    0    0 -0.23337811275E+02 -0.48254717654E+01  0.56566038524E+02  0.61381229437E+02  0.00000000000E+00 0. -1.
<mgrwt>
<rscale>  0 0.11631767E+03</rscale>
<asrwt>0</asrwt>
<pdfrwt beam="1">  1        4 0.46200601E-01 0.12550056E+03</pdfrwt>
<pdfrwt beam="2">  1       -4 0.73561525E-02 0.12550056E+03</pdfrwt>
<totfact> 0.94010912E+02</totfact>
</mgrwt>
</event>
<event>
 7    1  0.7800420E-006  0.1540090E+03  0.7546771E-02  0.1204726E+00
         -2   -1    0    0    0  501 -0.00000000000E+00  0.00000000000E+00  0.61974062194E+02  0.61974062194E+02  0.00000000000E+00 0.  1.
          2   -1    0    0  501    0  0.00000000000E+00 -0.00000000000E+00 -0.32275204189E+03  0.32275204189E+03  0.00000000000E+00 0. -1.
         23    2    1    2    0    0 -0.50915615029E+00  0.89952911717E+02 -0.16807858216E+03  0.22796748927E+03  0.12500792301E+03 0.  0.
          5    1    3    3  502    0  0.61903137389E+01 -0.30318466917E+02 -0.20515054848E+02  0.37423079722E+02  0.47000000000E+01 0. -1.
         -5    1    3    3    0  502 -0.66994698892E+01  0.12027137863E+03 -0.14756352732E+03  0.19054440955E+03  0.47000000000E+01 0. -1.
        -11    1    1    2    0    0  0.39788804647E+02 -0.71018685086E+02 -0.48946515713E+02  0.94987178119E+02  0.00000000000E+00 0.  1.
         11    1    1    2    0    0 -0.39279648497E+02 -0.18934226630E+02 -0.43752881814E+02  0.61771436693E+02  0.00000000000E+00 0. -1.
<mgrwt>
<rscale>  0 0.14659087E+03</rscale>
<asrwt>0</asrwt>
<pdfrwt beam="2">  1        2 0.49654161E-01 0.15400898E+03</pdfrwt>
<pdfrwt beam="1">  1       -2 0.95344710E-02 0.15400898E+03</pdfrwt>
<totfact> 0.69497452E+03</totfact>
</mgrwt>
</event>
<event>
 7    1  0.7800420E-006  0.1279607E+03  0.7546771E-02  0.1245378E+00
         -3   -1    0    0    0  501 -0.00000000000E+00  0.00000000000E+00  0.22444582722E+03  0.22444582722E+03  0.00000000000E+00 0.  1.
          3   -1    0    0  501    0  0.00000000000E+00 -0.00000000000E+00 -0.81351343950E+02  0.81351343950E+02  0.00000000000E+00 0. -1.
         23    2    1    2    0    0 -0.12141933708E+02 -0.13520390632E+02 -0.72983806887E+01  0.12816867146E+03  0.12666378514E+03 0.  0.
          5    1    3    3  502    0  0.75573628990E+01  0.45979549028E+02  0.29487490235E+02  0.55342883401E+02  0.47000000000E+01 0. -1.
         -5    1    3    3    0  502 -0.19699296607E+02 -0.59499939661E+02 -0.36785870923E+02  0.72825788056E+02  0.47000000000E+01 0.  1.
        -11    1    1    2    0    0 -0.31548844687E+02 -0.10740672211E+01  0.11578941429E+03  0.12001529770E+03  0.00000000000E+00 0.  1.
         11    1    1    2    0    0  0.43690778396E+02  0.14594457853E+02  0.34603449672E+02  0.57613202011E+02  0.00000000000E+00 0. -1.
<mgrwt>
<rscale>  0 0.11862806E+03</rscale>
<asrwt>0</asrwt>
<pdfrwt beam="2">  1        3 0.12515591E-01 0.12796070E+03</pdfrwt>
<pdfrwt beam="1">  1       -3 0.34530127E-01 0.12796070E+03</pdfrwt>
<totfact> 0.95250228E+02</totfact>
</mgrwt>
</event>
<event>
 7    1  0.7800420E-006  0.1421496E+03  0.7546771E-02  0.1222318E+00
          2   -1    0    0  501    0  0.00000000000E+00  0.00000000000E+00  0.54464390187E+03  0.54464390187E+03  0.00000000000E+00 0. -1.
         -2   -1    0    0    0  501 -0.00000000000E+00 -0.00000000000E+00 -0.36176500977E+02  0.36176500977E+02  0.00000000000E+00 0.  1.
         23    2    1    2    0    0  0.18303627430E+02  0.65158166830E+02  0.40538189305E+03  0.42958234417E+03  0.12500360685E+03 0.  0.
          5    1    3    3  502    0 -0.74093773239E+01  0.46085059268E+02  0.39161945072E+03  0.39441933997E+03  0.47000000000E+01 0. -1.
         -5    1    3    3    0  502  0.25713004754E+02  0.19073107561E+02  0.13762442337E+02  0.35163004203E+02  0.47000000000E+01 0. -1.
        -11    1    1    2    0    0 -0.32441286533E+01 -0.54724463140E+02  0.92066814095E+01  0.55588256127E+02  0.00000000000E+00 0.  1.
         11    1    1    2    0    0 -0.15059498777E+02 -0.10433703690E+02  0.93878826432E+02  0.95649802553E+02  0.00000000000E+00 0. -1.
<mgrwt>
<rscale>  0 0.13352420E+03</rscale>
<asrwt>0</asrwt>
<pdfrwt beam="1">  1        2 0.83791364E-01 0.14214961E+03</pdfrwt>
<pdfrwt beam="2">  1       -2 0.55656159E-02 0.14214961E+03</pdfrwt>
<totfact> 0.89891158E+03</totfact>
</mgrwt>
</event>
<event>
 6    1  0.7800420E-006  0.1638315E+03  0.7546771E-02  0.1195499E+00
          2   -1    0    0  501    0  0.00000000000E+00  0.00000000000E+00  0.16098722043E+04  0.16098722043E+04  0.00000000000E+00 0. -1.
         -2   -1    0    0    0  501 -0.00000000000E+00 -0.00000000000E+00 -0.17701274827E+02  0.17701274827E+02  0.00000000000E+00 0.  1.
          5    1    1    2  502    0 -0.19461525467E+02 -0.69780746597E+02  0.75012576362E+03  0.75363044977E+03  0.47000000000E+01 0. -1.
         -5    1    1    2    0  502  0.85473248298E+02  0.64796190493E+01  0.52409887419E+03  0.53108321529E+03  0.47000000000E+01 0.  1.
        -11    1    1    2    0    0 -0.45236415139E+02  0.28971434394E+01  0.22846383933E+03  0.23291726552E+03  0.00000000000E+00 0. -1.
         11    1    1    2    0    0 -0.20775307691E+02  0.60403984109E+02  0.89482452320E+02  0.10994254854E+03  0.00000000000E+00 0.  1.
<mgrwt>
<rscale>  0 0.15412099E+03</rscale>
<asrwt>0</asrwt>
<pdfrwt beam="1">  1        2 0.24767253E+00 0.16383154E+03</pdfrwt>
<pdfrwt beam="2">  1       -2 0.27232743E-02 0.16383154E+03</pdfrwt>
<totfact> 0.57756488E+03</totfact>
</mgrwt>
</event>
<event>
 7    1  0.7800420E-006  0.2267987E+03  0.7546771E-02  0.1132078E+00
         -1   -1    0    0    0  501 -0.00000000000E+00  0.00000000000E+00  0.48548646824E+02  0.48548646824E+02  0.00000000000E+00 0.  1.
          1   -1    0    0  501    0  0.00000000000E+00 -0.00000000000E+00 -0.13291836183E+04  0.13291836183E+04  0.00000000000E+00 0. -1.
         23    2    1    2    0    0 -0.12491693060E+03 -0.14215669763E+03 -0.10106317668E+04  0.10357674597E+04  0.12499958503E+03 0.  0.
          5    1    3    3  502    0 -0.14572435349E+03 -0.98589867195E+02 -0.72587080604E+03  0.74690432197E+03  0.47000000000E+01 0.  1.
         -5    1    3    3    0  502  0.20807422893E+02 -0.43566830438E+02 -0.28476096081E+03  0.28886313777E+03  0.47000000000E+01 0.  1.
        -11    1    1    2    0    0  0.10604467229E+03  0.87156903148E+02 -0.12466797749E+03  0.18542896995E+03  0.00000000000E+00 0.  1.
         11    1    1    2    0    0  0.18872258309E+02  0.54999794485E+02 -0.14533522714E+03  0.15653583544E+03  0.00000000000E+00 0. -1.
<mgrwt>
<rscale>  0 0.22243809E+03</rscale>
<asrwt>0</asrwt>
<pdfrwt beam="2">  1        1 0.20448978E+00 0.22679873E+03</pdfrwt>
<pdfrwt beam="1">  1       -1 0.74690228E-02 0.22679873E+03</pdfrwt>
<totfact> 0.89561374E+02</totfact>
</mgrwt>
</event>
<event>
 7    1  0.7800420E-006  0.2141344E+03  0.7546771E-02  0.1142002E+00
          2   -1    0    0  501    0  0.00000000000E+00  0.00000000000E+00  0.73713056764E+03  0.73713056764E+03  0.00000000000E+00 0. -1.
         -2   -1    0    0    0  501 -0.00000000000E+00 -0.00000000000E+00 -0.62379675074E+02  0.62379675074E+02  0.00000000000E+00 0.  1.
         23    2    1    2    0    0  0.12095370804E+03 -0.12489796285E+03  0.46775236678E+03  0.51443736004E+03  0.12499688061E+03 0.  0.
          5    1    3    3  502    0  0.31862452881E+02 -0.86651222192E+02  0.10967994276E+03  0.14344138195E+03  0.47000000000E+01 0.  1.
         -5    1    3    3    0  502  0.89091255156E+02 -0.38246740655E+02  0.35807242402E+03  0.37099597809E+03  0.47000000000E+01 0.  1.
        -11    1    1    2    0    0 -0.45064471973E+01 -0.13804942933E+02  0.20383815410E+02  0.25027673611E+02  0.00000000000E+00 0. -1.
         11    1    1    2    0    0 -0.11644726084E+03  0.13870290578E+03  0.18661471037E+03  0.26004520906E+03  0.00000000000E+00 0.  1.
<mgrwt>
<rscale>  0 0.20945070E+03</rscale>
<asrwt>0</asrwt>
<pdfrwt beam="1">  1        2 0.11340470E+00 0.21413435E+03</pdfrwt>
<pdfrwt beam="2">  1       -2 0.95968736E-02 0.21413435E+03</pdfrwt>
<totfact> 0.27684962E+03</totfact>
</mgrwt>
</event>
<event>
 7    1  0.7800420E-006  0.1346263E+03  0.7546771E-02  0.1233684E+00
         -2   -1    0    0    0  501 -0.00000000000E+00  0.00000000000E+00  0.42934481753E+02  0.42934481753E+02  0.00000000000E+00 0.  1.
          2   -1    0    0  501    0  0.00000000000E+00 -0.00000000000E+00 -0.34017879433E+03  0.34017879433E+03  0.00000000000E+00 0. -1.
         23    2    1    2    0    0 -0.34227076465E+02 -0.36420144498E+02 -0.20276727394E+03  0.24339021709E+03  0.12500524272E+03 0.  0.
          5    1    3    3  502    0  0.38744869658E+02  0.17168500117E+02 -0.49632713418E+02  0.65432549716E+02  0.47000000000E+01 0. -1.
         -5    1    3    3    0  502 -0.72971946124E+02 -0.53588644615E+02 -0.15313456052E+03  0.17795766738E+03  0.47000000000E+01 0. -1.
        -11    1    1    2    0    0  0.37159818353E+01  0.15574249402E+02  0.16358233429E+02  0.22890119405E+02  0.00000000000E+00 0.  1.
         11    1    1    2    0    0  0.30511094630E+02  0.20845895095E+02 -0.11083527207E+03  0.11683293959E+03  0.00000000000E+00 0. -1.
<mgrwt>
<rscale>  0 0.12589059E+03</rscale>
<asrwt>0</asrwt>
<pdfrwt beam="2">  1        2 0.52335198E-01 0.13462626E+03</pdfrwt>
<pdfrwt beam="1">  1       -2 0.66053050E-02 0.13462626E+03</pdfrwt>
<totfact> 0.11484974E+04</totfact>
</mgrwt>
</event>
<event>
 7    1  0.7800420E-006  0.1301818E+03  0.7546771E-02  0.1240995E+00
         -1   -1    0    0    0  501 -0.00000000000E+00  0.00000000000E+00  0.40079197847E+02  0.40079197847E+02  0.00000000000E+00 0.  1.
          1   -1    0    0  501    0  0.00000000000E+00 -0.00000000000E+00 -0.43018201087E+03  0.43018201087E+03  0.00000000000E+00 0. -1.
         23    2    1    2    0    0  0.36343402466E+02 -0.62279848794E+00 -0.33118169337E+03  0.35584913569E+03  0.12500425018E+03 0.  0.
          5    1    3    3  502    0 -0.41230209861E+02 -0.74902624341E+01 -0.57762590863E+02  0.71516719302E+02  0.47000000000E+01 0.  1.
         -5    1    3    3    0  502  0.77573612326E+02  0.68674639461E+01 -0.27341910251E+03  0.28433241639E+03  0.47000000000E+01 0.  1.
        -11    1    1    2    0    0  0.22167450211E+02  0.24618906322E+02 -0.10464980135E+02  0.34741937288E+02  0.00000000000E+00 0.  1.
         11    1    1    2    0    0 -0.58510852676E+02 -0.23996107834E+02 -0.48456139510E+02  0.79670135737E+02  0.00000000000E+00 0. -1.
<mgrwt>
<rscale>  0 0.12128319E+03</rscale>
<asrwt>0</asrwt>
<pdfrwt beam="2">  1        1 0.66181853E-01 0.13018177E+03</pdfrwt>
<pdfrwt beam="1">  1       -1 0.61660300E-02 0.13018177E+03</pdfrwt>
<totfact> 0.67426887E+03</totfact>
</mgrwt>
</event>
<event>
 7    1  0.7800420E-006  0.1423854E+03  0.7546771E-02  0.1222316E+00
          1   -1    0    0  501    0  0.00000000000E+00  0.00000000000E+00  0.28852808107E+03  0.28852808107E+03  0.00000000000E+00 0. -1.
         -1   -1    0    0    0  501 -0.00000000000E+00 -0.00000000000E+00 -0.66592465627E+02  0.66592465627E+02  0.00000000000E+00 0.  1.
         23    2    1    2    0    0 -0.61442120041E+02 -0.29560432331E+02  0.19553208760E+03  0.24188097237E+03  0.12499861694E+03 0.  0.
          5    1    3    3  502    0  0.43739058202E+01 -0.42714169868E+02  0.16013038679E+03  0.16585373717E+03  0.47000000000E+01 0. -1.
         -5    1    3    3    0  502 -0.65816025861E+02  0.13153737538E+02  0.35401700808E+02  0.76027235196E+02  0.47000000000E+01 0. -1.
        -11    1    1    2    0    0  0.34087937822E+02  0.70313984056E+01 -0.30450477682E+02  0.46245644763E+02  0.00000000000E+00 0.  1.
         11    1    1    2    0    0  0.27354182219E+02  0.22529033925E+02  0.56854005522E+02  0.66993929563E+02  0.00000000000E+00 0. -1.
<mgrwt>
<rscale>  0 0.13352546E+03</rscale>
<asrwt>0</asrwt>
<pdfrwt beam="1">  1        1 0.44388935E-01 0.14238542E+03</pdfrwt>
<pdfrwt beam="2">  1       -1 0.10244995E-01 0.14238542E+03</pdfrwt>
<totfact> 0.51912039E+03</totfact>
</mgrwt>
</event>
<event>
 7    1  0.7800420E-006  0.1457425E+03  0.7546771E-02  0.1215630E+00
         -2   -1    0    0    0  501 -0.00000000000E+00  0.00000000000E+00  0.19988794759E+02  0.19988794759E+02  0.00000000000E+00 0.  1.
          2   -1    0    0  501    0  0.00000000000E+00 -0.00000000000E+00 -0.12872887060E+04  0.12872887060E+04  0.00000000000E+00 0. -1.
         23    2    1    2    0    0  0.52383383388E+02 -0.53595871635E+02 -0.10486435175E+04  0.10587228582E+04  0.12499730919E+03 0.  0.
          5    1    3    3  502    0 -0.10032157805E+02 -0.51479765295E+02 -0.17285593330E+03  0.18069884920E+03  0.47000000000E+01 0. -1.
         -5    1    3    3    0  502  0.62415541193E+02 -0.21161063402E+01 -0.87578758418E+03  0.87802400895E+03  0.47000000000E+01 0. -1.
        -11    1    1    2    0    0 -0.32046977749E+02  0.27358021594E+02 -0.21008593138E+03  0.21426985017E+03  0.00000000000E+00 0. -1.
         11    1    1    2    0    0 -0.20336405639E+02  0.26237850041E+02 -0.85704624186E+01  0.34284792477E+02  0.00000000000E+00 0.  1.
<mgrwt>
<rscale>  0 0.13830390E+03</rscale>
<asrwt>0</asrwt>
<pdfrwt beam="2">  1        2 0.19804442E+00 0.14574246E+03</pdfrwt>
<pdfrwt beam="1">  1       -2 0.30751992E-02 0.14574246E+03</pdfrwt>
<totfact> 0.71264874E+03</totfact>
</mgrwt>
</event>
<event>
 7    1  0.7800420E-006  0.1408483E+03  0.7546771E-02  0.1222595E+00
         -2   -1    0    0    0  501 -0.00000000000E+00  0.00000000000E+00  0.24419175897E+03  0.24419175897E+03  0.00000000000E+00 0.  1.
          2   -1    0    0  501    0  0.00000000000E+00 -0.00000000000E+00 -0.94304966682E+02  0.94304966682E+02  0.00000000000E+00 0. -1.
         23    2    1    2    0    0 -0.58667110102E+02  0.27765521150E+02 -0.11618109908E+02  0.14132666983E+03  0.12500197261E+03 0.  0.
          5    1    3    3  502    0  0.31188600679E+02 -0.20702957809E+01  0.24387307565E+02  0.39922997222E+02  0.47000000000E+01 0. -1.
         -5    1    3    3    0  502 -0.89855710781E+02  0.29835816931E+02 -0.36005417473E+02  0.10140367261E+03  0.47000000000E+01 0. -1.
        -11    1    1    2    0    0 -0.58548223388E+01 -0.35495511115E+02  0.19309999408E+02  0.40829968541E+02  0.00000000000E+00 0. -1.
         11    1    1    2    0    0  0.64521932440E+02  0.77299899648E+01  0.14219490278E+03  0.15634008727E+03  0.00000000000E+00 0.  1.
<mgrwt>
<rscale>  0 0.13333123E+03</rscale>
<asrwt>0</asrwt>
<pdfrwt beam="2">  1        2 0.14508456E-01 0.14084831E+03</pdfrwt>
<pdfrwt beam="1">  1       -2 0.37567963E-01 0.14084831E+03</pdfrwt>
<totfact> 0.26326207E+03</totfact>
</mgrwt>
</event>
<event>
 7    1  0.7800420E-006  0.1478327E+03  0.7546771E-02  0.1212286E+00
          1   -1    0    0  501    0  0.00000000000E+00  0.00000000000E+00  0.25742321612E+03  0.25742321612E+03  0.00000000000E+00 0.  1.
         -1   -1    0    0    0  501 -0.00000000000E+00 -0.00000000000E+00 -0.70531869333E+02  0.70531869333E+02  0.00000000000E+00 0. -1.
         23    2    1    2    0    0 -0.47448399377E+02  0.63054347077E+02  0.98360543064E+02  0.17756490880E+03  0.12500919612E+03 0.  0.
          5    1    3    3  502    0 -0.44347884456E+02  0.12609190202E+00  0.10496010792E+03  0.11404150564E+03  0.47000000000E+01 0.  1.
         -5    1    3    3    0  502 -0.31005149208E+01  0.62928255175E+02 -0.65995648518E+01  0.63523403155E+02  0.47000000000E+01 0.  1.
        -11    1    1    2    0    0  0.17560061908E+02  0.53309678602E+01 -0.14346244679E+02  0.23293555524E+02  0.00000000000E+00 0. -1.
         11    1    1    2    0    0  0.29888337469E+02 -0.68385314938E+02  0.10287704841E+03  0.12709662114E+03  0.00000000000E+00 0.  1.
<mgrwt>
<rscale>  0 0.14077817E+03</rscale>
<asrwt>0</asrwt>
<pdfrwt beam="1">  1        1 0.39603571E-01 0.14783268E+03</pdfrwt>
<pdfrwt beam="2">  1       -1 0.10851057E-01 0.14783268E+03</pdfrwt>
<totfact> 0.54863232E+03</totfact>
</mgrwt>
</event>
<event>
 7    1  0.7800420E-006  0.1331143E+03  0.7546771E-02  0.1235459E+00
         -2   -1    0    0    0  501 -0.00000000000E+00  0.00000000000E+00  0.18378744213E+02  0.18378744213E+02  0.00000000000E+00 0.  1.
          2   -1    0    0  501    0  0.00000000000E+00 -0.00000000000E+00 -0.12257244557E+04  0.12257244557E+04  0.00000000000E+00 0. -1.
         23    2    1    2    0    0  0.30572356417E+02 -0.34044044615E+02 -0.10347094221E+04  0.10432367961E+04  0.12500303429E+03 0.  0.
          5    1    3    3  502    0 -0.10185610414E+02  0.37620809366E+02 -0.56194140112E+03  0.56331101556E+03  0.47000000000E+01 0.  1.
         -5    1    3    3    0  502  0.40757966831E+02 -0.71664853981E+02 -0.47276802096E+03  0.47992578051E+03  0.47000000000E+01 0.  1.
        -11    1    1    2    0    0 -0.49624507844E+02  0.40356412442E+02 -0.16869282449E+03  0.18041203075E+03  0.00000000000E+00 0.  1.
         11    1    1    2    0    0  0.19052151426E+02 -0.63123678271E+01 -0.39434648659E+01  0.20454373046E+02  0.00000000000E+00 0. -1.
<mgrwt>
<rscale>  0 0.12475111E+03</rscale>
<asrwt>0</asrwt>
<pdfrwt beam="2">  1        2 0.18857305E+00 0.13311433E+03</pdfrwt>
<pdfrwt beam="1">  1       -2 0.28274983E-02 0.13311433E+03</pdfrwt>
<totfact> 0.86781736E+03</totfact>
</mgrwt>
</event>
<event>
 7    1  0.7800420E-006  0.1462466E+03  0.7546771E-02  0.1219259E+00
          1   -1    0    0  501    0  0.00000000000E+00  0.00000000000E+00  0.16931634415E+04  0.16931634415E+04  0.00000000000E+00 0. -1.
         -1   -1    0    0    0  501 -0.00000000000E+00 -0.00000000000E+00 -0.10055780853E+02  0.10055780853E+02  0.00000000000E+00 0.  1.
         23    2    1    2    0    0  0.30318090462E+02  0.69599524267E+02  0.11457698332E+04  0.11550656173E+04  0.12499915674E+03 0.  0.
          5    1    3    3  502    0  0.11022998659E+00  0.94895111585E+02  0.98078584346E+03  0.98537711314E+03  0.47000000000E+01 0.  1.
         -5    1    3    3    0  502  0.30207860475E+02 -0.25295587318E+02  0.16498398971E+03  0.16968850413E+03  0.47000000000E+01 0.  1.
        -11    1    1    2    0    0 -0.56154099413E+02 -0.55068358684E+02  0.38189825256E+03  0.38991291633E+03  0.00000000000E+00 0. -1.
         11    1    1    2    0    0  0.25836008952E+02 -0.14531165583E+02  0.15543957493E+03  0.15824068879E+03  0.00000000000E+00 0.  1.
<mgrwt>
<rscale>  0 0.13568282E+03</rscale>
<asrwt>0</asrwt>
<pdfrwt beam="1">  1        1 0.26048646E+00 0.14624661E+03</pdfrwt>
<pdfrwt beam="2">  1       -1 0.15470446E-02 0.14624661E+03</pdfrwt>
<totfact> 0.52598977E+03</totfact>
</mgrwt>
</event>
<event>
 7    1  0.7800420E-006  0.1350079E+03  0.7546771E-02  0.1232958E+00
          1   -1    0    0  501    0  0.00000000000E+00  0.00000000000E+00  0.59449652157E+03  0.59449652157E+03  0.00000000000E+00 0. -1.
         -1   -1    0    0    0  501 -0.00000000000E+00 -0.00000000000E+00 -0.23977074523E+02  0.23977074523E+02  0.00000000000E+00 0.  1.
         23    2    1    2    0    0  0.49322494931E+02 -0.12899127368E+02  0.33439020192E+03  0.36061604613E+03  0.12501211781E+03 0.  0.
          5    1    3    3  502    0  0.77468071689E+02  0.19083976369E+02  0.28102462034E+03  0.29216849167E+03  0.47000000000E+01 0.  1.
         -5    1    3    3    0  502 -0.28145576758E+02 -0.31983103737E+02  0.53365581577E+02  0.68447554468E+02  0.47000000000E+01 0.  1.
        -11    1    1    2    0    0 -0.21990931677E+02  0.43650951506E+02  0.62082707399E+02  0.79014360729E+02  0.00000000000E+00 0. -1.
         11    1    1    2    0    0 -0.27331563255E+02 -0.30751824138E+02  0.17404653773E+03  0.17884318923E+03  0.00000000000E+00 0.  1.
<mgrwt>
<rscale>  0 0.12636068E+03</rscale>
<asrwt>0</asrwt>
<pdfrwt beam="1">  1        1 0.91460992E-01 0.13500787E+03</pdfrwt>
<pdfrwt beam="2">  1       -1 0.36887812E-02 0.13500787E+03</pdfrwt>
<totfact> 0.94492067E+03</totfact>
</mgrwt>
</event>
<event>
 7    1  0.7800420E-006  0.1554227E+03  0.7546771E-02  0.1202556E+00
          4   -1    0    0  501    0  0.00000000000E+00  0.00000000000E+00  0.11070877457E+03  0.11070877457E+03  0.00000000000E+00 0. -1.
         -4   -1    0    0    0  501 -0.00000000000E+00 -0.00000000000E+00 -0.18301389878E+03  0.18301389878E+03  0.00000000000E+00 0.  1.
         23    2    1    2    0    0 -0.52735065061E+02  0.75828478596E+02 -0.46968556068E+02  0.16236463447E+03  0.12500113605E+03 0.  0.
          5    1    3    3  502    0 -0.42658970976E+01  0.90916992421E+02  0.27146667059E+01  0.91178708065E+02  0.47000000000E+01 0.  1.
         -5    1    3    3    0  502 -0.48469167964E+02 -0.15088513825E+02 -0.49683222774E+02  0.71185926402E+02  0.47000000000E+01 0.  1.
        -11    1    1    2    0    0  0.57822427839E+02 -0.88065502228E+02 -0.38985756095E+02  0.11233367715E+03  0.00000000000E+00 0.  1.
         11    1    1    2    0    0 -0.50873627780E+01  0.12237023632E+02  0.13649187954E+02  0.19024361729E+02  0.00000000000E+00 0. -1.
<mgrwt>
<rscale>  0 0.14831733E+03</rscale>
<asrwt>0</asrwt>
<pdfrwt beam="1">  1        4 0.17032119E-01 0.15542274E+03</pdfrwt>
<pdfrwt beam="2">  1       -4 0.28155984E-01 0.15542274E+03</pdfrwt>
<totfact> 0.61394499E+02</totfact>
</mgrwt>
</event>
<event>
 7    1  0.7800420E-006  0.1450689E+03  0.7546771E-02  0.1216636E+00
          1   -1    0    0  501    0  0.00000000000E+00  0.00000000000E+00  0.16528427001E+04  0.16528427001E+04  0.00000000000E+00 0. -1.
         -1   -1    0    0    0  501 -0.00000000000E+00 -0.00000000000E+00 -0.16371765301E+02  0.16371765301E+02  0.00000000000E+00 0.  1.
         23    2    1    2    0    0  0.62971604300E+02 -0.38231739200E+02  0.13749637291E+04  0.13825954682E+04  0.12497153085E+03 0.  0.
          5    1    3    3  502    0  0.29153450953E+02 -0.12944010117E+02  0.71432137140E+02  0.78371623160E+02  0.47000000000E+01 0.  1.
         -5    1    3    3    0  502  0.33818153347E+02 -0.25287729082E+02  0.13035315920E+04  0.13042238451E+04  0.47000000000E+01 0.  1.
        -11    1    1    2    0    0 -0.53846473759E+02 -0.20161316642E+02  0.14486046530E+03  0.15585402090E+03  0.00000000000E+00 0.  1.
         11    1    1    2    0    0 -0.91251305412E+01  0.58393055842E+02  0.11664674033E+03  0.13076497623E+03  0.00000000000E+00 0. -1.
<mgrwt>
<rscale>  0 0.13757053E+03</rscale>
<asrwt>0</asrwt>
<pdfrwt beam="1">  1        1 0.25428336E+00 0.14506885E+03</pdfrwt>
<pdfrwt beam="2">  1       -1 0.25187344E-02 0.14506885E+03</pdfrwt>
<totfact> 0.27598753E+03</totfact>
</mgrwt>
</event>
<event>
 7    1  0.7800420E-006  0.1632207E+03  0.7546771E-02  0.1191986E+00
          2   -1    0    0  501    0  0.00000000000E+00  0.00000000000E+00  0.61829467107E+03  0.61829467107E+03  0.00000000000E+00 0. -1.
         -2   -1    0    0    0  501 -0.00000000000E+00 -0.00000000000E+00 -0.39428890935E+02  0.39428890935E+02  0.00000000000E+00 0.  1.
         23    2    1    2    0    0  0.75722688495E+02 -0.72677594716E+02  0.38793049116E+03  0.42086941987E+03  0.12500017715E+03 0.  0.
          5    1    3    3  502    0  0.61325172779E+02 -0.45893609089E+02  0.38187538199E+03  0.38950981701E+03  0.47000000000E+01 0.  1.
         -5    1    3    3    0  502  0.14397515716E+02 -0.26783985627E+02  0.60551091632E+01  0.31359602864E+02  0.47000000000E+01 0.  1.
        -11    1    1    2    0    0 -0.36407473025E+02  0.19737327824E+02  0.15762840090E+03  0.16297784811E+03  0.00000000000E+00 0. -1.
         11    1    1    2    0    0 -0.39315215470E+02  0.52940266892E+02  0.33306888073E+02  0.73876294027E+02  0.00000000000E+00 0.  1.
<mgrwt>
<rscale>  0 0.15712095E+03</rscale>
<asrwt>0</asrwt>
<pdfrwt beam="1">  1        2 0.95122250E-01 0.16322072E+03</pdfrwt>
<pdfrwt beam="2">  1       -2 0.60659837E-02 0.16322072E+03</pdfrwt>
<totfact> 0.68859425E+03</totfact>
</mgrwt>
</event>
<event>
 7    1  0.7800420E-006  0.1474596E+03  0.7546771E-02  0.1213352E+00
          2   -1    0    0  501    0  0.00000000000E+00  0.00000000000E+00  0.21082513924E+03  0.21082513924E+03  0.00000000000E+00 0. -1.
         -2   -1    0    0    0  501 -0.00000000000E+00 -0.00000000000E+00 -0.89957688573E+02  0.89957688573E+02  0.00000000000E+00 0.  1.
         23    2    1    2    0    0 -0.24722738301E+02 -0.74232231809E+02  0.10261141929E+03  0.17964806138E+03  0.12499073790E+03 0.  0.
          5    1    3    3  502    0  0.76356150077E+01 -0.10323398944E+03  0.75585757904E+02  0.12826089034E+03  0.47000000000E+01 0.  1.
         -5    1    3    3    0  502 -0.32358353309E+02  0.29001757632E+02  0.27025661389E+02  0.51387171046E+02  0.47000000000E+01 0.  1.
        -11    1    1    2    0    0  0.58887261867E+02  0.38752186682E+02  0.11091303800E+02  0.71361464410E+02  0.00000000000E+00 0.  1.
         11    1    1    2    0    0 -0.34164523565E+02  0.35480045127E+02  0.71647275750E+01  0.49773302019E+02  0.00000000000E+00 0. -1.
<mgrwt>
<rscale>  0 0.13998280E+03</rscale>
<asrwt>0</asrwt>
<pdfrwt beam="1">  1        2 0.32434637E-01 0.14745956E+03</pdfrwt>
<pdfrwt beam="2">  1       -2 0.13839644E-01 0.14745956E+03</pdfrwt>
<totfact> 0.60288984E+03</totfact>
</mgrwt>
</event>
<event>
 7    1  0.7800420E-006  0.2665238E+03  0.7546771E-02  0.1103286E+00
          1   -1    0    0  501    0  0.00000000000E+00  0.00000000000E+00  0.28486779888E+02  0.28486779888E+02  0.00000000000E+00 0. -1.
         -1   -1    0    0    0  501 -0.00000000000E+00 -0.00000000000E+00 -0.62340253878E+03  0.62340253878E+03  0.00000000000E+00 0.  1.
         23    2    1    2    0    0  0.15632362511E+02  0.34854752645E+00 -0.27109663202E+03  0.29893587914E+03  0.12499913481E+03 0.  0.
          5    1    3    3  502    0  0.16525837816E+01 -0.49003835493E+02 -0.22329675419E+03  0.22866490190E+03  0.47000000000E+01 0.  1.
         -5    1    3    3    0  502  0.13979778729E+02  0.49352383019E+02 -0.47799877828E+02  0.70270977248E+02  0.47000000000E+01 0.  1.
        -11    1    1    2    0    0 -0.56873529195E+02 -0.48959808568E+02 -0.20146951577E+03  0.21499215559E+03  0.00000000000E+00 0.  1.
         11    1    1    2    0    0  0.41241166684E+02  0.48611261042E+02 -0.12234961110E+03  0.13796128394E+03  0.00000000000E+00 0. -1.
<mgrwt>
<rscale>  0 0.26652378E+03</rscale>
<asrwt>0</asrwt>
<pdfrwt beam="1">  1        1 0.43825817E-02 0.26652378E+03</pdfrwt>
<pdfrwt beam="2">  1       -1 0.95908078E-01 0.26652378E+03</pdfrwt>
<totfact> 0.22075939E+03</totfact>
</mgrwt>
</event>
<event>
 7    1  0.7800420E-006  0.1171695E+03  0.7546771E-02  0.1261165E+00
          1   -1    0    0  501    0  0.00000000000E+00  0.00000000000E+00  0.72019551091E+03  0.72019551091E+03  0.00000000000E+00 0. -1.
         -1   -1    0    0    0  501 -0.00000000000E+00 -0.00000000000E+00 -0.22854224496E+02  0.22854224496E+02  0.00000000000E+00 0.  1.
         23    2    1    2    0    0  0.69671545040E+01  0.71431703094E+01  0.59656138695E+03  0.60795902211E+03  0.11674381370E+03 0.  0.
          5    1    3    3  502    0  0.44877066251E+02  0.16905319475E+02  0.51622396740E+03  0.51846795023E+03  0.47000000000E+01 0. -1.
         -5    1    3    3    0  502 -0.37909911747E+02 -0.97621491658E+01  0.80337419550E+02  0.89491071873E+02  0.47000000000E+01 0.  1.
        -11    1    1    2    0    0  0.47170617307E+01  0.22064258894E+02  0.10114472133E+03  0.10363077171E+03  0.00000000000E+00 0.  1.
         11    1    1    2    0    0 -0.11684216235E+02 -0.29207429203E+02 -0.36482187057E+00  0.31459941587E+02  0.00000000000E+00 0. -1.
<mgrwt>
<rscale>  0 0.10967912E+03</rscale>
<asrwt>0</asrwt>
<pdfrwt beam="1">  1        1 0.11079929E+00 0.11716947E+03</pdfrwt>
<pdfrwt beam="2">  1       -1 0.35160351E-02 0.11716947E+03</pdfrwt>
<totfact> 0.76868220E+03</totfact>
</mgrwt>
</event>
<event>
 7    1  0.7800420E-006  0.1365146E+03  0.7546771E-02  0.1231838E+00
          3   -1    0    0  501    0  0.00000000000E+00  0.00000000000E+00  0.68082803508E+02  0.68082803508E+02  0.00000000000E+00 0. -1.
         -3   -1    0    0    0  501 -0.00000000000E+00 -0.00000000000E+00 -0.27682688938E+03  0.27682688938E+03  0.00000000000E+00 0.  1.
         23    2    1    2    0    0  0.54338523120E+02  0.77963220480E+01 -0.31441050943E+02  0.14008843143E+03  0.12499108449E+03 0.  0.
          5    1    3    3  502    0  0.76874825460E+02  0.35765436595E+02 -0.50863365212E+02  0.98985237107E+02  0.47000000000E+01 0.  1.
         -5    1    3    3    0  502 -0.22536302340E+02 -0.27969114547E+02  0.19422314269E+02  0.41103194319E+02  0.47000000000E+01 0.  1.
        -11    1    1    2    0    0 -0.38554420137E+01 -0.37371373446E+02 -0.10672873408E+03  0.11314816244E+03  0.00000000000E+00 0.  1.
         11    1    1    2    0    0 -0.50483081106E+02  0.29575051398E+02 -0.70574300848E+02  0.91673099017E+02  0.00000000000E+00 0. -1.
<mgrwt>
<rscale>  0 0.12709030E+03</rscale>
<asrwt>0</asrwt>
<pdfrwt beam="1">  1        3 0.10474278E-01 0.13651457E+03</pdfrwt>
<pdfrwt beam="2">  1       -3 0.42588752E-01 0.13651457E+03</pdfrwt>
<totfact> 0.86710710E+02</totfact>
</mgrwt>
</event>
<event>
 7    1  0.7800420E-006  0.1534390E+03  0.7546771E-02  0.1204782E+00
         -2   -1    0    0    0  501 -0.00000000000E+00  0.00000000000E+00  0.20525454179E+03  0.20525454179E+03  0.00000000000E+00 0.  1.
          2   -1    0    0  501    0  0.00000000000E+00 -0.00000000000E+00 -0.14472959437E+03  0.14472959437E+03  0.00000000000E+00 0. -1.
         23    2    1    2    0    0 -0.84618816980E+02 -0.27500170459E+02 -0.68888652397E+02  0.16819384664E+03  0.12500767999E+03 0.  0.
          5    1    3    3  502    0 -0.89897712236E+02 -0.16703082458E+02 -0.99354627635E+02  0.13510745228E+03  0.47000000000E+01 0.  1.
         -5    1    3    3    0  502  0.52788952556E+01 -0.10797088001E+02  0.30465975238E+02  0.33086394358E+02  0.47000000000E+01 0.  1.
        -11    1    1    2    0    0  0.81117481825E+01 -0.25520611339E+02  0.59905543268E+02  0.65618413390E+02  0.00000000000E+00 0.  1.
         11    1    1    2    0    0  0.76507068798E+02  0.53020781797E+02  0.69508056545E+02  0.11617187613E+03  0.00000000000E+00 0. -1.
<mgrwt>
<rscale>  0 0.14654624E+03</rscale>
<asrwt>0</asrwt>
<pdfrwt beam="2">  1        2 0.22266092E-01 0.15343899E+03</pdfrwt>
<pdfrwt beam="1">  1       -2 0.31577622E-01 0.15343899E+03</pdfrwt>
<totfact> 0.22269648E+03</totfact>
</mgrwt>
</event>
<event>
 6    1  0.7800420E-006  0.2206250E+03  0.7546771E-02  0.1169023E+00
         -1   -1    0    0    0  501 -0.00000000000E+00  0.00000000000E+00  0.25462833433E+03  0.25462833433E+03  0.00000000000E+00 0.  1.
          1   -1    0    0  501    0  0.00000000000E+00 -0.00000000000E+00 -0.99255510447E+02  0.99255510447E+02  0.00000000000E+00 0. -1.
          5    1    1    2  502    0  0.48022480203E+02  0.82734937128E+02  0.23142124606E+02  0.98533630592E+02  0.47000000000E+01 0. -1.
         -5    1    1    2    0  502 -0.47980649959E+02 -0.11299664954E+03  0.65610247772E+02  0.13927375988E+03  0.47000000000E+01 0.  1.
        -11    1    1    2    0    0 -0.28279364430E+02  0.13331856331E+02  0.75718088429E+02  0.81918799803E+02  0.00000000000E+00 0.  1.
         11    1    1    2    0    0  0.28237534186E+02  0.16929856082E+02 -0.90976369214E+01  0.34157654507E+02  0.00000000000E+00 0. -1.
<mgrwt>
<rscale>  0 0.17874535E+03</rscale>
<asrwt>0</asrwt>
<pdfrwt beam="2">  1        1 0.15270079E-01 0.22062496E+03</pdfrwt>
<pdfrwt beam="1">  1       -1 0.39173590E-01 0.22062496E+03</pdfrwt>
<totfact> 0.23078884E+03</totfact>
</mgrwt>
</event>
<event>
 7    1  0.7800420E-006  0.1627390E+03  0.7546771E-02  0.1192110E+00
          1   -1    0    0  501    0  0.00000000000E+00  0.00000000000E+00  0.13905463152E+04  0.13905463152E+04  0.00000000000E+00 0. -1.
         -1   -1    0    0    0  501 -0.00000000000E+00 -0.00000000000E+00 -0.18241273584E+02  0.18241273584E+02  0.00000000000E+00 0.  1.
         23    2    1    2    0    0  0.10207434485E+03  0.21002186276E+02  0.94231548419E+03  0.95626484334E+03  0.12499486054E+03 0.  0.
          5    1    3    3  502    0  0.53843089249E+02  0.45356599044E+01  0.84108152917E+03  0.84282849927E+03  0.47000000000E+01 0.  1.
         -5    1    3    3    0  502  0.48231255596E+02  0.16466526371E+02  0.10123395501E+03  0.11343634406E+03  0.47000000000E+01 0.  1.
        -11    1    1    2    0    0 -0.51513376849E+02 -0.53210961824E+02  0.30552661509E+03  0.31437485106E+03  0.00000000000E+00 0. -1.
         11    1    1    2    0    0 -0.50560967997E+02  0.32208775548E+02  0.12446294235E+03  0.13814789440E+03  0.00000000000E+00 0.  1.
<mgrwt>
<rscale>  0 0.15701337E+03</rscale>
<asrwt>0</asrwt>
<pdfrwt beam="1">  1        1 0.21393012E+00 0.16273899E+03</pdfrwt>
<pdfrwt beam="2">  1       -1 0.28063509E-02 0.16273899E+03</pdfrwt>
<totfact> 0.34981776E+03</totfact>
</mgrwt>
</event>
<event>
 7    1  0.7800420E-006  0.1756650E+03  0.7546771E-02  0.1178133E+00
          2   -1    0    0  501    0  0.00000000000E+00  0.00000000000E+00  0.84356139617E+03  0.84356139617E+03  0.00000000000E+00 0. -1.
         -2   -1    0    0    0  501 -0.00000000000E+00 -0.00000000000E+00 -0.33199633115E+02  0.33199633115E+02  0.00000000000E+00 0.  1.
         23    2    1    2    0    0 -0.63744834905E+02  0.10568792659E+03  0.51409166594E+03  0.54327563855E+03  0.12499934658E+03 0.  0.
          5    1    3    3  502    0 -0.65483577547E+02  0.94969051691E+02  0.51808061380E+03  0.53078887715E+03  0.47000000000E+01 0. -1.
         -5    1    3    3    0  502  0.17387426417E+01  0.10718874899E+02 -0.39889478643E+01  0.12486761395E+02  0.47000000000E+01 0. -1.
        -11    1    1    2    0    0  0.52308583082E+02 -0.61558029780E+01  0.93475895116E+02  0.10729317193E+03  0.00000000000E+00 0. -1.
         11    1    1    2    0    0  0.11436251823E+02 -0.99532123612E+02  0.20279420200E+03  0.22619221881E+03  0.00000000000E+00 0.  1.
<mgrwt>
<rscale>  0 0.16972684E+03</rscale>
<asrwt>0</asrwt>
<pdfrwt beam="1">  1        2 0.12977866E+00 0.17566496E+03</pdfrwt>
<pdfrwt beam="2">  1       -2 0.51076365E-02 0.17566496E+03</pdfrwt>
<totfact> 0.61536949E+03</totfact>
</mgrwt>
</event>
<event>
 7    1  0.7800420E-006  0.1338263E+03  0.7546771E-02  0.1234978E+00
          2   -1    0    0  501    0  0.00000000000E+00  0.00000000000E+00  0.11435156566E+04  0.11435156566E+04  0.00000000000E+00 0. -1.
         -2   -1    0    0    0  501 -0.00000000000E+00 -0.00000000000E+00 -0.12344118036E+02  0.12344118036E+02  0.00000000000E+00 0.  1.
         23    2    1    2    0    0  0.42716071254E+02 -0.21458272121E+02  0.70984017463E+03  0.72234518389E+03  0.12499748391E+03 0.  0.
          5    1    3    3  502    0 -0.11529208541E+02 -0.19290563842E+02  0.59276896667E+03  0.59321344081E+03  0.47000000000E+01 0.  1.
         -5    1    3    3    0  502  0.54245279795E+02 -0.21677082785E+01  0.11707120795E+03  0.12913174308E+03  0.47000000000E+01 0.  1.
        -11    1    1    2    0    0 -0.24838936107E+02  0.56023260207E+02  0.21585377656E+03  0.22438456116E+03  0.00000000000E+00 0.  1.
         11    1    1    2    0    0 -0.17877135147E+02 -0.34564988086E+02  0.20547758739E+03  0.20913002960E+03  0.00000000000E+00 0. -1.
<mgrwt>
<rscale>  0 0.12505829E+03</rscale>
<asrwt>0</asrwt>
<pdfrwt beam="1">  1        2 0.17592540E+00 0.13382635E+03</pdfrwt>
<pdfrwt beam="2">  1       -2 0.18990960E-02 0.13382635E+03</pdfrwt>
<totfact> 0.17224261E+04</totfact>
</mgrwt>
</event>
<event>
 7    1  0.7800420E-006  0.1592081E+03  0.7546771E-02  0.1196884E+00
          2   -1    0    0  501    0  0.00000000000E+00  0.00000000000E+00  0.20668204415E+03  0.20668204415E+03  0.00000000000E+00 0. -1.
         -2   -1    0    0    0  501 -0.00000000000E+00 -0.00000000000E+00 -0.10581328491E+03  0.10581328491E+03  0.00000000000E+00 0.  1.
         23    2    1    2    0    0 -0.82084219304E+02  0.54679074570E+02  0.66698881529E+02  0.17261502505E+03  0.12497834140E+03 0.  0.
          5    1    3    3  502    0 -0.10431730309E+03  0.56861228004E+02  0.19913140353E+02  0.12055671749E+03  0.47000000000E+01 0. -1.
         -5    1    3    3    0  502  0.22233083783E+02 -0.21821534347E+01  0.46785741176E+02  0.52058307555E+02  0.47000000000E+01 0. -1.
        -11    1    1    2    0    0  0.96461749204E+02 -0.54385168747E+02  0.47292216412E+02  0.12041249674E+03  0.00000000000E+00 0. -1.
         11    1    1    2    0    0 -0.14377529900E+02 -0.29390582265E+00 -0.13122338703E+02  0.19467807265E+02  0.00000000000E+00 0.  1.
<mgrwt>
<rscale>  0 0.15295822E+03</rscale>
<asrwt>0</asrwt>
<pdfrwt beam="1">  1        2 0.31797237E-01 0.15920806E+03</pdfrwt>
<pdfrwt beam="2">  1       -2 0.16278967E-01 0.15920806E+03</pdfrwt>
<totfact> 0.47427721E+03</totfact>
</mgrwt>
</event>
<event>
 7    1  0.7800420E-006  0.1477987E+03  0.7546771E-02  0.1212121E+00
          2   -1    0    0  501    0  0.00000000000E+00  0.00000000000E+00  0.75680716398E+03  0.75680716398E+03  0.00000000000E+00 0. -1.
         -2   -1    0    0    0  501 -0.00000000000E+00 -0.00000000000E+00 -0.24131259019E+02  0.24131259019E+02  0.00000000000E+00 0.  1.
         23    2    1    2    0    0  0.60006660043E+02 -0.51170239405E+02  0.42227342260E+03  0.44739167094E+03  0.12500108459E+03 0.  0.
          5    1    3    3  502    0  0.32836223702E+02 -0.61557304322E+02  0.90768382370E+02  0.11457970388E+03  0.47000000000E+01 0.  1.
         -5    1    3    3    0  502  0.27170436341E+02  0.10387064917E+02  0.33150504023E+03  0.33281196707E+03  0.47000000000E+01 0.  1.
        -11    1    1    2    0    0 -0.37830240669E+02  0.34678807134E+02  0.29945574483E+03  0.30382147699E+03  0.00000000000E+00 0. -1.
         11    1    1    2    0    0 -0.22176419375E+02  0.16491432270E+02  0.10946737537E+02  0.29725275059E+02  0.00000000000E+00 0.  1.
<mgrwt>
<rscale>  0 0.14090127E+03</rscale>
<asrwt>0</asrwt>
<pdfrwt beam="1">  1        2 0.11643185E+00 0.14779873E+03</pdfrwt>
<pdfrwt beam="2">  1       -2 0.37125020E-02 0.14779873E+03</pdfrwt>
<totfact> 0.11268112E+04</totfact>
</mgrwt>
</event>
<event>
 7    1  0.7800420E-006  0.1790332E+03  0.7546771E-02  0.1174703E+00
          1   -1    0    0  501    0  0.00000000000E+00  0.00000000000E+00  0.21295844984E+03  0.21295844984E+03  0.00000000000E+00 0. -1.
         -1   -1    0    0    0  501 -0.00000000000E+00 -0.00000000000E+00 -0.25911701322E+03  0.25911701322E+03  0.00000000000E+00 0.  1.
         23    2    1    2    0    0 -0.11241065417E+03  0.61442045064E+02  0.14125953068E+03  0.22805077798E+03  0.12506647135E+03 0.  0.
          5    1    3    3  502    0  0.24654527661E+02  0.28130418665E+02  0.25468249619E+02  0.45496021004E+02  0.47000000000E+01 0. -1.
         -5    1    3    3    0  502 -0.13706518184E+03  0.33311626399E+02  0.11579128106E+03  0.18255475697E+03  0.47000000000E+01 0. -1.
        -11    1    1    2    0    0  0.94208341888E+02 -0.63558679134E+02 -0.19376427420E+03  0.22463194637E+03  0.00000000000E+00 0.  1.
         11    1    1    2    0    0  0.18202312286E+02  0.21166340707E+01  0.63461801364E+01  0.19392738710E+02  0.00000000000E+00 0. -1.
<mgrwt>
<rscale>  0 0.17305097E+03</rscale>
<asrwt>0</asrwt>
<pdfrwt beam="1">  1        1 0.32762839E-01 0.17903324E+03</pdfrwt>
<pdfrwt beam="2">  1       -1 0.39864156E-01 0.17903324E+03</pdfrwt>
<totfact> 0.83967720E+02</totfact>
</mgrwt>
</event>
<event>
 7    1  0.7800420E-006  0.1601272E+03  0.7546771E-02  0.1195958E+00
          1   -1    0    0  501    0  0.00000000000E+00  0.00000000000E+00  0.61229663428E+03  0.61229663428E+03  0.00000000000E+00 0. -1.
         -1   -1    0    0    0  501 -0.00000000000E+00 -0.00000000000E+00 -0.43803155257E+02  0.43803155257E+02  0.00000000000E+00 0.  1.
         23    2    1    2    0    0 -0.45397766421E+01  0.99958317609E+02  0.44284935398E+03  0.47091003780E+03  0.12501375345E+03 0.  0.
          5    1    3    3  502    0  0.11772399054E+02  0.10993510366E+03  0.21129870913E+03  0.23852369039E+03  0.47000000000E+01 0. -1.
         -5    1    3    3    0  502 -0.16312175696E+02 -0.99767860489E+01  0.23155064484E+03  0.23238634741E+03  0.47000000000E+01 0. -1.
        -11    1    1    2    0    0 -0.82613765838E+01 -0.83860239834E+01 -0.13634706849E+02  0.18013355383E+02  0.00000000000E+00 0.  1.
         11    1    1    2    0    0  0.12801153226E+02 -0.91572293626E+02  0.13927883190E+03  0.16717639636E+03  0.00000000000E+00 0. -1.
<mgrwt>
<rscale>  0 0.15373440E+03</rscale>
<asrwt>0</asrwt>
<pdfrwt beam="1">  1        1 0.94199475E-01 0.16012718E+03</pdfrwt>
<pdfrwt beam="2">  1       -1 0.67389474E-02 0.16012718E+03</pdfrwt>
<totfact> 0.37472180E+03</totfact>
</mgrwt>
</event>
<event>
 7    1  0.7800420E-006  0.1427521E+03  0.7546771E-02  0.1222632E+00
         -2   -1    0    0    0  501 -0.00000000000E+00  0.00000000000E+00  0.15126071764E+03  0.15126071764E+03  0.00000000000E+00 0.  1.
          2   -1    0    0  501    0  0.00000000000E+00 -0.00000000000E+00 -0.10550322650E+03  0.10550322650E+03  0.00000000000E+00 0. -1.
         23    2    1    2    0    0 -0.57219413549E+02  0.38443645767E+02  0.12829974991E+02  0.14332748999E+03  0.12500474368E+03 0.  0.
          5    1    3    3  502    0 -0.19512899241E+02  0.76010337145E+02  0.34260624949E+02  0.85756661617E+02  0.47000000000E+01 0.  1.
         -5    1    3    3    0  502 -0.37706514309E+02 -0.37566691378E+02 -0.21430649958E+02  0.57570828377E+02  0.47000000000E+01 0.  1.
        -11    1    1    2    0    0  0.71944580360E+02 -0.25829115103E+02  0.46769176416E+02  0.89613178120E+02  0.00000000000E+00 0.  1.
         11    1    1    2    0    0 -0.14725166810E+02 -0.12614530664E+02 -0.13841660271E+02  0.23823276024E+02  0.00000000000E+00 0. -1.
<mgrwt>
<rscale>  0 0.13330507E+03</rscale>
<asrwt>0</asrwt>
<pdfrwt beam="2">  1        2 0.16231266E-01 0.14275210E+03</pdfrwt>
<pdfrwt beam="1">  1       -2 0.23270880E-01 0.14275210E+03</pdfrwt>
<totfact> 0.54647925E+03</totfact>
</mgrwt>
</event>
<event>
 7    1  0.7800420E-006  0.1509591E+03  0.7546771E-02  0.1208246E+00
          4   -1    0    0  501    0  0.00000000000E+00  0.00000000000E+00  0.77066144145E+02  0.77066144145E+02  0.00000000000E+00 0. -1.
         -4   -1    0    0    0  501 -0.00000000000E+00 -0.00000000000E+00 -0.29601087443E+03  0.29601087443E+03  0.00000000000E+00 0.  1.
         23    2    1    2    0    0  0.83365908940E+02 -0.14605258736E+02 -0.41899924705E+02  0.15666603884E+03  0.12500182270E+03 0.  0.
          5    1    3    3  502    0 -0.30421331202E+02  0.13313606397E+02 -0.63016843542E+01  0.34124928324E+02  0.47000000000E+01 0.  1.
         -5    1    3    3    0  502  0.11378724014E+03 -0.27918865133E+02 -0.35598240350E+02  0.12254111051E+03  0.47000000000E+01 0.  1.
        -11    1    1    2    0    0 -0.98095961943E+02 -0.45419242951E+01 -0.15619453040E+03  0.18449980529E+03  0.00000000000E+00 0.  1.
         11    1    1    2    0    0  0.14730053003E+02  0.19147183031E+02 -0.20850275183E+02  0.31911174449E+02  0.00000000000E+00 0. -1.
<mgrwt>
<rscale>  0 0.14384568E+03</rscale>
<asrwt>0</asrwt>
<pdfrwt beam="1">  1        4 0.11856330E-01 0.15095908E+03</pdfrwt>
<pdfrwt beam="2">  1       -4 0.45540135E-01 0.15095908E+03</pdfrwt>
<totfact> 0.45091768E+02</totfact>
</mgrwt>
</event>
<event>
 7    1  0.7800420E-006  0.1429568E+03  0.7546771E-02  0.1219113E+00
         -2   -1    0    0    0  501 -0.00000000000E+00  0.00000000000E+00  0.24392091132E+02  0.24392091132E+02  0.00000000000E+00 0.  1.
          2   -1    0    0  501    0  0.00000000000E+00 -0.00000000000E+00 -0.68923365949E+03  0.68923365949E+03  0.00000000000E+00 0. -1.
         23    2    1    2    0    0 -0.34803069727E+02  0.59996018911E+02 -0.36666469972E+03  0.39354751341E+03  0.12500346931E+03 0.  0.
          5    1    3    3  502    0  0.30736695401E+01  0.18129053048E+02 -0.31884811434E+03  0.31941246066E+03  0.47000000000E+01 0. -1.
         -5    1    3    3    0  502 -0.37876739267E+02  0.41866965863E+02 -0.47816585384E+02  0.74135052747E+02  0.47000000000E+01 0. -1.
        -11    1    1    2    0    0  0.67177055094E+02 -0.42673295382E+02 -0.19912317711E+03  0.21443835135E+03  0.00000000000E+00 0.  1.
         11    1    1    2    0    0 -0.32373985367E+02 -0.17322723529E+02 -0.99053691528E+02  0.10563988586E+03  0.00000000000E+00 0. -1.
<mgrwt>
<rscale>  0 0.13578708E+03</rscale>
<asrwt>0</asrwt>
<pdfrwt beam="2">  1        2 0.10603594E+00 0.14295679E+03</pdfrwt>
<pdfrwt beam="1">  1       -2 0.37526298E-02 0.14295679E+03</pdfrwt>
<totfact> 0.12383245E+04</totfact>
</mgrwt>
</event>
<event>
 7    1  0.7800420E-006  0.1655593E+03  0.7546771E-02  0.1191108E+00
          1   -1    0    0  501    0  0.00000000000E+00  0.00000000000E+00  0.80056554618E+02  0.80056554618E+02  0.00000000000E+00 0. -1.
         -1   -1    0    0    0  501 -0.00000000000E+00 -0.00000000000E+00 -0.28969817233E+03  0.28969817233E+03  0.00000000000E+00 0.  1.
         23    2    1    2    0    0 -0.85466984672E+02 -0.66932056373E+02 -0.93047337513E+02  0.18991495535E+03  0.12500151042E+03 0.  0.
          5    1    3    3  502    0  0.83254667856E+01 -0.78632515227E+01 -0.76797448792E+02  0.77788702668E+02  0.47000000000E+01 0.  1.
         -5    1    3    3    0  502 -0.93792451458E+02 -0.59068804850E+02 -0.16249888721E+02  0.11212625268E+03  0.47000000000E+01 0.  1.
        -11    1    1    2    0    0  0.70798675183E+02  0.76532222626E+02 -0.59340387320E+02  0.11996214017E+03  0.00000000000E+00 0. -1.
         11    1    1    2    0    0  0.14668309490E+02 -0.96001662532E+01 -0.57253892873E+02  0.59877631421E+02  0.00000000000E+00 0.  1.
<mgrwt>
<rscale>  0 0.15788283E+03</rscale>
<asrwt>0</asrwt>
<pdfrwt beam="1">  1        1 0.12316393E-01 0.16555930E+03</pdfrwt>
<pdfrwt beam="2">  1       -1 0.44568949E-01 0.16555930E+03</pdfrwt>
<totfact> 0.24059527E+03</totfact>
</mgrwt>
</event>
<event>
 7    1  0.7800420E-006  0.2081561E+03  0.7546771E-02  0.1147005E+00
          2   -1    0    0  501    0  0.00000000000E+00  0.00000000000E+00  0.99170512513E+03  0.99170512513E+03  0.00000000000E+00 0. -1.
         -2   -1    0    0    0  501 -0.00000000000E+00 -0.00000000000E+00 -0.47060533190E+02  0.47060533190E+02  0.00000000000E+00 0.  1.
         23    2    1    2    0    0  0.90449552466E+01 -0.16619875476E+03  0.69473520775E+03  0.72524890699E+03  0.12500052362E+03 0.  0.
          5    1    3    3  502    0  0.27559312404E+02 -0.14413391334E+03  0.67308203403E+03  0.68890900358E+03  0.47000000000E+01 0. -1.
         -5    1    3    3    0  502 -0.18514357158E+02 -0.22064841421E+02  0.21653173716E+02  0.36339903411E+02  0.47000000000E+01 0. -1.
        -11    1    1    2    0    0  0.24445241993E+02  0.10587947286E+03  0.96584645889E+02  0.14538440924E+03  0.00000000000E+00 0.  1.
         11    1    1    2    0    0 -0.33490197239E+02  0.60319281899E+02  0.15332473830E+03  0.16813234209E+03  0.00000000000E+00 0. -1.
<mgrwt>
<rscale>  0 0.20327545E+03</rscale>
<asrwt>0</asrwt>
<pdfrwt beam="1">  1        2 0.15257000E+00 0.20815611E+03</pdfrwt>
<pdfrwt beam="2">  1       -2 0.72400828E-02 0.20815611E+03</pdfrwt>
<totfact> 0.29205585E+03</totfact>
</mgrwt>
</event>
<event>
 7    1  0.7800420E-006  0.1360160E+03  0.7546771E-02  0.1227820E+00
          2   -1    0    0  501    0  0.00000000000E+00  0.00000000000E+00  0.18854860746E+03  0.18854860746E+03  0.00000000000E+00 0. -1.
         -2   -1    0    0    0  501 -0.00000000000E+00 -0.00000000000E+00 -0.94768995325E+02  0.94768995325E+02  0.00000000000E+00 0.  1.
         23    2    1    2    0    0  0.21045354754E+02  0.49295561673E+02  0.10252901126E+03  0.17033073341E+03  0.12500960458E+03 0.  0.
          5    1    3    3  502    0  0.34996317782E+02  0.62607982959E+02  0.12259108700E+03  0.14210969847E+03  0.47000000000E+01 0. -1.
         -5    1    3    3    0  502 -0.13950963028E+02 -0.13312421287E+02 -0.20062075739E+02  0.28221034936E+02  0.47000000000E+01 0. -1.
        -11    1    1    2    0    0  0.18935458650E+02  0.22365314181E+02 -0.98631395871E+01  0.30919902898E+02  0.00000000000E+00 0.  1.
         11    1    1    2    0    0 -0.39980813404E+02 -0.71660875854E+02  0.11137404585E+01  0.82066966475E+02  0.00000000000E+00 0. -1.
<mgrwt>
<rscale>  0 0.12975469E+03</rscale>
<asrwt>0</asrwt>
<pdfrwt beam="1">  1        2 0.29007478E-01 0.13601603E+03</pdfrwt>
<pdfrwt beam="2">  1       -2 0.14579845E-01 0.13601603E+03</pdfrwt>
<totfact> 0.62186124E+03</totfact>
</mgrwt>
</event>
<event>
 7    1  0.7800420E-006  0.2096063E+03  0.7546771E-02  0.1145527E+00
         -1   -1    0    0    0  501 -0.00000000000E+00  0.00000000000E+00  0.59786043448E+03  0.59786043448E+03  0.00000000000E+00 0.  1.
          1   -1    0    0  501    0  0.00000000000E+00 -0.00000000000E+00 -0.12319464899E+03  0.12319464899E+03  0.00000000000E+00 0. -1.
         23    2    1    2    0    0 -0.90767650788E+02  0.14167066679E+03  0.64917003728E+00  0.20960735207E+03  0.12500190543E+03 0.  0.
          5    1    3    3  502    0 -0.11342901357E+03  0.72275161161E+02  0.13783541713E+02  0.13528457437E+03  0.47000000000E+01 0.  1.
         -5    1    3    3    0  502  0.22661362786E+02  0.69395505633E+02 -0.13134371676E+02  0.74322777698E+02  0.47000000000E+01 0.  1.
        -11    1    1    2    0    0 -0.13777336900E+02 -0.35656645421E+02  0.56846316655E+02  0.68503394748E+02  0.00000000000E+00 0. -1.
         11    1    1    2    0    0  0.10454498769E+03 -0.10601402137E+03  0.41717029880E+03  0.44294433666E+03  0.00000000000E+00 0.  1.
<mgrwt>
<rscale>  0 0.20507491E+03</rscale>
<asrwt>0</asrwt>
<pdfrwt beam="2">  1        1 0.18953023E-01 0.20960635E+03</pdfrwt>
<pdfrwt beam="1">  1       -1 0.91978526E-01 0.20960635E+03</pdfrwt>
<totfact> 0.33407210E+02</totfact>
</mgrwt>
</event>
<event>
 7    1  0.7800420E-006  0.1489249E+03  0.7546771E-02  0.1211030E+00
          1   -1    0    0  501    0  0.00000000000E+00  0.00000000000E+00  0.41142342301E+03  0.41142342301E+03  0.00000000000E+00 0. -1.
         -1   -1    0    0    0  501 -0.00000000000E+00 -0.00000000000E+00 -0.11375436425E+03  0.11375436425E+03  0.00000000000E+00 0.  1.
         23    2    1    2    0    0 -0.80886785221E+02 -0.33752438681E+01  0.35888547855E+03  0.38855811917E+03  0.12499824383E+03 0.  0.
          5    1    3    3  502    0  0.20237374543E+02  0.31272916913E+02  0.56839667282E+02  0.68120367273E+02  0.47000000000E+01 0. -1.
         -5    1    3    3    0  502 -0.10112415976E+03 -0.34648160781E+02  0.30204581127E+03  0.32043775189E+03  0.47000000000E+01 0. -1.
        -11    1    1    2    0    0  0.61871504325E+02  0.35865641154E+02 -0.87555955203E+01  0.72049203436E+02  0.00000000000E+00 0. -1.
         11    1    1    2    0    0  0.19015280896E+02 -0.32490397286E+02 -0.52460824271E+02  0.64570464661E+02  0.00000000000E+00 0.  1.
<mgrwt>
<rscale>  0 0.14172205E+03</rscale>
<asrwt>0</asrwt>
<pdfrwt beam="1">  1        1 0.63295911E-01 0.14892490E+03</pdfrwt>
<pdfrwt beam="2">  1       -1 0.17500672E-01 0.14892490E+03</pdfrwt>
<totfact> 0.14489627E+03</totfact>
</mgrwt>
</event>
<event>
 7    1  0.7800420E-006  0.1285188E+03  0.7546771E-02  0.1243340E+00
          2   -1    0    0  501    0  0.00000000000E+00  0.00000000000E+00  0.65013633475E+03  0.65013633475E+03  0.00000000000E+00 0. -1.
         -2   -1    0    0    0  501 -0.00000000000E+00 -0.00000000000E+00 -0.19630765527E+02  0.19630765527E+02  0.00000000000E+00 0.  1.
         23    2    1    2    0    0 -0.70376580606E+01 -0.29051257914E+02  0.37350870830E+03  0.39500105804E+03  0.12499430570E+03 0.  0.
          5    1    3    3  502    0 -0.38135417815E+02  0.33521857006E+02  0.94972458631E+02  0.10779556061E+03  0.47000000000E+01 0.  1.
         -5    1    3    3    0  502  0.31097759755E+02 -0.62573114920E+02  0.27853624967E+03  0.28720549743E+03  0.47000000000E+01 0.  1.
        -11    1    1    2    0    0  0.32861450445E+02  0.35464075050E+02  0.23591543434E+03  0.24081874450E+03  0.00000000000E+00 0. -1.
         11    1    1    2    0    0 -0.25823792384E+02 -0.64128171365E+01  0.21081426579E+02  0.33947297732E+02  0.00000000000E+00 0.  1.
<mgrwt>
<rscale>  0 0.11985279E+03</rscale>
<asrwt>0</asrwt>
<pdfrwt beam="1">  1        2 0.10002096E+00 0.12851880E+03</pdfrwt>
<pdfrwt beam="2">  1       -2 0.30201183E-02 0.12851880E+03</pdfrwt>
<totfact> 0.18126113E+04</totfact>
</mgrwt>
</event>
<event>
 7    1  0.7800420E-006  0.1657266E+03  0.7546771E-02  0.1189104E+00
          1   -1    0    0  501    0  0.00000000000E+00  0.00000000000E+00  0.26839018710E+03  0.26839018710E+03  0.00000000000E+00 0. -1.
         -1   -1    0    0    0  501 -0.00000000000E+00 -0.00000000000E+00 -0.90352307559E+02  0.90352307559E+02  0.00000000000E+00 0.  1.
         23    2    1    2    0    0  0.86701042297E+02 -0.65751848361E+02  0.12044097668E+03  0.20486902906E+03  0.12499965562E+03 0.  0.
          5    1    3    3  502    0  0.19699153045E+02  0.37034288334E+02  0.39467667928E+02  0.57787385775E+02  0.47000000000E+01 0.  1.
         -5    1    3    3    0  502  0.67001889252E+02 -0.10278613669E+03  0.80973308753E+02  0.14708164328E+03  0.47000000000E+01 0.  1.
        -11    1    1    2    0    0 -0.47215537102E+02  0.61747170308E+02  0.77247978720E+02  0.10958681582E+03  0.00000000000E+00 0. -1.
         11    1    1    2    0    0 -0.39485505195E+02  0.40046780521E+01 -0.19651075858E+02  0.44286649785E+02  0.00000000000E+00 0.  1.
<mgrwt>
<rscale>  0 0.15963949E+03</rscale>
<asrwt>0</asrwt>
<pdfrwt beam="1">  1        1 0.41290798E-01 0.16572655E+03</pdfrwt>
<pdfrwt beam="2">  1       -1 0.13900355E-01 0.16572655E+03</pdfrwt>
<totfact> 0.35693669E+03</totfact>
</mgrwt>
</event>
<event>
 7    1  0.7800420E-006  0.1259370E+03  0.7546771E-02  0.1249167E+00
         -1   -1    0    0    0  501 -0.00000000000E+00  0.00000000000E+00  0.60114760169E+02  0.60114760169E+02  0.00000000000E+00 0.  1.
          1   -1    0    0  501    0  0.00000000000E+00 -0.00000000000E+00 -0.20304633655E+03  0.20304633655E+03  0.00000000000E+00 0. -1.
         23    2    1    2    0    0 -0.30779074483E+01  0.14927420243E+02 -0.10415149372E+03  0.16342481817E+03  0.12501134413E+03 0.  0.
          5    1    3    3  502    0 -0.42112515848E+02  0.55193470171E+02 -0.60398406538E+02  0.92140331304E+02  0.47000000000E+01 0. -1.
         -5    1    3    3    0  502  0.39034608400E+02 -0.40266049928E+02 -0.43753087178E+02  0.71284486863E+02  0.47000000000E+01 0. -1.
        -11    1    1    2    0    0 -0.28239875429E+02 -0.22336074949E+02  0.13409959830E+02  0.38421580277E+02  0.00000000000E+00 0. -1.
         11    1    1    2    0    0  0.31317782877E+02  0.74086547062E+01 -0.52190042499E+02  0.61314698278E+02  0.00000000000E+00 0.  1.
<mgrwt>
<rscale>  0 0.11639383E+03</rscale>
<asrwt>0</asrwt>
<pdfrwt beam="2">  1        1 0.31237898E-01 0.12593704E+03</pdfrwt>
<pdfrwt beam="1">  1       -1 0.92484247E-02 0.12593704E+03</pdfrwt>
<totfact> 0.92925093E+03</totfact>
</mgrwt>
</event>
<event>
 7    1  0.7800420E-006  0.2372655E+03  0.7546771E-02  0.1124575E+00
         -3   -1    0    0    0  501 -0.00000000000E+00  0.00000000000E+00  0.68894300406E+03  0.68894300406E+03  0.00000000000E+00 0.  1.
          3   -1    0    0  501    0  0.00000000000E+00 -0.00000000000E+00 -0.80112411675E+02  0.80112411675E+02  0.00000000000E+00 0. -1.
         23    2    1    2    0    0 -0.14890685900E+03 -0.13597705968E+03  0.22836037202E+03  0.32930743098E+03  0.12502764164E+03 0.  0.
          5    1    3    3  502    0 -0.14436585638E+02 -0.80434380096E+02  0.13000725778E+03  0.15362968978E+03  0.47000000000E+01 0. -1.
         -5    1    3    3    0  502 -0.13447027336E+03 -0.55542679581E+02  0.98353114245E+02  0.17567774121E+03  0.47000000000E+01 0. -1.
        -11    1    1    2    0    0  0.38338044608E+00  0.19003298434E+02  0.54564285281E+01  0.19774856364E+02  0.00000000000E+00 0. -1.
         11    1    1    2    0    0  0.14852347856E+03  0.11697376124E+03  0.37501379184E+03  0.41997312839E+03  0.00000000000E+00 0.  1.
<mgrwt>
<rscale>  0 0.23295853E+03</rscale>
<asrwt>0</asrwt>
<pdfrwt beam="2">  1        3 0.12324987E-01 0.23726551E+03</pdfrwt>
<pdfrwt beam="1">  1       -3 0.10599123E+00 0.23726551E+03</pdfrwt>
<totfact> 0.10182239E+02</totfact>
</mgrwt>
</event>
<event>
 7    1  0.7800420E-006  0.1817553E+03  0.7546771E-02  0.1171486E+00
         -2   -1    0    0    0  501 -0.00000000000E+00  0.00000000000E+00  0.57872396531E+02  0.57872396531E+02  0.00000000000E+00 0.  1.
          2   -1    0    0  501    0  0.00000000000E+00 -0.00000000000E+00 -0.67019278390E+03  0.67019278390E+03  0.00000000000E+00 0. -1.
         23    2    1    2    0    0  0.90161797431E+02 -0.96351493550E+02 -0.49997973838E+03  0.53199128052E+03  0.12498889446E+03 0.  0.
          5    1    3    3  502    0 -0.11274480159E+02  0.13443561234E+02 -0.15405618113E+03  0.15512330639E+03  0.47000000000E+01 0. -1.
         -5    1    3    3    0  502  0.10143627759E+03 -0.10979505478E+03 -0.34592355725E+03  0.37686797413E+03  0.47000000000E+01 0. -1.
        -11    1    1    2    0    0 -0.35993378868E+02  0.35874160701E+01  0.55356267788E+01  0.36592841379E+02  0.00000000000E+00 0.  1.
         11    1    1    2    0    0 -0.54168418563E+02  0.92764077480E+02 -0.11787627577E+03  0.15948105853E+03  0.00000000000E+00 0. -1.
<mgrwt>
<rscale>  0 0.17624605E+03</rscale>
<asrwt>0</asrwt>
<pdfrwt beam="2">  1        2 0.10310658E+00 0.18175529E+03</pdfrwt>
<pdfrwt beam="1">  1       -2 0.89034461E-02 0.18175529E+03</pdfrwt>
<totfact> 0.34794908E+03</totfact>
</mgrwt>
</event>
<event>
 7    1  0.7800420E-006  0.2116497E+03  0.7546771E-02  0.1144114E+00
          2   -1    0    0  501    0  0.00000000000E+00  0.00000000000E+00  0.23625491371E+03  0.23625491371E+03  0.00000000000E+00 0. -1.
         -2   -1    0    0    0  501 -0.00000000000E+00 -0.00000000000E+00 -0.23629497758E+03  0.23629497758E+03  0.00000000000E+00 0.  1.
         23    2    1    2    0    0  0.10359339784E+03 -0.13579173997E+03  0.12194214029E+03  0.24426519302E+03  0.12499844088E+03 0.  0.
          5    1    3    3  502    0 -0.23476795453E+01 -0.85265248586E+01  0.69918247437E+02  0.70631894708E+02  0.47000000000E+01 0. -1.
         -5    1    3    3    0  502  0.10594107738E+03 -0.12726521512E+03  0.52023892850E+02  0.17363329831E+03  0.47000000000E+01 0. -1.
        -11    1    1    2    0    0 -0.30215877994E+02  0.83219015529E+02 -0.17567495393E+02  0.90260848229E+02  0.00000000000E+00 0.  1.
         11    1    1    2    0    0 -0.73377519842E+02  0.52572724445E+02 -0.10441470877E+03  0.13802385004E+03  0.00000000000E+00 0. -1.
<mgrwt>
<rscale>  0 0.20681454E+03</rscale>
<asrwt>0</asrwt>
<pdfrwt beam="1">  1        2 0.36346910E-01 0.21164971E+03</pdfrwt>
<pdfrwt beam="2">  1       -2 0.36353073E-01 0.21164971E+03</pdfrwt>
<totfact> 0.10116590E+03</totfact>
</mgrwt>
</event>
<event>
 7    1  0.7800420E-006  0.1576218E+03  0.7546771E-02  0.1199357E+00
         -1   -1    0    0    0  501 -0.00000000000E+00  0.00000000000E+00  0.10014395320E+03  0.10014395320E+03  0.00000000000E+00 0.  1.
          1   -1    0    0  501    0  0.00000000000E+00 -0.00000000000E+00 -0.21272872578E+03  0.21272872578E+03  0.00000000000E+00 0. -1.
         23    2    1    2    0    0 -0.95937346737E+02  0.39663446882E+01 -0.43625583641E+02  0.16354763760E+03  0.12499972731E+03 0.  0.
          5    1    3    3  502    0 -0.83174748407E+02  0.50129012941E+02  0.19794414040E+01  0.97246927454E+02  0.47000000000E+01 0. -1.
         -5    1    3    3    0  502 -0.12762598330E+02 -0.46162668253E+02 -0.45605025045E+02  0.66300710145E+02  0.47000000000E+01 0. -1.
        -11    1    1    2    0    0  0.79965432095E+02  0.33615842719E+02 -0.64806408023E+02  0.10827911032E+03  0.00000000000E+00 0. -1.
         11    1    1    2    0    0  0.15971914641E+02 -0.37582187407E+02 -0.41527809151E+01  0.41045931065E+02  0.00000000000E+00 0.  1.
<mgrwt>
<rscale>  0 0.15091208E+03</rscale>
<asrwt>0</asrwt>
<pdfrwt beam="2">  1        1 0.32727496E-01 0.15762182E+03</pdfrwt>
<pdfrwt beam="1">  1       -1 0.15406762E-01 0.15762182E+03</pdfrwt>
<totfact> 0.40450290E+03</totfact>
</mgrwt>
</event>
<event>
 7    1  0.7800420E-006  0.1423395E+03  0.7546771E-02  0.1220899E+00
          2   -1    0    0  501    0  0.00000000000E+00  0.00000000000E+00  0.22511293638E+03  0.22511293638E+03  0.00000000000E+00 0. -1.
         -2   -1    0    0    0  501 -0.00000000000E+00 -0.00000000000E+00 -0.78507256930E+02  0.78507256930E+02  0.00000000000E+00 0.  1.
         23    2    1    2    0    0  0.29846985903E+02  0.61180413511E+02  0.12193124570E+03  0.18742403474E+03  0.12500661805E+03 0.  0.
          5    1    3    3  502    0 -0.19164414384E+02 -0.20706775419E+02 -0.44930238275E+01  0.28953800960E+02  0.47000000000E+01 0.  1.
         -5    1    3    3    0  502  0.49011400288E+02  0.81887188930E+02  0.12642426952E+03  0.15847023378E+03  0.47000000000E+01 0.  1.
        -11    1    1    2    0    0 -0.54858590084E+02 -0.19370969032E+02 -0.62152563687E+01  0.58509219436E+02  0.00000000000E+00 0.  1.
         11    1    1    2    0    0  0.25011604181E+02 -0.41809444478E+02  0.30889690126E+02  0.57686939140E+02  0.00000000000E+00 0. -1.
<mgrwt>
<rscale>  0 0.13452011E+03</rscale>
<asrwt>0</asrwt>
<pdfrwt beam="1">  1        2 0.34632759E-01 0.14233952E+03</pdfrwt>
<pdfrwt beam="2">  1       -2 0.12078040E-01 0.14233952E+03</pdfrwt>
<totfact> 0.69799680E+03</totfact>
</mgrwt>
</event>
<event>
 7    1  0.7800420E-006  0.1388753E+03  0.7546771E-02  0.1226021E+00
          1   -1    0    0  501    0  0.00000000000E+00  0.00000000000E+00  0.73598802515E+03  0.73598802515E+03  0.00000000000E+00 0. -1.
         -1   -1    0    0    0  501 -0.00000000000E+00 -0.00000000000E+00 -0.21486542656E+02  0.21486542656E+02  0.00000000000E+00 0.  1.
         23    2    1    2    0    0 -0.43472212386E+02  0.42078789127E+02  0.45372432144E+03  0.47450196034E+03  0.12500357095E+03 0.  0.
          5    1    3    3  502    0 -0.48263746058E+02  0.55521645053E+00  0.41339326827E+03  0.41622804051E+03  0.47000000000E+01 0. -1.
         -5    1    3    3    0  502  0.47915336716E+01  0.41523572676E+02  0.40331053170E+02  0.58273919831E+02  0.47000000000E+01 0. -1.
        -11    1    1    2    0    0  0.22572686776E+01 -0.60995574599E+02  0.18334724930E+03  0.19324018528E+03  0.00000000000E+00 0. -1.
         11    1    1    2    0    0  0.41214943708E+02  0.18916785472E+02  0.77429911749E+02  0.89732422183E+02  0.00000000000E+00 0.  1.
<mgrwt>
<rscale>  0 0.13097145E+03</rscale>
<asrwt>0</asrwt>
<pdfrwt beam="1">  1        1 0.11322891E+00 0.13887531E+03</pdfrwt>
<pdfrwt beam="2">  1       -1 0.33056225E-02 0.13887531E+03</pdfrwt>
<totfact> 0.82343664E+03</totfact>
</mgrwt>
</event>
<event>
 7    1  0.7800420E-006  0.1257966E+03  0.7546771E-02  0.1248329E+00
         -2   -1    0    0    0  501 -0.00000000000E+00  0.00000000000E+00  0.27492399982E+02  0.27492399982E+02  0.00000000000E+00 0.  1.
          2   -1    0    0  501    0  0.00000000000E+00 -0.00000000000E+00 -0.47629282288E+03  0.47629282288E+03  0.00000000000E+00 0. -1.
         23    2    1    2    0    0  0.13533950845E+02 -0.38701496387E+01 -0.32494274972E+03  0.34844308071E+03  0.12500657588E+03 0.  0.
          5    1    3    3  502    0 -0.21807526852E+02 -0.53298110376E+02 -0.10103176524E+03  0.11638627232E+03  0.47000000000E+01 0. -1.
         -5    1    3    3    0  502  0.35341477697E+02  0.49427960737E+02 -0.22391098448E+03  0.23205680839E+03  0.47000000000E+01 0. -1.
        -11    1    1    2    0    0  0.34149883520E+02  0.69683326103E+01 -0.90739409149E+02  0.97202945308E+02  0.00000000000E+00 0.  1.
         11    1    1    2    0    0 -0.47683834365E+02 -0.30981829717E+01 -0.33118264024E+02  0.58139196842E+02  0.00000000000E+00 0. -1.
<mgrwt>
<rscale>  0 0.11688349E+03</rscale>
<asrwt>0</asrwt>
<pdfrwt beam="2">  1        2 0.73275808E-01 0.12579662E+03</pdfrwt>
<pdfrwt beam="1">  1       -2 0.42296006E-02 0.12579662E+03</pdfrwt>
<totfact> 0.15582694E+04</totfact>
</mgrwt>
</event>
<event>
 7    1  0.7800420E-006  0.1556895E+03  0.7546771E-02  0.1201398E+00
          1   -1    0    0  501    0  0.00000000000E+00  0.00000000000E+00  0.47621874587E+02  0.47621874587E+02  0.00000000000E+00 0. -1.
         -1   -1    0    0    0  501 -0.00000000000E+00 -0.00000000000E+00 -0.47338481970E+03  0.47338481970E+03  0.00000000000E+00 0.  1.
         23    2    1    2    0    0 -0.75144890949E+02 -0.54755884385E+02 -0.15338966824E+03  0.21855799334E+03  0.12487691788E+03 0.  0.
          5    1    3    3  502    0  0.16136321112E+02  0.13599168817E+02 -0.79986736308E+02  0.82857022857E+02  0.47000000000E+01 0.  1.
         -5    1    3    3    0  502 -0.91281212061E+02 -0.68355053202E+02 -0.73402931928E+02  0.13570097048E+03  0.47000000000E+01 0.  1.
        -11    1    1    2    0    0 -0.28295180762E+01 -0.20271936728E+02 -0.24101560255E+02  0.31620290921E+02  0.00000000000E+00 0. -1.
         11    1    1    2    0    0  0.77974409025E+02  0.75027821113E+02 -0.24827171662E+03  0.27082841003E+03  0.00000000000E+00 0.  1.
<mgrwt>
<rscale>  0 0.14924938E+03</rscale>
<asrwt>0</asrwt>
<pdfrwt beam="1">  1        1 0.73264421E-02 0.15568945E+03</pdfrwt>
<pdfrwt beam="2">  1       -1 0.72828436E-01 0.15568945E+03</pdfrwt>
<totfact> 0.18993110E+03</totfact>
</mgrwt>
</event>
<event>
 6    1  0.7800420E-006  0.1829332E+03  0.7546771E-02  0.1193371E+00
         -4   -1    0    0    0  501 -0.00000000000E+00  0.00000000000E+00  0.14294742231E+03  0.14294742231E+03  0.00000000000E+00 0. -1.
          4   -1    0    0  501    0  0.00000000000E+00 -0.00000000000E+00 -0.38800021920E+03  0.38800021920E+03  0.00000000000E+00 0.  1.
          5    1    1    2  502    0 -0.68287784162E+02 -0.81164838503E+02 -0.18545212123E+03  0.21369495021E+03  0.47000000000E+01 0. -1.
         -5    1    1    2    0  502  0.57062990191E+02  0.50196436063E+02 -0.16046432690E+03  0.17761406828E+03  0.47000000000E+01 0.  1.
        -11    1    1    2    0    0 -0.29714043361E+02 -0.77759844737E+01  0.67447736503E+02  0.74111992732E+02  0.00000000000E+00 0.  1.
         11    1    1    2    0    0  0.40938837332E+02  0.38744386914E+02  0.33415914735E+02  0.65526630288E+02  0.00000000000E+00 0. -1.
<mgrwt>
<rscale>  0 0.15592949E+03</rscale>
<asrwt>0</asrwt>
<pdfrwt beam="2">  1        4 0.59692341E-01 0.18293321E+03</pdfrwt>
<pdfrwt beam="1">  1       -4 0.21991911E-01 0.18293321E+03</pdfrwt>
<totfact> 0.89357135E+01</totfact>
</mgrwt>
</event>
<event>
 7    1  0.7800420E-006  0.1824702E+03  0.7546771E-02  0.1171504E+00
          4   -1    0    0  501    0  0.00000000000E+00  0.00000000000E+00  0.86437313199E+03  0.86437313199E+03  0.00000000000E+00 0. -1.
         -4   -1    0    0    0  501 -0.00000000000E+00 -0.00000000000E+00 -0.78828746048E+02  0.78828746048E+02  0.00000000000E+00 0.  1.
         23    2    1    2    0    0  0.92225347358E+02  0.95732475950E+02  0.76098941663E+03  0.78256007089E+03  0.12500060270E+03 0.  0.
          5    1    3    3  502    0 -0.80046763110E+00  0.76987739595E+02  0.21620860097E+03  0.22955609756E+03  0.47000000000E+01 0. -1.
         -5    1    3    3    0  502  0.93025814989E+02  0.18744736354E+02  0.54478081566E+03  0.55300397332E+03  0.47000000000E+01 0. -1.
        -11    1    1    2    0    0 -0.37250365570E+02 -0.64526994717E+02 -0.26816274601E+02  0.79186080631E+02  0.00000000000E+00 0.  1.
         11    1    1    2    0    0 -0.54974981788E+02 -0.31205481233E+02  0.51371243910E+02  0.81455726517E+02  0.00000000000E+00 0. -1.
<mgrwt>
<rscale>  0 0.17622810E+03</rscale>
<asrwt>0</asrwt>
<pdfrwt beam="1">  1        4 0.13298048E+00 0.18247020E+03</pdfrwt>
<pdfrwt beam="2">  1       -4 0.12127500E-01 0.18247020E+03</pdfrwt>
<totfact> 0.41306317E+01</totfact>
</mgrwt>
</event>
<event>
 7    1  0.7800420E-006  0.2087281E+03  0.7546771E-02  0.1146464E+00
         -3   -1    0    0    0  501 -0.00000000000E+00  0.00000000000E+00  0.10916872486E+03  0.10916872486E+03  0.00000000000E+00 0.  1.
          3   -1    0    0  501    0  0.00000000000E+00 -0.00000000000E+00 -0.36674680068E+03  0.36674680068E+03  0.00000000000E+00 0. -1.
         23    2    1    2    0    0  0.11221339656E+03  0.12389363226E+03 -0.15362695121E+03  0.25916920467E+03  0.12500383207E+03 0.  0.
          5    1    3    3  502    0  0.23997585541E+02  0.10949971883E+03 -0.51743672934E+02  0.12355391627E+03  0.47000000000E+01 0. -1.
         -5    1    3    3    0  502  0.88215811016E+02  0.14393913423E+02 -0.10188327827E+03  0.13561528840E+03  0.47000000000E+01 0. -1.
        -11    1    1    2    0    0 -0.36406461709E+01 -0.56509648947E+02 -0.85282743186E+01  0.57265401347E+02  0.00000000000E+00 0.  1.
         11    1    1    2    0    0 -0.10857275039E+03 -0.67383983310E+02 -0.95422850298E+02  0.15948091952E+03  0.00000000000E+00 0. -1.
<mgrwt>
<rscale>  0 0.20393136E+03</rscale>
<asrwt>0</asrwt>
<pdfrwt beam="2">  1        3 0.56422584E-01 0.20872814E+03</pdfrwt>
<pdfrwt beam="1">  1       -3 0.16795189E-01 0.20872814E+03</pdfrwt>
<totfact> 0.23405024E+02</totfact>
</mgrwt>
</event>
<event>
 7    1  0.7800420E-006  0.1986013E+03  0.7546771E-02  0.1155445E+00
         -2   -1    0    0    0  501 -0.00000000000E+00  0.00000000000E+00  0.15312178576E+02  0.15312178576E+02  0.00000000000E+00 0.  1.
          2   -1    0    0  501    0  0.00000000000E+00 -0.00000000000E+00 -0.24851811036E+04  0.24851811036E+04  0.00000000000E+00 0. -1.
         23    2    1    2    0    0 -0.15361312449E+03 -0.14710007747E+02 -0.16160448258E+04  0.16282024970E+04  0.12501646166E+03 0.  0.
          5    1    3    3  502    0  0.44389565685E+01  0.70662435896E+01 -0.56730526049E+03  0.56738609845E+03  0.47000000000E+01 0. -1.
         -5    1    3    3    0  502 -0.15805208106E+03 -0.21776251337E+02 -0.10487395653E+04  0.10608163985E+04  0.47000000000E+01 0. -1.
        -11    1    1    2    0    0  0.10542200022E+03 -0.33251016021E+02 -0.52521312952E+03  0.53671990797E+03  0.00000000000E+00 0. -1.
         11    1    1    2    0    0  0.48191124267E+02  0.47961023769E+02 -0.32861096970E+03  0.33557087726E+03  0.00000000000E+00 0.  1.
<mgrwt>
<rscale>  0 0.19338330E+03</rscale>
<asrwt>0</asrwt>
<pdfrwt beam="2">  1        2 0.38233552E+00 0.19860134E+03</pdfrwt>
<pdfrwt beam="1">  1       -2 0.23557200E-02 0.19860134E+03</pdfrwt>
<totfact> 0.24940038E+03</totfact>
</mgrwt>
</event>
<event>
 7    1  0.7800420E-006  0.2093092E+03  0.7546771E-02  0.1145952E+00
          4   -1    0    0  501    0  0.00000000000E+00  0.00000000000E+00  0.83467064113E+02  0.83467064113E+02  0.00000000000E+00 0. -1.
         -4   -1    0    0    0  501 -0.00000000000E+00 -0.00000000000E+00 -0.48651548396E+03  0.48651548396E+03  0.00000000000E+00 0.  1.
         23    2    1    2    0    0  0.58277832245E+02  0.15744483527E+03 -0.17720364394E+03  0.27424713375E+03  0.12500070824E+03 0.  0.
          5    1    3    3  502    0 -0.36692151735E+02  0.21590303329E+02 -0.45457367340E+02  0.62457324968E+02  0.47000000000E+01 0.  1.
         -5    1    3    3    0  502  0.94969983980E+02  0.13585453194E+03 -0.13174627660E+03  0.21178980878E+03  0.47000000000E+01 0.  1.
        -11    1    1    2    0    0 -0.59802880604E+02 -0.88627353881E+02 -0.19026950314E+03  0.21825140597E+03  0.00000000000E+00 0.  1.
         11    1    1    2    0    0  0.15250483589E+01 -0.68817481389E+02 -0.35575272770E+02  0.77484008349E+02  0.00000000000E+00 0. -1.
<mgrwt>
<rscale>  0 0.20455440E+03</rscale>
<asrwt>0</asrwt>
<pdfrwt beam="1">  1        4 0.12841087E-01 0.20930924E+03</pdfrwt>
<pdfrwt beam="2">  1       -4 0.74848536E-01 0.20930924E+03</pdfrwt>
<totfact> 0.14564075E+02</totfact>
</mgrwt>
</event>
<event>
 7    1  0.7800420E-006  0.1428101E+03  0.7546771E-02  0.1219879E+00
          1   -1    0    0  501    0  0.00000000000E+00  0.00000000000E+00  0.22306422471E+03  0.22306422471E+03  0.00000000000E+00 0. -1.
         -1   -1    0    0    0  501 -0.00000000000E+00 -0.00000000000E+00 -0.87944296995E+02  0.87944296995E+02  0.00000000000E+00 0.  1.
         23    2    1    2    0    0  0.55515023644E+02  0.41149819511E+02  0.13445824467E+03  0.19614722704E+03  0.12497795653E+03 0.  0.
          5    1    3    3  502    0 -0.18830453753E+01 -0.36865584610E+02  0.71291462489E+02  0.80418777735E+02  0.47000000000E+01 0.  1.
         -5    1    3    3    0  502  0.57398069019E+02  0.78015404121E+02  0.63166782181E+02  0.11572844930E+03  0.47000000000E+01 0.  1.
        -11    1    1    2    0    0 -0.23381581795E+02  0.18707813935E+02 -0.28120451520E+02  0.41078467147E+02  0.00000000000E+00 0.  1.
         11    1    1    2    0    0 -0.32133441849E+02 -0.59857633446E+02  0.28782134566E+02  0.73782827521E+02  0.00000000000E+00 0. -1.
<mgrwt>
<rscale>  0 0.13524174E+03</rscale>
<asrwt>0</asrwt>
<pdfrwt beam="1">  1        1 0.34317573E-01 0.14281007E+03</pdfrwt>
<pdfrwt beam="2">  1       -1 0.13529892E-01 0.14281007E+03</pdfrwt>
<totfact> 0.46490281E+03</totfact>
</mgrwt>
</event>
<event>
 7    1  0.7800420E-006  0.1263051E+03  0.7546771E-02  0.1264545E+00
          2   -1    0    0  501    0  0.00000000000E+00  0.00000000000E+00  0.51312544776E+03  0.51312544776E+03  0.00000000000E+00 0. -1.
         -2   -1    0    0    0  501 -0.00000000000E+00 -0.00000000000E+00 -0.40010483055E+02  0.40010483055E+02  0.00000000000E+00 0.  1.
         23    2    1    2    0    0 -0.16911786063E+02 -0.64680354692E+01  0.46908486893E+03  0.48579172385E+03  0.12500056285E+03 0.  0.
          5    1    3    3  502    0 -0.66064010096E+02  0.36739286097E+01  0.16989302530E+03  0.18238333594E+03  0.47000000000E+01 0.  1.
         -5    1    3    3    0  502  0.49152224033E+02 -0.10141964079E+02  0.29919184363E+03  0.30340838791E+03  0.47000000000E+01 0.  1.
        -11    1    1    2    0    0  0.29761930531E+02  0.28064563826E+02 -0.36416629278E+01  0.41068892858E+02  0.00000000000E+00 0.  1.
         11    1    1    2    0    0 -0.12850144468E+02 -0.21596528357E+02  0.76717587060E+01  0.26275314109E+02  0.00000000000E+00 0. -1.
<mgrwt>
<rscale>  0 0.10788126E+03</rscale>
<asrwt>0</asrwt>
<pdfrwt beam="1">  1        2 0.78942372E-01 0.12630513E+03</pdfrwt>
<pdfrwt beam="2">  1       -2 0.61554593E-02 0.12630513E+03</pdfrwt>
<totfact> 0.81825233E+03</totfact>
</mgrwt>
</event>
<event>
 7    1  0.7800420E-006  0.1749701E+03  0.7546771E-02  0.1179196E+00
         -2   -1    0    0    0  501 -0.00000000000E+00  0.00000000000E+00  0.15184237963E+03  0.15184237963E+03  0.00000000000E+00 0.  1.
          2   -1    0    0  501    0  0.00000000000E+00 -0.00000000000E+00 -0.21538273203E+03  0.21538273203E+03  0.00000000000E+00 0. -1.
         23    2    1    2    0    0  0.86677016575E+02 -0.86454868628E+02 -0.11276659864E+03  0.20816058933E+03  0.12500870237E+03 0.  0.
          5    1    3    3  502    0 -0.58062355792E+01 -0.79626410212E+02 -0.68468606145E+02  0.10528113602E+03  0.47000000000E+01 0. -1.
         -5    1    3    3    0  502  0.92483252154E+02 -0.68284584154E+01 -0.44297992498E+02  0.10287945331E+03  0.47000000000E+01 0. -1.
        -11    1    1    2    0    0 -0.98211854610E+02  0.44696085267E+02  0.36527615453E+02  0.11391916044E+03  0.00000000000E+00 0.  1.
         11    1    1    2    0    0  0.11534838036E+02  0.41758783361E+02  0.12698630798E+02  0.45145361893E+02  0.00000000000E+00 0. -1.
<mgrwt>
<rscale>  0 0.16871387E+03</rscale>
<asrwt>0</asrwt>
<pdfrwt beam="2">  1        2 0.33135805E-01 0.17497007E+03</pdfrwt>
<pdfrwt beam="1">  1       -2 0.23360366E-01 0.17497007E+03</pdfrwt>
<totfact> 0.24698716E+03</totfact>
</mgrwt>
</event>
<event>
 7    1  0.7800420E-006  0.1678803E+03  0.7546771E-02  0.1187788E+00
          1   -1    0    0  501    0  0.00000000000E+00  0.00000000000E+00  0.14767574384E+03  0.14767574384E+03  0.00000000000E+00 0. -1.
         -1   -1    0    0    0  501 -0.00000000000E+00 -0.00000000000E+00 -0.21719856011E+03  0.21719856011E+03  0.00000000000E+00 0.  1.
         23    2    1    2    0    0 -0.81594189478E+02 -0.76819543727E+02  0.54850846248E+02  0.17661376532E+03  0.12499981085E+03 0.  0.
          5    1    3    3  502    0 -0.83220663043E+02 -0.12791156757E+02 -0.10510494609E+02  0.84981485898E+02  0.47000000000E+01 0. -1.
         -5    1    3    3    0  502  0.16264735653E+01 -0.64028386970E+02  0.65361340857E+02  0.91632279426E+02  0.47000000000E+01 0. -1.
        -11    1    1    2    0    0  0.26949547279E+02  0.78440227568E+02 -0.95313755107E+02  0.12634816703E+03  0.00000000000E+00 0.  1.
         11    1    1    2    0    0  0.54644642198E+02 -0.16206838408E+01 -0.29059907419E+02  0.61912371593E+02  0.00000000000E+00 0. -1.
<mgrwt>
<rscale>  0 0.16080735E+03</rscale>
<asrwt>0</asrwt>
<pdfrwt beam="1">  1        1 0.22719345E-01 0.16788033E+03</pdfrwt>
<pdfrwt beam="2">  1       -1 0.33415163E-01 0.16788033E+03</pdfrwt>
<totfact> 0.18064438E+03</totfact>
</mgrwt>
</event>
<event>
 7    1  0.7800420E-006  0.1672816E+03  0.7546771E-02  0.1187128E+00
         -4   -1    0    0    0  501 -0.00000000000E+00  0.00000000000E+00  0.20143779593E+03  0.20143779593E+03  0.00000000000E+00 0.  1.
          4   -1    0    0  501    0  0.00000000000E+00 -0.00000000000E+00 -0.12132168722E+03  0.12132168722E+03  0.00000000000E+00 0. -1.
         23    2    1    2    0    0  0.54742052093E+02  0.96741630630E+02  0.51224155380E+02  0.17494869424E+03  0.12500998424E+03 0.  0.
          5    1    3    3  502    0 -0.21442284667E+02  0.76344238411E+02 -0.23799357791E+01  0.79473067165E+02  0.47000000000E+01 0. -1.
         -5    1    3    3    0  502  0.76184336760E+02  0.20397392218E+02  0.53604091159E+02  0.95475627078E+02  0.47000000000E+01 0. -1.
        -11    1    1    2    0    0 -0.64536168689E+02 -0.20724466160E+02  0.72522461262E+01  0.68169022588E+02  0.00000000000E+00 0. -1.
         11    1    1    2    0    0  0.97941165966E+01 -0.76017164470E+02  0.21639707206E+02  0.79641766316E+02  0.00000000000E+00 0.  1.
<mgrwt>
<rscale>  0 0.16139789E+03</rscale>
<asrwt>0</asrwt>
<pdfrwt beam="2">  1        4 0.18664875E-01 0.16728159E+03</pdfrwt>
<pdfrwt beam="1">  1       -4 0.30990430E-01 0.16728159E+03</pdfrwt>
<totfact> 0.44076566E+02</totfact>
</mgrwt>
</event>
<event>
 7    1  0.7800420E-006  0.1562864E+03  0.7546771E-02  0.1201512E+00
          2   -1    0    0  501    0  0.00000000000E+00  0.00000000000E+00  0.55988140037E+03  0.55988140037E+03  0.00000000000E+00 0. -1.
         -2   -1    0    0    0  501 -0.00000000000E+00 -0.00000000000E+00 -0.57564074889E+02  0.57564074889E+02  0.00000000000E+00 0.  1.
         23    2    1    2    0    0 -0.10371902305E+02  0.93248885453E+02  0.45218050341E+03  0.47842727973E+03  0.12499009292E+03 0.  0.
          5    1    3    3  502    0  0.22264284277E+02  0.11172561369E+03  0.28361222557E+03  0.30567351144E+03  0.47000000000E+01 0.  1.
         -5    1    3    3    0  502 -0.32636186582E+02 -0.18476728233E+02  0.16856827784E+03  0.17275376828E+03  0.47000000000E+01 0.  1.
        -11    1    1    2    0    0 -0.23472889895E+02 -0.10783670975E+02 -0.13830801070E+02  0.29301112231E+02  0.00000000000E+00 0.  1.
         11    1    1    2    0    0  0.33844792200E+02 -0.82465214478E+02  0.63967623144E+02  0.10971708330E+03  0.00000000000E+00 0. -1.
<mgrwt>
<rscale>  0 0.14915732E+03</rscale>
<asrwt>0</asrwt>
<pdfrwt beam="1">  1        2 0.86135597E-01 0.15628645E+03</pdfrwt>
<pdfrwt beam="2">  1       -2 0.88560119E-02 0.15628645E+03</pdfrwt>
<totfact> 0.42938103E+03</totfact>
</mgrwt>
</event>
<event>
 7    1  0.7800420E-006  0.1267950E+03  0.7546771E-02  0.1246979E+00
         -3   -1    0    0    0  501 -0.00000000000E+00  0.00000000000E+00  0.42487821739E+02  0.42487821739E+02  0.00000000000E+00 0.  1.
          3   -1    0    0  501    0  0.00000000000E+00 -0.00000000000E+00 -0.28920331563E+03  0.28920331563E+03  0.00000000000E+00 0. -1.
         23    2    1    2    0    0  0.30339088986E+01 -0.21042308717E+02 -0.12729571197E+03  0.17966961190E+03  0.12499995117E+03 0.  0.
          5    1    3    3  502    0 -0.11026144690E+02 -0.68990649328E+02 -0.44869929665E+02  0.83166616797E+02  0.47000000000E+01 0. -1.
         -5    1    3    3    0  502  0.14060053588E+02  0.47948340611E+02 -0.82425782310E+02  0.96502995102E+02  0.47000000000E+01 0. -1.
        -11    1    1    2    0    0 -0.21195976187E+02  0.52398471853E+02 -0.60053671146E+02  0.82470071403E+02  0.00000000000E+00 0.  1.
         11    1    1    2    0    0  0.18162067288E+02 -0.31356163136E+02 -0.59366110769E+02  0.69551454065E+02  0.00000000000E+00 0. -1.
<mgrwt>
<rscale>  0 0.11767689E+03</rscale>
<asrwt>0</asrwt>
<pdfrwt beam="2">  1        3 0.44492817E-01 0.12679500E+03</pdfrwt>
<pdfrwt beam="1">  1       -3 0.65365881E-02 0.12679500E+03</pdfrwt>
<totfact> 0.16967858E+03</totfact>
</mgrwt>
</event>
<event>
 6    1  0.7800420E-006  0.1650577E+03  0.7546771E-02  0.1193868E+00
         -2   -1    0    0    0  501 -0.00000000000E+00  0.00000000000E+00  0.57952479800E+02  0.57952479800E+02  0.00000000000E+00 0.  1.
          2   -1    0    0  501    0  0.00000000000E+00 -0.00000000000E+00 -0.40034293186E+03  0.40034293186E+03  0.00000000000E+00 0. -1.
          5    1    1    2  502    0  0.53831192791E+02  0.49197018081E+02 -0.24859152597E+03  0.25910997799E+03  0.47000000000E+01 0. -1.
         -5    1    1    2    0  502  0.33190388072E+02 -0.17344312505E+02  0.18058978795E+01  0.37785953790E+02  0.47000000000E+01 0.  1.
        -11    1    1    2    0    0 -0.48673867111E+02 -0.63660755791E+02 -0.56229844099E+02  0.97896029208E+02  0.00000000000E+00 0.  1.
         11    1    1    2    0    0 -0.38347713753E+02  0.31808050215E+02 -0.39374979870E+02  0.63503450680E+02  0.00000000000E+00 0. -1.
<mgrwt>
<rscale>  0 0.15550460E+03</rscale>
<asrwt>0</asrwt>
<pdfrwt beam="2">  1        2 0.61591220E-01 0.16505771E+03</pdfrwt>
<pdfrwt beam="1">  1       -2 0.89157662E-02 0.16505771E+03</pdfrwt>
<totfact> 0.61565612E+03</totfact>
</mgrwt>
</event>
<event>
 7    1  0.7800420E-006  0.2180004E+03  0.7546771E-02  0.1138140E+00
          2   -1    0    0  501    0  0.00000000000E+00  0.00000000000E+00  0.80222515743E+03  0.80222515743E+03  0.00000000000E+00 0. -1.
         -2   -1    0    0    0  501 -0.00000000000E+00 -0.00000000000E+00 -0.58182820186E+02  0.58182820186E+02  0.00000000000E+00 0.  1.
         23    2    1    2    0    0 -0.14717849144E+03 -0.10118234779E+03  0.47675189492E+03  0.52422946912E+03  0.12499916453E+03 0.  0.
          5    1    3    3  502    0 -0.29183804782E+01 -0.67985454127E+02  0.12142419915E+03  0.13927119248E+03  0.47000000000E+01 0. -1.
         -5    1    3    3    0  502 -0.14426011097E+03 -0.33196893662E+02  0.35532769578E+03  0.38495827664E+03  0.47000000000E+01 0. -1.
        -11    1    1    2    0    0  0.10990812290E+03  0.10020783554E+03  0.25792681202E+03  0.29773754574E+03  0.00000000000E+00 0.  1.
         11    1    1    2    0    0  0.37270368542E+02  0.97451224677E+00  0.93636303014E+01  0.38440962758E+02  0.00000000000E+00 0. -1.
<mgrwt>
<rscale>  0 0.21438422E+03</rscale>
<asrwt>0</asrwt>
<pdfrwt beam="1">  1        2 0.12341925E+00 0.21800038E+03</pdfrwt>
<pdfrwt beam="2">  1       -2 0.89512037E-02 0.21800038E+03</pdfrwt>
<totfact> 0.27814092E+03</totfact>
</mgrwt>
</event>
<event>
 6    1  0.7800420E-006  0.2627975E+03  0.7546771E-02  0.1145641E+00
         -4   -1    0    0    0  501 -0.00000000000E+00  0.00000000000E+00  0.14838733213E+03  0.14838733213E+03  0.00000000000E+00 0.  1.
          4   -1    0    0  501    0  0.00000000000E+00 -0.00000000000E+00 -0.21971957790E+03  0.21971957790E+03  0.00000000000E+00 0. -1.
          5    1    1    2  502    0  0.26838147271E+01  0.10771301264E+03 -0.11830580985E+03  0.16008638480E+03  0.47000000000E+01 0. -1.
         -5    1    1    2    0  502 -0.21762060157E+02 -0.94344779734E+02  0.53311674891E+02  0.11062888142E+03  0.47000000000E+01 0.  1.
        -11    1    1    2    0    0  0.20720201462E+02 -0.52264940757E+02 -0.13467613435E+02  0.57812865287E+02  0.00000000000E+00 0. -1.
         11    1    1    2    0    0 -0.16419560322E+01  0.38896707853E+02  0.71295026224E+01  0.39578778519E+02  0.00000000000E+00 0.  1.
<mgrwt>
<rscale>  0 0.20493490E+03</rscale>
<asrwt>0</asrwt>
<pdfrwt beam="2">  1        4 0.33803012E-01 0.26279748E+03</pdfrwt>
<pdfrwt beam="1">  1       -4 0.22828820E-01 0.26279748E+03</pdfrwt>
<totfact> 0.27734266E+02</totfact>
</mgrwt>
</event>
<event>
 7    1  0.7800420E-006  0.1433441E+03  0.7546771E-02  0.1219290E+00
          2   -1    0    0  501    0  0.00000000000E+00  0.00000000000E+00  0.98914947404E+03  0.98914947404E+03  0.00000000000E+00 0. -1.
         -2   -1    0    0    0  501 -0.00000000000E+00 -0.00000000000E+00 -0.17432682533E+02  0.17432682533E+02  0.00000000000E+00 0.  1.
         23    2    1    2    0    0  0.65621932597E+02 -0.24846437769E+02  0.62751057485E+03  0.64367464455E+03  0.12499577185E+03 0.  0.
          5    1    3    3  502    0  0.74902070932E+02 -0.27456952161E+02  0.62787815608E+03  0.63294334133E+03  0.47000000000E+01 0. -1.
         -5    1    3    3    0  502 -0.92801383351E+01  0.26105143924E+01 -0.36758122637E+00  0.10731303223E+02  0.47000000000E+01 0. -1.
        -11    1    1    2    0    0  0.61125713000E+01 -0.24968051895E+02  0.53305481607E+02  0.59179739039E+02  0.00000000000E+00 0.  1.
         11    1    1    2    0    0 -0.71734503897E+02  0.49814489664E+02  0.29090073504E+03  0.30372777298E+03  0.00000000000E+00 0. -1.
<mgrwt>
<rscale>  0 0.13566098E+03</rscale>
<asrwt>0</asrwt>
<pdfrwt beam="1">  1        2 0.15217680E+00 0.14334408E+03</pdfrwt>
<pdfrwt beam="2">  1       -2 0.26819519E-02 0.14334408E+03</pdfrwt>
<totfact> 0.12859914E+04</totfact>
</mgrwt>
</event>
<event>
 7    1  0.7800420E-006  0.1461746E+03  0.7546771E-02  0.1215249E+00
         -2   -1    0    0    0  501 -0.00000000000E+00  0.00000000000E+00  0.38288077233E+02  0.38288077233E+02  0.00000000000E+00 0.  1.
          2   -1    0    0  501    0  0.00000000000E+00 -0.00000000000E+00 -0.64247733644E+03  0.64247733644E+03  0.00000000000E+00 0. -1.
         23    2    1    2    0    0  0.49163383851E+02 -0.57654042721E+02 -0.50752340306E+03  0.52815434214E+03  0.12500390996E+03 0.  0.
          5    1    3    3  502    0  0.27360173142E+02 -0.94482368066E+02 -0.40801304402E+03  0.41972875889E+03  0.47000000000E+01 0. -1.
         -5    1    3    3    0  502  0.21803210709E+02  0.36828325345E+02 -0.99510359041E+02  0.10842558324E+03  0.47000000000E+01 0. -1.
        -11    1    1    2    0    0 -0.36006218682E+02  0.50584984752E+02 -0.11394938476E+03  0.12976806522E+03  0.00000000000E+00 0. -1.
         11    1    1    2    0    0 -0.13157165169E+02  0.70690579693E+01  0.17283528614E+02  0.22843006309E+02  0.00000000000E+00 0.  1.
<mgrwt>
<rscale>  0 0.13858285E+03</rscale>
<asrwt>0</asrwt>
<pdfrwt beam="2">  1        2 0.98842652E-01 0.14617457E+03</pdfrwt>
<pdfrwt beam="1">  1       -2 0.58904743E-02 0.14617457E+03</pdfrwt>
<totfact> 0.68471931E+03</totfact>
</mgrwt>
</event>
<event>
 7    1  0.7800420E-006  0.1279859E+03  0.7546771E-02  0.1246089E+00
          1   -1    0    0  501    0  0.00000000000E+00  0.00000000000E+00  0.60759563170E+02  0.60759563170E+02  0.00000000000E+00 0. -1.
         -1   -1    0    0    0  501 -0.00000000000E+00 -0.00000000000E+00 -0.20843059760E+03  0.20843059760E+03  0.00000000000E+00 0.  1.
         23    2    1    2    0    0 -0.27414364489E+02 -0.89063646407E+00 -0.60228324323E+02  0.14144906906E+03  0.12501218930E+03 0.  0.
          5    1    3    3  502    0 -0.57838276166E+02 -0.15951352001E+02 -0.81350514747E+02  0.10119144267E+03  0.47000000000E+01 0. -1.
         -5    1    3    3    0  502  0.30423911677E+02  0.15060715537E+02  0.21122190424E+02  0.40257626390E+02  0.47000000000E+01 0. -1.
        -11    1    1    2    0    0  0.19712324622E+01  0.41818665402E+02 -0.24636294729E+02  0.48576059448E+02  0.00000000000E+00 0. -1.
         11    1    1    2    0    0  0.25443132027E+02 -0.40928028938E+02 -0.62806415379E+02  0.79165032261E+02  0.00000000000E+00 0.  1.
<mgrwt>
<rscale>  0 0.11820442E+03</rscale>
<asrwt>0</asrwt>
<pdfrwt beam="1">  1        1 0.93476251E-02 0.12798589E+03</pdfrwt>
<pdfrwt beam="2">  1       -1 0.32066246E-01 0.12798589E+03</pdfrwt>
<totfact> 0.60577507E+03</totfact>
</mgrwt>
</event>
<event>
 7    1  0.7800420E-006  0.1304678E+03  0.7546771E-02  0.1239145E+00
          2   -1    0    0  501    0  0.00000000000E+00  0.00000000000E+00  0.23024940055E+03  0.23024940055E+03  0.00000000000E+00 0. -1.
         -2   -1    0    0    0  501 -0.00000000000E+00 -0.00000000000E+00 -0.66723247679E+02  0.66723247679E+02  0.00000000000E+00 0.  1.
         23    2    1    2    0    0 -0.23184844098E+02  0.29309239267E+02  0.14332581939E+03  0.19381468756E+03  0.12500109643E+03 0.  0.
          5    1    3    3  502    0 -0.17836061448E+02  0.30564788620E+02  0.16611416703E+03  0.16990685060E+03  0.47000000000E+01 0.  1.
         -5    1    3    3    0  502 -0.53487826508E+01 -0.12555493535E+01 -0.22788347642E+02  0.23907836964E+02  0.47000000000E+01 0.  1.
        -11    1    1    2    0    0 -0.11602157962E+02 -0.55572171842E+02  0.49758247927E+01  0.56988026681E+02  0.00000000000E+00 0.  1.
         11    1    1    2    0    0  0.34787002061E+02  0.26262932575E+02  0.15224508693E+02  0.46169933991E+02  0.00000000000E+00 0. -1.
<mgrwt>
<rscale>  0 0.12242794E+03</rscale>
<asrwt>0</asrwt>
<pdfrwt beam="1">  1        2 0.35422984E-01 0.13046778E+03</pdfrwt>
<pdfrwt beam="2">  1       -2 0.10265115E-01 0.13046778E+03</pdfrwt>
<totfact> 0.87646573E+03</totfact>
</mgrwt>
</event>
<event>
 7    1  0.7800420E-006  0.1250712E+03  0.7546771E-02  0.1250389E+00
          3   -1    0    0  501    0  0.00000000000E+00  0.00000000000E+00  0.14263087878E+03  0.14263087878E+03  0.00000000000E+00 0. -1.
         -3   -1    0    0    0  501 -0.00000000000E+00 -0.00000000000E+00 -0.82410632369E+02  0.82410632369E+02  0.00000000000E+00 0.  1.
         23    2    1    2    0    0  0.30157706059E+01  0.28758887811E+01  0.29795180490E+02  0.12857125483E+03  0.12500179670E+03 0.  0.
          5    1    3    3  502    0 -0.57945157731E+02  0.18057120738E+02  0.57732591172E+01  0.61148355944E+02  0.47000000000E+01 0. -1.
         -5    1    3    3    0  502  0.60960928337E+02 -0.15181231956E+02  0.24021921373E+02  0.67422898883E+02  0.47000000000E+01 0. -1.
        -11    1    1    2    0    0 -0.14183070132E+02  0.29278064874E+02  0.48137282411E+02  0.58099591384E+02  0.00000000000E+00 0. -1.
         11    1    1    2    0    0  0.11167299527E+02 -0.32153953655E+02 -0.17712216493E+02  0.38370664934E+02  0.00000000000E+00 0.  1.
<mgrwt>
<rscale>  0 0.11568550E+03</rscale>
<asrwt>0</asrwt>
<pdfrwt beam="1">  1        3 0.21943212E-01 0.12507124E+03</pdfrwt>
<pdfrwt beam="2">  1       -3 0.12678559E-01 0.12507124E+03</pdfrwt>
<totfact> 0.21254257E+03</totfact>
</mgrwt>
</event>
<event>
 7    1  0.7800420E-006  0.1307121E+03  0.7546771E-02  0.1239796E+00
         -1   -1    0    0    0  501 -0.00000000000E+00  0.00000000000E+00  0.10312869336E+03  0.10312869336E+03  0.00000000000E+00 0.  1.
          1   -1    0    0  501    0  0.00000000000E+00 -0.00000000000E+00 -0.13314799809E+03  0.13314799809E+03  0.00000000000E+00 0. -1.
         23    2    1    2    0    0 -0.32731390804E+02 -0.19655274667E+02 -0.39507675043E+02  0.13655223220E+03  0.12501192730E+03 0.  0.
          5    1    3    3  502    0 -0.39038061964E+02 -0.14631156768E+02 -0.82502024769E+02  0.92556550937E+02  0.47000000000E+01 0. -1.
         -5    1    3    3    0  502  0.63066711602E+01 -0.50241178998E+01  0.42994349727E+02  0.43995681268E+02  0.47000000000E+01 0. -1.
        -11    1    1    2    0    0  0.44327912970E+02 -0.12232365706E+02  0.34569989841E+02  0.57529808245E+02  0.00000000000E+00 0.  1.
         11    1    1    2    0    0 -0.11596522166E+02  0.31887640373E+02 -0.25081619523E+02  0.42194650998E+02  0.00000000000E+00 0. -1.
<mgrwt>
<rscale>  0 0.12202354E+03</rscale>
<asrwt>0</asrwt>
<pdfrwt beam="2">  1        1 0.20484307E-01 0.13071211E+03</pdfrwt>
<pdfrwt beam="1">  1       -1 0.15865953E-01 0.13071211E+03</pdfrwt>
<totfact> 0.68757431E+03</totfact>
</mgrwt>
</event>
<event>
 7    1  0.7800420E-006  0.1453675E+03  0.7546771E-02  0.1216979E+00
          4   -1    0    0  501    0  0.00000000000E+00  0.00000000000E+00  0.76962288731E+03  0.76962288731E+03  0.00000000000E+00 0. -1.
         -4   -1    0    0    0  501 -0.00000000000E+00 -0.00000000000E+00 -0.30137091345E+02  0.30137091345E+02  0.00000000000E+00 0.  1.
         23    2    1    2    0    0  0.71887410429E+02  0.18388295817E+02  0.60544465153E+03  0.62265153802E+03  0.12500313010E+03 0.  0.
          5    1    3    3  502    0  0.22009925819E+02 -0.38047651592E+02  0.42174457172E+03  0.42405498983E+03  0.47000000000E+01 0.  1.
         -5    1    3    3    0  502  0.49877484610E+02  0.56435947408E+02  0.18370007981E+03  0.19859654819E+03  0.47000000000E+01 0.  1.
        -11    1    1    2    0    0  0.41125571406E+01  0.14773246253E+02 -0.42053805658E+01  0.15901168410E+02  0.00000000000E+00 0.  1.
         11    1    1    2    0    0 -0.75999967569E+02 -0.33161542070E+02  0.13824652500E+03  0.16120727222E+03  0.00000000000E+00 0. -1.
<mgrwt>
<rscale>  0 0.13732200E+03</rscale>
<asrwt>0</asrwt>
<pdfrwt beam="1">  1        4 0.11840351E+00 0.14536751E+03</pdfrwt>
<pdfrwt beam="2">  1       -4 0.46364762E-02 0.14536751E+03</pdfrwt>
<totfact> 0.26133072E+02</totfact>
</mgrwt>
</event>
<event>
 7    1  0.7800420E-006  0.1853491E+03  0.7546771E-02  0.1167933E+00
         -2   -1    0    0    0  501 -0.00000000000E+00  0.00000000000E+00  0.23869386570E+02  0.23869386570E+02  0.00000000000E+00 0.  1.
          2   -1    0    0  501    0  0.00000000000E+00 -0.00000000000E+00 -0.12883398154E+04  0.12883398154E+04  0.00000000000E+00 0. -1.
         23    2    1    2    0    0 -0.13678425663E+03 -0.44520390215E+01 -0.71951319126E+03  0.74300304207E+03  0.12499813842E+03 0.  0.
          5    1    3    3  502    0 -0.48591987195E+02 -0.64643727435E+01 -0.54675767720E+03  0.54897087073E+03  0.47000000000E+01 0. -1.
         -5    1    3    3    0  502 -0.88192269431E+02  0.20123337220E+01 -0.17275551407E+03  0.19403217134E+03  0.47000000000E+01 0. -1.
        -11    1    1    2    0    0  0.67153164909E+02 -0.34749078750E+02 -0.35783899696E+03  0.36574006313E+03  0.00000000000E+00 0. -1.
         11    1    1    2    0    0  0.69631091717E+02  0.39201117772E+02 -0.18711824057E+03  0.20346609674E+03  0.00000000000E+00 0.  1.
<mgrwt>
<rscale>  0 0.17986556E+03</rscale>
<asrwt>0</asrwt>
<pdfrwt beam="2">  1        2 0.19820611E+00 0.18534910E+03</pdfrwt>
<pdfrwt beam="1">  1       -2 0.36722137E-02 0.18534910E+03</pdfrwt>
<totfact> 0.55131134E+03</totfact>
</mgrwt>
</event>
<event>
 7    1  0.7800420E-006  0.1371565E+03  0.7546771E-02  0.1228897E+00
         -2   -1    0    0    0  501 -0.00000000000E+00  0.00000000000E+00  0.13272241567E+03  0.13272241567E+03  0.00000000000E+00 0.  1.
          2   -1    0    0  501    0  0.00000000000E+00 -0.00000000000E+00 -0.11299891141E+03  0.11299891141E+03  0.00000000000E+00 0. -1.
         23    2    1    2    0    0 -0.16228051793E+02  0.53869116929E+02  0.46980495043E+01  0.13723691232E+03  0.12508663802E+03 0.  0.
          5    1    3    3  502    0  0.53740782246E+02  0.32404127865E+02  0.99466445545E+01  0.63711262089E+02  0.47000000000E+01 0.  1.
         -5    1    3    3    0  502 -0.69968834039E+02  0.21464989064E+02 -0.52485950503E+01  0.73525650234E+02  0.47000000000E+01 0.  1.
        -11    1    1    2    0    0  0.19923669578E+02  0.72072798337E+01  0.37687275577E+02  0.43234572191E+02  0.00000000000E+00 0.  1.
         11    1    1    2    0    0 -0.36956177850E+01 -0.61076396763E+02 -0.22661820825E+02  0.65249842570E+02  0.00000000000E+00 0. -1.
<mgrwt>
<rscale>  0 0.12903352E+03</rscale>
<asrwt>0</asrwt>
<pdfrwt beam="2">  1        2 0.17384448E-01 0.13715647E+03</pdfrwt>
<pdfrwt beam="1">  1       -2 0.20418833E-01 0.13715647E+03</pdfrwt>
<totfact> 0.62984099E+03</totfact>
</mgrwt>
</event>
<event>
 7    1  0.7800420E-006  0.1291374E+03  0.7546771E-02  0.1242643E+00
          2   -1    0    0  501    0  0.00000000000E+00  0.00000000000E+00  0.51662201294E+03  0.51662201294E+03  0.00000000000E+00 0. -1.
         -2   -1    0    0    0  501 -0.00000000000E+00 -0.00000000000E+00 -0.38213542528E+02  0.38213542528E+02  0.00000000000E+00 0.  1.
         23    2    1    2    0    0  0.31902347097E+02 -0.55660024858E+01  0.42450242173E+03  0.44371023551E+03  0.12501090716E+03 0.  0.
          5    1    3    3  502    0  0.59733687000E+02  0.40458147552E+02  0.19580201884E+03  0.20872349089E+03  0.47000000000E+01 0. -1.
         -5    1    3    3    0  502 -0.27831339903E+02 -0.46024150038E+02  0.22870040288E+03  0.23498674462E+03  0.47000000000E+01 0. -1.
        -11    1    1    2    0    0  0.69981121840E+01  0.17125059125E+02 -0.19730443752E+02  0.27046841495E+02  0.00000000000E+00 0.  1.
         11    1    1    2    0    0 -0.38900459281E+02 -0.11559056640E+02  0.73636492436E+02  0.84078478465E+02  0.00000000000E+00 0. -1.
<mgrwt>
<rscale>  0 0.12027562E+03</rscale>
<asrwt>0</asrwt>
<pdfrwt beam="1">  1        2 0.79480305E-01 0.12913740E+03</pdfrwt>
<pdfrwt beam="2">  1       -2 0.58790069E-02 0.12913740E+03</pdfrwt>
<totfact> 0.87195814E+03</totfact>
</mgrwt>
</event>
<event>
 7    1  0.7800420E-006  0.1342739E+03  0.7546771E-02  0.1234193E+00
         -2   -1    0    0    0  501 -0.00000000000E+00  0.00000000000E+00  0.17380313084E+02  0.17380313084E+02  0.00000000000E+00 0.  1.
          2   -1    0    0  501    0  0.00000000000E+00 -0.00000000000E+00 -0.12939022972E+04  0.12939022972E+04  0.00000000000E+00 0. -1.
         23    2    1    2    0    0 -0.66047522170E+01 -0.48606291918E+02 -0.10911009958E+04  0.10993320064E+04  0.12499313152E+03 0.  0.
          5    1    3    3  502    0  0.38188500450E+01 -0.90571076983E+02 -0.73279899550E+03  0.73839973010E+03  0.47000000000E+01 0.  1.
         -5    1    3    3    0  502 -0.10423602262E+02  0.41964785064E+02 -0.35830200031E+03  0.36093227632E+03  0.47000000000E+01 0.  1.
        -11    1    1    2    0    0 -0.41357994652E+02  0.30097047157E+02 -0.97480973181E+02  0.11008567619E+03  0.00000000000E+00 0. -1.
         11    1    1    2    0    0  0.47962746868E+02  0.18509244762E+02 -0.87940015099E+02  0.10186492765E+03  0.00000000000E+00 0.  1.
<mgrwt>
<rscale>  0 0.12556241E+03</rscale>
<asrwt>0</asrwt>
<pdfrwt beam="2">  1        2 0.19906197E+00 0.13427389E+03</pdfrwt>
<pdfrwt beam="1">  1       -2 0.26738932E-02 0.13427389E+03</pdfrwt>
<totfact> 0.86503623E+03</totfact>
</mgrwt>
</event>
<event>
 7    1  0.7800420E-006  0.1806203E+03  0.7546771E-02  0.1172949E+00
          2   -1    0    0  501    0  0.00000000000E+00  0.00000000000E+00  0.49452928619E+02  0.49452928619E+02  0.00000000000E+00 0. -1.
         -2   -1    0    0    0  501 -0.00000000000E+00 -0.00000000000E+00 -0.59826439952E+03  0.59826439952E+03  0.00000000000E+00 0.  1.
         23    2    1    2    0    0  0.26996199306E+02 -0.12755434292E+03 -0.23693893615E+03  0.29793247208E+03  0.12499917311E+03 0.  0.
          5    1    3    3  502    0 -0.48324304384E+02 -0.39074700848E+02 -0.62340970918E+02  0.88150764577E+02  0.47000000000E+01 0.  1.
         -5    1    3    3    0  502  0.75320503690E+02 -0.88479642067E+02 -0.17459796524E+03  0.20978170750E+03  0.47000000000E+01 0.  1.
        -11    1    1    2    0    0 -0.40853258407E+02  0.32860357080E+02 -0.17563056090E+03  0.18328907691E+03  0.00000000000E+00 0.  1.
         11    1    1    2    0    0  0.13857059101E+02  0.94693985835E+02 -0.13624197384E+03  0.16649577915E+03  0.00000000000E+00 0. -1.
<mgrwt>
<rscale>  0 0.17478399E+03</rscale>
<asrwt>0</asrwt>
<pdfrwt beam="1">  1        2 0.76081427E-02 0.18062032E+03</pdfrwt>
<pdfrwt beam="2">  1       -2 0.92040679E-01 0.18062032E+03</pdfrwt>
<totfact> 0.92880208E+02</totfact>
</mgrwt>
</event>
<event>
 7    1  0.7800420E-006  0.1460038E+03  0.7546771E-02  0.1215880E+00
          2   -1    0    0  501    0  0.00000000000E+00  0.00000000000E+00  0.21173203381E+04  0.21173203381E+04  0.00000000000E+00 0. -1.
         -2   -1    0    0    0  501 -0.00000000000E+00 -0.00000000000E+00 -0.11277623153E+02  0.11277623153E+02  0.00000000000E+00 0.  1.
         23    2    1    2    0    0  0.22143674400E+02  0.72120172228E+02  0.16941070016E+04  0.17003869129E+04  0.12500183752E+03 0.  0.
          5    1    3    3  502    0 -0.39503201886E+02  0.58404424289E+02  0.54888058565E+03  0.55341084832E+03  0.47000000000E+01 0.  1.
         -5    1    3    3    0  502  0.61646876286E+02  0.13715747939E+02  0.11452264159E+04  0.11469760646E+04  0.47000000000E+01 0.  1.
        -11    1    1    2    0    0  0.24677729657E+02 -0.18700189727E+02  0.46035160752E+02  0.55479036242E+02  0.00000000000E+00 0.  1.
         11    1    1    2    0    0 -0.46821404058E+02 -0.53419982501E+02  0.36590055264E+03  0.37273201209E+03  0.00000000000E+00 0. -1.
<mgrwt>
<rscale>  0 0.13812072E+03</rscale>
<asrwt>0</asrwt>
<pdfrwt beam="1">  1        2 0.32574127E+00 0.14600384E+03</pdfrwt>
<pdfrwt beam="2">  1       -2 0.17350206E-02 0.14600384E+03</pdfrwt>
<totfact> 0.60988318E+03</totfact>
</mgrwt>
</event>
<event>
 7    1  0.7800420E-006  0.2002323E+03  0.7546771E-02  0.1153961E+00
         -1   -1    0    0    0  501 -0.00000000000E+00  0.00000000000E+00  0.88838348257E+02  0.88838348257E+02  0.00000000000E+00 0.  1.
          1   -1    0    0  501    0  0.00000000000E+00 -0.00000000000E+00 -0.53215705885E+03  0.53215705885E+03  0.00000000000E+00 0. -1.
         23    2    1    2    0    0 -0.18006373754E+02 -0.15537901360E+03 -0.38051935805E+03  0.42998598733E+03  0.12500440027E+03 0.  0.
          5    1    3    3  502    0 -0.56092984744E+02 -0.32899399921E+02 -0.79987041122E+02  0.10319307244E+03  0.47000000000E+01 0. -1.
         -5    1    3    3    0  502  0.38086610990E+02 -0.12247961368E+03 -0.30053231693E+03  0.32679291489E+03  0.47000000000E+01 0. -1.
        -11    1    1    2    0    0 -0.10389028837E+02  0.14431032929E+03 -0.68375707406E+02  0.16002699904E+03  0.00000000000E+00 0. -1.
         11    1    1    2    0    0  0.28395402591E+02  0.11068684313E+02  0.55763548616E+01  0.30982420730E+02  0.00000000000E+00 0.  1.
<mgrwt>
<rscale>  0 0.19507615E+03</rscale>
<asrwt>0</asrwt>
<pdfrwt beam="2">  1        1 0.81870315E-01 0.20023228E+03</pdfrwt>
<pdfrwt beam="1">  1       -1 0.13667439E-01 0.20023228E+03</pdfrwt>
<totfact> 0.15406912E+03</totfact>
</mgrwt>
</event>
<event>
 7    1  0.1582151E-005  0.1824130E+03  0.7546771E-02  0.1170855E+00
          1   -1    0    0  501    0  0.00000000000E+00  0.00000000000E+00  0.94758723266E+03  0.94758723266E+03  0.00000000000E+00 0. -1.
         -1   -1    0    0    0  501 -0.00000000000E+00 -0.00000000000E+00 -0.34703353838E+02  0.34703353838E+02  0.00000000000E+00 0.  1.
         23    2    1    2    0    0 -0.12313908535E+03  0.49863284034E+02  0.63823098112E+03  0.66378708888E+03  0.12499973065E+03 0.  0.
          5    1    3    3  502    0  0.24641302804E+02  0.20547349759E+01  0.60587967205E+02  0.65607983582E+02  0.47000000000E+01 0.  1.
         -5    1    3    3    0  502 -0.14778038816E+03  0.47808549058E+02  0.57764301392E+03  0.59817910530E+03  0.47000000000E+01 0.  1.
        -11    1    1    2    0    0  0.67573740280E+02 -0.17640980835E+02  0.22975549928E+03  0.24013538687E+03  0.00000000000E+00 0. -1.
         11    1    1    2    0    0  0.55565345075E+02 -0.32222303199E+02  0.44897398423E+02  0.78368110746E+02  0.00000000000E+00 0.  1.
<mgrwt>
<rscale>  0 0.17688255E+03</rscale>
<asrwt>0</asrwt>
<pdfrwt beam="1">  1        1 0.14578263E+00 0.18241303E+03</pdfrwt>
<pdfrwt beam="2">  1       -1 0.53389782E-02 0.18241303E+03</pdfrwt>
<totfact> 0.27723114E+03</totfact>
</mgrwt>
</event>
<event>
 7    1  0.7800420E-006  0.1398223E+03  0.7546771E-02  0.1224273E+00
          1   -1    0    0  501    0  0.00000000000E+00  0.00000000000E+00  0.93880633391E+03  0.93880633391E+03  0.00000000000E+00 0. -1.
         -1   -1    0    0    0  501 -0.00000000000E+00 -0.00000000000E+00 -0.17034732553E+02  0.17034732553E+02  0.00000000000E+00 0.  1.
         23    2    1    2    0    0 -0.28418808035E+02  0.56099662007E+02  0.56305915134E+03  0.58016022414E+03  0.12488185230E+03 0.  0.
          5    1    3    3  502    0 -0.57808012145E+02 -0.69499362059E+01  0.14494548976E+03  0.15627332749E+03  0.47000000000E+01 0.  1.
         -5    1    3    3    0  502  0.29389204110E+02  0.63049598213E+02  0.41811366158E+03  0.42388689665E+03  0.47000000000E+01 0.  1.
        -11    1    1    2    0    0  0.62372989451E+02 -0.38712106667E+02  0.22949607402E+03  0.24095116726E+03  0.00000000000E+00 0.  1.
         11    1    1    2    0    0 -0.33954181417E+02 -0.17387555340E+02  0.12921637600E+03  0.13472967506E+03  0.00000000000E+00 0. -1.
<mgrwt>
<rscale>  0 0.13216867E+03</rscale>
<asrwt>0</asrwt>
<pdfrwt beam="1">  1        1 0.14443170E+00 0.13982231E+03</pdfrwt>
<pdfrwt beam="2">  1       -1 0.26207288E-02 0.13982231E+03</pdfrwt>
<totfact> 0.79462891E+03</totfact>
</mgrwt>
</event>
<event>
 7    1  0.7800420E-006  0.2689026E+03  0.7546771E-02  0.1104028E+00
         -2   -1    0    0    0  501 -0.00000000000E+00  0.00000000000E+00  0.24470339145E+03  0.24470339145E+03  0.00000000000E+00 0.  1.
          2   -1    0    0  501    0  0.00000000000E+00 -0.00000000000E+00 -0.32872630361E+03  0.32872630361E+03  0.00000000000E+00 0. -1.
         23    2    1    2    0    0  0.41687098838E+02  0.23440460482E+03 -0.15335818321E+03  0.30955989600E+03  0.12500105551E+03 0.  0.
          5    1    3    3  502    0 -0.34697859044E+02  0.15345763194E+03 -0.85541359886E+02  0.17914407742E+03  0.47000000000E+01 0.  1.
         -5    1    3    3    0  502  0.76384957881E+02  0.80946972883E+02 -0.67816823324E+02  0.13041581858E+03  0.47000000000E+01 0.  1.
        -11    1    1    2    0    0 -0.38210679981E+02 -0.31318428979E+02  0.27312385147E+02  0.56452337779E+02  0.00000000000E+00 0.  1.
         11    1    1    2    0    0 -0.34764188566E+01 -0.20308617584E+03  0.42022885904E+02  0.20741746129E+03  0.00000000000E+00 0. -1.
<mgrwt>
<rscale>  0 0.26525267E+03</rscale>
<asrwt>0</asrwt>
<pdfrwt beam="2">  1        2 0.50573278E-01 0.26890258E+03</pdfrwt>
<pdfrwt beam="1">  1       -2 0.37646676E-01 0.26890258E+03</pdfrwt>
<totfact> 0.66441096E+02</totfact>
</mgrwt>
</event>
<event>
 6    1  0.7800420E-006  0.1464770E+03  0.7546771E-02  0.1225440E+00
          1   -1    0    0  501    0  0.00000000000E+00  0.00000000000E+00  0.87289521966E+02  0.87289521966E+02  0.00000000000E+00 0. -1.
         -1   -1    0    0    0  501 -0.00000000000E+00 -0.00000000000E+00 -0.32879146149E+03  0.32879146149E+03  0.00000000000E+00 0.  1.
          5    1    1    2  502    0  0.32906689296E+02 -0.20727805138E+02  0.61811461443E+02  0.73179497620E+02  0.47000000000E+01 0. -1.
         -5    1    1    2    0  502 -0.14581825941E+02  0.50594476058E+02 -0.51314787310E+02  0.73673116209E+02  0.47000000000E+01 0.  1.
        -11    1    1    2    0    0 -0.38316391199E+02  0.24885663621E+01 -0.20597469614E+03  0.20952306376E+03  0.00000000000E+00 0.  1.
         11    1    1    2    0    0  0.19991527844E+02 -0.32355237282E+02 -0.46023917516E+02  0.59705305867E+02  0.00000000000E+00 0. -1.
<mgrwt>
<rscale>  0 0.13136822E+03</rscale>
<asrwt>0</asrwt>
<pdfrwt beam="1">  1        1 0.13429157E-01 0.14647699E+03</pdfrwt>
<pdfrwt beam="2">  1       -1 0.50583302E-01 0.14647699E+03</pdfrwt>
<totfact> 0.16991242E+03</totfact>
</mgrwt>
</event>
<event>
 7    1  0.7800420E-006  0.1369354E+03  0.7546771E-02  0.1229035E+00
         -1   -1    0    0    0  501 -0.00000000000E+00  0.00000000000E+00  0.43858753736E+02  0.43858753736E+02  0.00000000000E+00 0.  1.
          1   -1    0    0  501    0  0.00000000000E+00 -0.00000000000E+00 -0.35363348168E+03  0.35363348168E+03  0.00000000000E+00 0. -1.
         23    2    1    2    0    0  0.55058413109E+02  0.97706549241E+01 -0.21007856041E+03  0.25076741679E+03  0.12499760488E+03 0.  0.
          5    1    3    3  502    0  0.90601910373E+02  0.83220351394E+01 -0.18725555497E+03  0.20824191533E+03  0.47000000000E+01 0.  1.
         -5    1    3    3    0  502 -0.35543497265E+02  0.14486197847E+01 -0.22823005445E+02  0.42525501462E+02  0.47000000000E+01 0.  1.
        -11    1    1    2    0    0 -0.55434927038E+01 -0.11343894480E+02  0.16285167672E+02  0.20606332509E+02  0.00000000000E+00 0.  1.
         11    1    1    2    0    0 -0.49514920405E+02  0.15732395564E+01 -0.11598133521E+03  0.12611848612E+03  0.00000000000E+00 0. -1.
<mgrwt>
<rscale>  0 0.12894122E+03</rscale>
<asrwt>0</asrwt>
<pdfrwt beam="2">  1        1 0.54405150E-01 0.13693537E+03</pdfrwt>
<pdfrwt beam="1">  1       -1 0.67475007E-02 0.13693537E+03</pdfrwt>
<totfact> 0.75652818E+03</totfact>
</mgrwt>
</event>
<event>
 7    1  0.7800420E-006  0.1301771E+03  0.7546771E-02  0.1240974E+00
          1   -1    0    0  501    0  0.00000000000E+00  0.00000000000E+00  0.59274852798E+03  0.59274852798E+03  0.00000000000E+00 0. -1.
         -1   -1    0    0    0  501 -0.00000000000E+00 -0.00000000000E+00 -0.26582177541E+02  0.26582177541E+02  0.00000000000E+00 0.  1.
         23    2    1    2    0    0 -0.36164303981E+02  0.37628141439E+01  0.44369376090E+03  0.46239618739E+03  0.12499625995E+03 0.  0.
          5    1    3    3  502    0 -0.15535541287E+02  0.63516616721E+02  0.19379782874E+03  0.20458592832E+03  0.47000000000E+01 0.  1.
         -5    1    3    3    0  502 -0.20628762694E+02 -0.59753802577E+02  0.24989593216E+03  0.25781025908E+03  0.47000000000E+01 0.  1.
        -11    1    1    2    0    0  0.76960744270E+01  0.25275625127E+02 -0.14989121252E+01  0.26463815384E+02  0.00000000000E+00 0.  1.
         11    1    1    2    0    0  0.28468229554E+02 -0.29038439271E+02  0.12397150167E+03  0.13047070274E+03  0.00000000000E+00 0. -1.
<mgrwt>
<rscale>  0 0.12129645E+03</rscale>
<asrwt>0</asrwt>
<pdfrwt beam="1">  1        1 0.91192071E-01 0.13017711E+03</pdfrwt>
<pdfrwt beam="2">  1       -1 0.40895662E-02 0.13017711E+03</pdfrwt>
<totfact> 0.81365381E+03</totfact>
</mgrwt>
</event>
<event>
 6    1  0.7800420E-006  0.2757905E+03  0.7546771E-02  0.1135518E+00
          1   -1    0    0  501    0  0.00000000000E+00  0.00000000000E+00  0.15187314752E+04  0.15187314752E+04  0.00000000000E+00 0. -1.
         -1   -1    0    0    0  501 -0.00000000000E+00 -0.00000000000E+00 -0.24914232667E+02  0.24914232667E+02  0.00000000000E+00 0.  1.
          5    1    1    2  502    0  0.22629916399E+02  0.15488126732E+03  0.81849272682E+03  0.83333831902E+03  0.47000000000E+01 0. -1.
         -5    1    1    2    0  502  0.13872392470E+02 -0.11144899161E+03  0.36797056650E+03  0.38475673979E+03  0.47000000000E+01 0.  1.
        -11    1    1    2    0    0  0.70058015750E+01 -0.42498728512E+02  0.57006929489E+02  0.71449375019E+02  0.00000000000E+00 0.  1.
         11    1    1    2    0    0 -0.43508110444E+02 -0.93354720452E+00  0.25034701970E+03  0.25410127402E+03  0.00000000000E+00 0. -1.
<mgrwt>
<rscale>  0 0.21782157E+03</rscale>
<asrwt>0</asrwt>
<pdfrwt beam="1">  1        1 0.23365092E+00 0.27579055E+03</pdfrwt>
<pdfrwt beam="2">  1       -1 0.38329601E-02 0.27579055E+03</pdfrwt>
<totfact> 0.18223934E+03</totfact>
</mgrwt>
</event>
<event>
 7    1  0.7800420E-006  0.1323973E+03  0.7546771E-02  0.1237823E+00
          1   -1    0    0  501    0  0.00000000000E+00  0.00000000000E+00  0.11403281926E+04  0.11403281926E+04  0.00000000000E+00 0. -1.
         -1   -1    0    0    0  501 -0.00000000000E+00 -0.00000000000E+00 -0.16174086957E+02  0.16174086957E+02  0.00000000000E+00 0.  1.
         23    2    1    2    0    0  0.40970628838E+02  0.15009038555E+02  0.91932875549E+03  0.92881343297E+03  0.12500067569E+03 0.  0.
          5    1    3    3  502    0 -0.19426877799E+02 -0.19522582776E+02  0.55126818110E+02  0.61802838884E+02  0.47000000000E+01 0.  1.
         -5    1    3    3    0  502  0.60397506637E+02  0.34531621331E+02  0.86420193738E+03  0.86701059409E+03  0.47000000000E+01 0.  1.
        -11    1    1    2    0    0  0.26826386791E+01  0.32744084739E+02  0.91163584305E+02  0.96902893347E+02  0.00000000000E+00 0. -1.
         11    1    1    2    0    0 -0.43653267517E+02 -0.47753123294E+02  0.11366176583E+03  0.13078595323E+03  0.00000000000E+00 0.  1.
<mgrwt>
<rscale>  0 0.12325431E+03</rscale>
<asrwt>0</asrwt>
<pdfrwt beam="1">  1        1 0.17543504E+00 0.13239725E+03</pdfrwt>
<pdfrwt beam="2">  1       -1 0.24883220E-02 0.13239725E+03</pdfrwt>
<totfact> 0.61135052E+03</totfact>
</mgrwt>
</event>
<event>
 7    1  0.7800420E-006  0.1288831E+03  0.7546771E-02  0.1242584E+00
         -1   -1    0    0    0  501 -0.00000000000E+00  0.00000000000E+00  0.32326051784E+02  0.32326051784E+02  0.00000000000E+00 0.  1.
          1   -1    0    0  501    0  0.00000000000E+00 -0.00000000000E+00 -0.39777991025E+03  0.39777991025E+03  0.00000000000E+00 0. -1.
         23    2    1    2    0    0  0.69853043184E+01  0.30616565802E+02 -0.21171676345E+03  0.24786054991E+03  0.12499878279E+03 0.  0.
          5    1    3    3  502    0  0.23524297911E+02  0.23048087135E+01 -0.21334014747E+03  0.21469702666E+03  0.47000000000E+01 0. -1.
         -5    1    3    3    0  502 -0.16538993592E+02  0.28311757089E+02  0.16233840219E+01  0.33163523248E+02  0.47000000000E+01 0. -1.
        -11    1    1    2    0    0  0.15060802739E+02  0.23572864032E+02 -0.96222097770E+02  0.10020578724E+03  0.00000000000E+00 0.  1.
         11    1    1    2    0    0 -0.22046107057E+02 -0.54189429834E+02 -0.57514997252E+02  0.82039624883E+02  0.00000000000E+00 0. -1.
<mgrwt>
<rscale>  0 0.12031177E+03</rscale>
<asrwt>0</asrwt>
<pdfrwt beam="2">  1        1 0.61196909E-01 0.12888314E+03</pdfrwt>
<pdfrwt beam="1">  1       -1 0.49732388E-02 0.12888314E+03</pdfrwt>
<totfact> 0.10232443E+04</totfact>
</mgrwt>
</event>
<event>
 7    1  0.7800420E-006  0.1482002E+03  0.7546771E-02  0.1211303E+00
         -2   -1    0    0    0  501 -0.00000000000E+00  0.00000000000E+00  0.18100926142E+02  0.18100926142E+02  0.00000000000E+00 0.  1.
          2   -1    0    0  501    0  0.00000000000E+00 -0.00000000000E+00 -0.11072603288E+04  0.11072603288E+04  0.00000000000E+00 0. -1.
         23    2    1    2    0    0 -0.18771121947E+02 -0.77372438752E+02 -0.75024312915E+03  0.76474051617E+03  0.12499781976E+03 0.  0.
          5    1    3    3  502    0 -0.78560447854E+01  0.96021888316E+00  0.10651214820E+01  0.92662799302E+01  0.47000000000E+01 0. -1.
         -5    1    3    3    0  502 -0.10915077162E+02 -0.78332657635E+02 -0.75130825063E+03  0.75547423624E+03  0.47000000000E+01 0. -1.
        -11    1    1    2    0    0  0.47677479311E+02  0.41363363001E+02 -0.10765492524E+03  0.12479444202E+03  0.00000000000E+00 0.  1.
         11    1    1    2    0    0 -0.28906357363E+02  0.36009075751E+02 -0.23126134830E+03  0.23582629677E+03  0.00000000000E+00 0. -1.
<mgrwt>
<rscale>  0 0.14151634E+03</rscale>
<asrwt>0</asrwt>
<pdfrwt beam="2">  1        2 0.17034773E+00 0.14820022E+03</pdfrwt>
<pdfrwt beam="1">  1       -2 0.27847581E-02 0.14820022E+03</pdfrwt>
<totfact> 0.10393862E+04</totfact>
</mgrwt>
</event>
<event>
 7    1  0.7800420E-006  0.4702131E+03  0.7546771E-02  0.1022411E+00
          1   -1    0    0  501    0  0.00000000000E+00  0.00000000000E+00  0.16198270222E+04  0.16198270222E+04  0.00000000000E+00 0. -1.
         -1   -1    0    0    0  501 -0.00000000000E+00 -0.00000000000E+00 -0.13556687368E+03  0.13556687368E+03  0.00000000000E+00 0.  1.
         23    2    1    2    0    0 -0.29737497475E+03 -0.34211707114E+03  0.83443695010E+03  0.95780235718E+03  0.12499746292E+03 0.  0.
          5    1    3    3  502    0 -0.35574382960E+01  0.89859241231E+01  0.95778185733E+01  0.14395374542E+02  0.47000000000E+01 0.  1.
         -5    1    3    3    0  502 -0.29381753646E+03 -0.35110299526E+03  0.82485913153E+03  0.94340698263E+03  0.47000000000E+01 0.  1.
        -11    1    1    2    0    0  0.28880146358E+03  0.28964613052E+03  0.56586685980E+03  0.69821663495E+03  0.00000000000E+00 0.  1.
         11    1    1    2    0    0  0.85735111734E+01  0.52470940618E+02  0.83956338578E+02  0.99374903726E+02  0.00000000000E+00 0. -1.
<mgrwt>
<rscale>  0 0.46826621E+03</rscale>
<asrwt>0</asrwt>
<pdfrwt beam="1">  1        1 0.24920414E+00 0.47021307E+03</pdfrwt>
<pdfrwt beam="2">  1       -1 0.20856443E-01 0.47021307E+03</pdfrwt>
<totfact> 0.10896316E+02</totfact>
</mgrwt>
</event>
<event>
 7    1  0.7800420E-006  0.1258631E+03  0.7546771E-02  0.1292901E+00
          2   -1    0    0  501    0  0.00000000000E+00  0.00000000000E+00  0.50415271406E+02  0.50415271406E+02  0.00000000000E+00 0. -1.
         -2   -1    0    0    0  501 -0.00000000000E+00 -0.00000000000E+00 -0.15015457995E+03  0.15015457995E+03  0.00000000000E+00 0.  1.
         23    2    1    2    0    0  0.10930386562E+02 -0.97715629348E+01 -0.46355855306E+02  0.13412828188E+03  0.12500629539E+03 0.  0.
          5    1    3    3  502    0  0.36290416853E+02  0.48344949445E+02 -0.33455427995E+02  0.69250156350E+02  0.47000000000E+01 0. -1.
         -5    1    3    3    0  502 -0.25360030291E+02 -0.58116512380E+02 -0.12900427310E+02  0.64878125530E+02  0.47000000000E+01 0. -1.
        -11    1    1    2    0    0 -0.92046215809E+00  0.11019860712E+02 -0.55109051548E+02  0.56207580834E+02  0.00000000000E+00 0.  1.
         11    1    1    2    0    0 -0.10009924404E+02 -0.12482977768E+01  0.17255983117E+01  0.10233988638E+02  0.00000000000E+00 0. -1.
<mgrwt>
<rscale>  0 0.94238298E+02</rscale>
<asrwt>0</asrwt>
<pdfrwt beam="1">  1        2 0.77561956E-02 0.12586314E+03</pdfrwt>
<pdfrwt beam="2">  1       -2 0.23100705E-01 0.12586314E+03</pdfrwt>
<totfact> 0.13388329E+04</totfact>
</mgrwt>
</event>
<event>
 7    1  0.7800420E-006  0.1304264E+03  0.7546771E-02  0.1240992E+00
          1   -1    0    0  501    0  0.00000000000E+00  0.00000000000E+00  0.34293027971E+03  0.34293027971E+03  0.00000000000E+00 0. -1.
         -1   -1    0    0    0  501 -0.00000000000E+00 -0.00000000000E+00 -0.38147436300E+02  0.38147436300E+02  0.00000000000E+00 0.  1.
         23    2    1    2    0    0 -0.37081541916E+02 -0.33111821819E+01  0.18996093132E+03  0.23042612088E+03  0.12500014832E+03 0.  0.
          5    1    3    3  502    0  0.40197755740E+02 -0.93904007248E-01  0.11773276425E+03  0.12449482785E+03  0.47000000000E+01 0. -1.
         -5    1    3    3    0  502 -0.77279297656E+02 -0.32172781747E+01  0.72228167072E+02  0.10593129303E+03  0.47000000000E+01 0. -1.
        -11    1    1    2    0    0  0.52141245997E+02 -0.45086820439E+01  0.22814325778E+02  0.57092304285E+02  0.00000000000E+00 0. -1.
         11    1    1    2    0    0 -0.15059704081E+02  0.78198642258E+01  0.92007586313E+02  0.93559290841E+02  0.00000000000E+00 0.  1.
<mgrwt>
<rscale>  0 0.12128501E+03</rscale>
<asrwt>0</asrwt>
<pdfrwt beam="1">  1        1 0.52758503E-01 0.13042638E+03</pdfrwt>
<pdfrwt beam="2">  1       -1 0.58688366E-02 0.13042638E+03</pdfrwt>
<totfact> 0.96466825E+03</totfact>
</mgrwt>
</event>
<event>
 7    1  0.1124307E-005  0.1844081E+03  0.7546771E-02  0.1168668E+00
          1   -1    0    0  501    0  0.00000000000E+00  0.00000000000E+00  0.20125604967E+04  0.20125604967E+04  0.00000000000E+00 0. -1.
         -1   -1    0    0    0  501 -0.00000000000E+00 -0.00000000000E+00 -0.15767409255E+02  0.15767409255E+02  0.00000000000E+00 0.  1.
         23    2    1    2    0    0 -0.83933884159E+00  0.13557288586E+03  0.12641965665E+04  0.12775755597E+04  0.12500256004E+03 0.  0.
          5    1    3    3  502    0  0.58317896107E+02  0.42072920579E+02  0.41852923396E+03  0.42468802353E+03  0.47000000000E+01 0. -1.
         -5    1    3    3    0  502 -0.59157234948E+02  0.93499965284E+02  0.84566733258E+03  0.85288753616E+03  0.47000000000E+01 0. -1.
        -11    1    1    2    0    0 -0.44044132535E+02 -0.54165677859E+02  0.36235247803E+03  0.36901642863E+03  0.00000000000E+00 0.  1.
         11    1    1    2    0    0  0.44883471377E+02 -0.81407208004E+02  0.37024404287E+03  0.38173591762E+03  0.00000000000E+00 0. -1.
<mgrwt>
<rscale>  0 0.17910901E+03</rscale>
<asrwt>0</asrwt>
<pdfrwt beam="1">  1        1 0.30962449E+00 0.18440811E+03</pdfrwt>
<pdfrwt beam="2">  1       -1 0.24257569E-02 0.18440811E+03</pdfrwt>
<totfact> 0.17155485E+03</totfact>
</mgrwt>
</event>
<event>
 7    1  0.7800420E-006  0.1250488E+03  0.7546771E-02  0.1249006E+00
          2   -1    0    0  501    0  0.00000000000E+00  0.00000000000E+00  0.13281118682E+04  0.13281118682E+04  0.00000000000E+00 0. -1.
         -2   -1    0    0    0  501 -0.00000000000E+00 -0.00000000000E+00 -0.96803429162E+01  0.96803429162E+01  0.00000000000E+00 0.  1.
         23    2    1    2    0    0  0.34473479132E+01  0.10595688356E+01  0.91568086301E+03  0.92417998927E+03  0.12499681113E+03 0.  0.
          5    1    3    3  502    0 -0.66396865290E+01  0.55458906971E+01  0.91138109200E+03  0.91143426927E+03  0.47000000000E+01 0.  1.
         -5    1    3    3    0  502  0.10087034442E+02 -0.44863218615E+01  0.42997710110E+01  0.12745720004E+02  0.47000000000E+01 0.  1.
        -11    1    1    2    0    0 -0.46615718483E+02 -0.96901301055E+01  0.16126615578E+03  0.16814784219E+03  0.00000000000E+00 0.  1.
         11    1    1    2    0    0  0.43168370570E+02  0.86305612699E+01  0.24148450647E+03  0.24546437964E+03  0.00000000000E+00 0. -1.
<mgrwt>
<rscale>  0 0.11648812E+03</rscale>
<asrwt>0</asrwt>
<pdfrwt beam="1">  1        2 0.20432476E+00 0.12504883E+03</pdfrwt>
<pdfrwt beam="2">  1       -2 0.14892846E-02 0.12504883E+03</pdfrwt>
<totfact> 0.19302503E+04</totfact>
</mgrwt>
</event>
<event>
 7    1  0.7800420E-006  0.1298820E+03  0.7546771E-02  0.1241186E+00
          1   -1    0    0  501    0  0.00000000000E+00  0.00000000000E+00  0.48562050070E+03  0.48562050070E+03  0.00000000000E+00 0. -1.
         -1   -1    0    0    0  501 -0.00000000000E+00 -0.00000000000E+00 -0.27527932378E+02  0.27527932378E+02  0.00000000000E+00 0.  1.
         23    2    1    2    0    0 -0.34256289675E+01  0.35121712374E+02  0.30057537981E+03  0.32743686474E+03  0.12499628725E+03 0.  0.
          5    1    3    3  502    0  0.20869492096E+02  0.31122520427E+02  0.29999577332E+03  0.30236352457E+03  0.47000000000E+01 0. -1.
         -5    1    3    3    0  502 -0.24295121063E+02  0.39991919464E+01  0.57960649335E+00  0.25073340172E+02  0.47000000000E+01 0. -1.
        -11    1    1    2    0    0 -0.13400752492E+02 -0.41163917498E+02  0.16166300800E+03  0.16735882536E+03  0.00000000000E+00 0. -1.
         11    1    1    2    0    0  0.16826381459E+02  0.60422051246E+01 -0.41458194867E+01  0.18352742983E+02  0.00000000000E+00 0.  1.
<mgrwt>
<rscale>  0 0.12116581E+03</rscale>
<asrwt>0</asrwt>
<pdfrwt beam="1">  1        1 0.74710840E-01 0.12988203E+03</pdfrwt>
<pdfrwt beam="2">  1       -1 0.42350669E-02 0.12988203E+03</pdfrwt>
<totfact> 0.10059496E+04</totfact>
</mgrwt>
</event>
<event>
 7    1  0.7800420E-006  0.1247832E+03  0.7546771E-02  0.1240909E+00
          2   -1    0    0  501    0  0.00000000000E+00  0.00000000000E+00  0.72256147146E+03  0.72256147146E+03  0.00000000000E+00 0. -1.
         -2   -1    0    0    0  501 -0.00000000000E+00 -0.00000000000E+00 -0.35166894370E+02  0.35166894370E+02  0.00000000000E+00 0.  1.
         23    2    1    2    0    0  0.52673443186E+02  0.25644591789E+01  0.60832879752E+03  0.62099499537E+03  0.11309195514E+03 0.  0.
          5    1    3    3  502    0  0.67323505260E+02  0.23672843851E+02  0.57084593561E+03  0.57530863899E+03  0.47000000000E+01 0. -1.
         -5    1    3    3    0  502 -0.14650062074E+02 -0.21108384673E+02  0.37482861906E+02  0.45686356376E+02  0.47000000000E+01 0.  1.
        -11    1    1    2    0    0 -0.78183228256E+02 -0.12666772557E+02  0.74847954357E+02  0.10897376097E+03  0.00000000000E+00 0.  1.
         11    1    1    2    0    0  0.25509785071E+02  0.10102313378E+02  0.42178252213E+01  0.27759609499E+02  0.00000000000E+00 0. -1.
<mgrwt>
<rscale>  0 0.12133606E+03</rscale>
<asrwt>0</asrwt>
<pdfrwt beam="1">  1        2 0.11116329E+00 0.12478325E+03</pdfrwt>
<pdfrwt beam="2">  1       -2 0.54102920E-02 0.12478325E+03</pdfrwt>
<totfact> 0.67223484E+03</totfact>
</mgrwt>
</event>
<event>
 7    1  0.7800420E-006  0.1382346E+03  0.7546771E-02  0.1227590E+00
         -2   -1    0    0    0  501 -0.00000000000E+00  0.00000000000E+00  0.54489624229E+02  0.54489624229E+02  0.00000000000E+00 0. -1.
          2   -1    0    0  501    0  0.00000000000E+00 -0.00000000000E+00 -0.29073062724E+03  0.29073062724E+03  0.00000000000E+00 0.  1.
         23    2    1    2    0    0 -0.33697688210E+02  0.48463282772E+02 -0.16823019099E+03  0.21773882279E+03  0.12499829527E+03 0.  0.
          5    1    3    3  502    0 -0.31392875514E+02  0.90041170730E+02 -0.12765916286E+03  0.15941103137E+03  0.47000000000E+01 0.  1.
         -5    1    3    3    0  502 -0.23048126963E+01 -0.41577887958E+02 -0.40571028125E+02  0.58327791419E+02  0.47000000000E+01 0.  1.
        -11    1    1    2    0    0  0.24284899943E+01 -0.47097363819E+02  0.56014922451E+01  0.47491430361E+02  0.00000000000E+00 0. -1.
         11    1    1    2    0    0  0.31269198216E+02 -0.13659189531E+01 -0.73612304270E+02  0.79989998322E+02  0.00000000000E+00 0.  1.
<mgrwt>
<rscale>  0 0.12990968E+03</rscale>
<asrwt>0</asrwt>
<pdfrwt beam="2">  1        2 0.44727790E-01 0.13823458E+03</pdfrwt>
<pdfrwt beam="1">  1       -2 0.83830190E-02 0.13823458E+03</pdfrwt>
<totfact> 0.94231359E+03</totfact>
</mgrwt>
</event>
<event>
 7    1  0.7800420E-006  0.1781729E+03  0.7546771E-02  0.1175690E+00
          2   -1    0    0  501    0  0.00000000000E+00  0.00000000000E+00  0.26685370712E+03  0.26685370712E+03  0.00000000000E+00 0. -1.
         -2   -1    0    0    0  501 -0.00000000000E+00 -0.00000000000E+00 -0.10654182854E+03  0.10654182854E+03  0.00000000000E+00 0.  1.
         23    2    1    2    0    0  0.33658259574E+02  0.12242292692E+03  0.11423914836E+03  0.21165107495E+03  0.12500137214E+03 0.  0.
          5    1    3    3  502    0 -0.21211518398E+02  0.11482004595E+03  0.10111181930E+03  0.15452916058E+03  0.47000000000E+01 0.  1.
         -5    1    3    3    0  502  0.54869777973E+02  0.76028809642E+01  0.13127329058E+02  0.57121914376E+02  0.47000000000E+01 0.  1.
        -11    1    1    2    0    0  0.10790633558E+02 -0.11343591705E+02 -0.19740425891E+02  0.25195222954E+02  0.00000000000E+00 0.  1.
         11    1    1    2    0    0 -0.44448893132E+02 -0.11107933521E+03  0.65813156113E+02  0.13654923775E+03  0.00000000000E+00 0. -1.
<mgrwt>
<rscale>  0 0.17208574E+03</rscale>
<asrwt>0</asrwt>
<pdfrwt beam="1">  1        2 0.41054416E-01 0.17817293E+03</pdfrwt>
<pdfrwt beam="2">  1       -2 0.16391051E-01 0.17817293E+03</pdfrwt>
<totfact> 0.35815669E+03</totfact>
</mgrwt>
</event>
<event>
 7    1  0.7800420E-006  0.1926029E+03  0.7546771E-02  0.1160551E+00
         -1   -1    0    0    0  501 -0.00000000000E+00  0.00000000000E+00  0.49399814619E+02  0.49399814619E+02  0.00000000000E+00 0.  1.
          1   -1    0    0  501    0  0.00000000000E+00 -0.00000000000E+00 -0.72484995368E+03  0.72484995368E+03  0.00000000000E+00 0. -1.
         23    2    1    2    0    0  0.69636441413E+02 -0.12892912433E+03 -0.45109989988E+03  0.49049667318E+03  0.12499565456E+03 0.  0.
          5    1    3    3  502    0  0.33309465038E+02 -0.67902048651E+02 -0.38814745561E+03  0.39547534180E+03  0.47000000000E+01 0.  1.
         -5    1    3    3    0  502  0.36326976375E+02 -0.61027075679E+02 -0.62952444263E+02  0.95021331380E+02  0.47000000000E+01 0.  1.
        -11    1    1    2    0    0 -0.27648284638E+02  0.11415506688E+03 -0.20266279095E+03  0.23423922339E+03  0.00000000000E+00 0. -1.
         11    1    1    2    0    0 -0.41988156775E+02  0.14774057450E+02 -0.21687448233E+02  0.49513871731E+02  0.00000000000E+00 0.  1.
<mgrwt>
<rscale>  0 0.18770118E+03</rscale>
<asrwt>0</asrwt>
<pdfrwt beam="2">  1        1 0.11151537E+00 0.19260287E+03</pdfrwt>
<pdfrwt beam="1">  1       -1 0.75999720E-02 0.19260287E+03</pdfrwt>
<totfact> 0.24728397E+03</totfact>
</mgrwt>
</event>
<event>
 7    1  0.7800420E-006  0.1424636E+03  0.7546771E-02  0.1218923E+00
          2   -1    0    0  501    0  0.00000000000E+00  0.00000000000E+00  0.10421223918E+04  0.10421223918E+04  0.00000000000E+00 0.  1.
         -2   -1    0    0    0  501 -0.00000000000E+00 -0.00000000000E+00 -0.17986009880E+02  0.17986009880E+02  0.00000000000E+00 0. -1.
         23    2    1    2    0    0 -0.30713756830E+02  0.61063159827E+02  0.71806774047E+03  0.73206363675E+03  0.12499537593E+03 0.  0.
          5    1    3    3  502    0 -0.69206242230E+01  0.41965430477E+02  0.62360253912E+02  0.75629912487E+02  0.47000000000E+01 0. -1.
         -5    1    3    3    0  502 -0.23793132607E+02  0.19097729350E+02  0.65570748656E+03  0.65643372426E+03  0.47000000000E+01 0. -1.
        -11    1    1    2    0    0  0.16313086402E+02  0.35402367986E+01  0.19495519531E+01  0.16806273155E+02  0.00000000000E+00 0. -1.
         11    1    1    2    0    0  0.14400670428E+02 -0.64603396626E+02  0.30411908953E+03  0.31123849180E+03  0.00000000000E+00 0.  1.
<mgrwt>
<rscale>  0 0.13592295E+03</rscale>
<asrwt>0</asrwt>
<pdfrwt beam="1">  1        2 0.16032647E+00 0.14246364E+03</pdfrwt>
<pdfrwt beam="2">  1       -2 0.27670793E-02 0.14246364E+03</pdfrwt>
<totfact> 0.11420642E+04</totfact>
</mgrwt>
</event>
<event>
 7    1  0.7800420E-006  0.1524007E+03  0.7546771E-02  0.1206884E+00
          2   -1    0    0  501    0  0.00000000000E+00  0.00000000000E+00  0.21504549302E+04  0.21504549302E+04  0.00000000000E+00 0. -1.
         -2   -1    0    0    0  501 -0.00000000000E+00 -0.00000000000E+00 -0.19934065090E+02  0.19934065090E+02  0.00000000000E+00 0.  1.
         23    2    1    2    0    0 -0.85887803039E+02  0.15349643755E+02  0.19181531131E+04  0.19241978407E+04  0.12495454639E+03 0.  0.
          5    1    3    3  502    0 -0.92145093926E+02  0.55203180338E+02  0.11651838463E+04  0.11701340073E+04  0.47000000000E+01 0.  1.
         -5    1    3    3    0  502  0.62572908878E+01 -0.39853536583E+02  0.75296926684E+03  0.75406383342E+03  0.47000000000E+01 0.  1.
        -11    1    1    2    0    0  0.38550124623E+02 -0.52354080839E+01  0.18802732244E+03  0.19200988410E+03  0.00000000000E+00 0. -1.
         11    1    1    2    0    0  0.47337678416E+02 -0.10114235671E+02  0.24340429611E+02  0.54181270515E+02  0.00000000000E+00 0.  1.
<mgrwt>
<rscale>  0 0.14489944E+03</rscale>
<asrwt>0</asrwt>
<pdfrwt beam="1">  1        2 0.33083904E+00 0.15240067E+03</pdfrwt>
<pdfrwt beam="2">  1       -2 0.30667809E-02 0.15240067E+03</pdfrwt>
<totfact> 0.25505813E+03</totfact>
</mgrwt>
</event>
<event>
 7    1  0.7800420E-006  0.1542963E+03  0.7546771E-02  0.1203905E+00
         -1   -1    0    0    0  501 -0.00000000000E+00  0.00000000000E+00  0.30809391545E+03  0.30809391545E+03  0.00000000000E+00 0.  1.
          1   -1    0    0  501    0  0.00000000000E+00 -0.00000000000E+00 -0.79455779970E+02  0.79455779970E+02  0.00000000000E+00 0. -1.
         23    2    1    2    0    0 -0.79208426240E+02 -0.43690080630E+02  0.39628304797E+02  0.15930400511E+03  0.12499826227E+03 0.  0.
          5    1    3    3  502    0 -0.13880876762E+02  0.41938035450E+02 -0.61201854860E-01  0.44424895079E+02  0.47000000000E+01 0. -1.
         -5    1    3    3    0  502 -0.65327549478E+02 -0.85628116080E+02  0.39689506652E+02  0.11487911004E+03  0.47000000000E+01 0. -1.
        -11    1    1    2    0    0 -0.10965083321E+02  0.35475768257E+02  0.61895839850E+02  0.72179347298E+02  0.00000000000E+00 0.  1.
         11    1    1    2    0    0  0.90173509561E+02  0.82143123730E+01  0.12711399083E+03  0.15606634301E+03  0.00000000000E+00 0. -1.
<mgrwt>
<rscale>  0 0.14724054E+03</rscale>
<asrwt>0</asrwt>
<pdfrwt beam="2">  1        1 0.12223966E-01 0.15429635E+03</pdfrwt>
<pdfrwt beam="1">  1       -1 0.47399063E-01 0.15429635E+03</pdfrwt>
<totfact> 0.21681811E+03</totfact>
</mgrwt>
</event>
<event>
 7    1  0.7800420E-006  0.1456319E+03  0.7546771E-02  0.1221009E+00
          2   -1    0    0  501    0  0.00000000000E+00  0.00000000000E+00  0.22142256707E+04  0.22142256707E+04  0.00000000000E+00 0. -1.
         -2   -1    0    0    0  501 -0.00000000000E+00 -0.00000000000E+00 -0.15120094626E+02  0.15120094626E+02  0.00000000000E+00 0.  1.
         23    2    1    2    0    0  0.11603897349E+02 -0.73818421110E+02  0.19869939276E+04  0.19923236450E+04  0.12499931415E+03 0.  0.
          5    1    3    3  502    0 -0.35225827898E+02 -0.84304165440E+02  0.10081317543E+04  0.10122745553E+04  0.47000000000E+01 0.  1.
         -5    1    3    3    0  502  0.46829725247E+02  0.10485744329E+02  0.97886217322E+03  0.98004908967E+03  0.47000000000E+01 0.  1.
        -11    1    1    2    0    0 -0.38408427298E+02  0.33332885571E+02  0.67747435865E+02  0.84711295671E+02  0.00000000000E+00 0.  1.
         11    1    1    2    0    0  0.26804529949E+02  0.40485535539E+02  0.14436421268E+03  0.15231082469E+03  0.00000000000E+00 0. -1.
<mgrwt>
<rscale>  0 0.13444263E+03</rscale>
<asrwt>0</asrwt>
<pdfrwt beam="1">  1        2 0.34064984E+00 0.14563186E+03</pdfrwt>
<pdfrwt beam="2">  1       -2 0.23261702E-02 0.14563186E+03</pdfrwt>
<totfact> 0.35464568E+03</totfact>
</mgrwt>
</event>
<event>
 7    1  0.7800420E-006  0.1818347E+03  0.7546771E-02  0.1172282E+00
         -1   -1    0    0    0  501 -0.00000000000E+00  0.00000000000E+00  0.47178496982E+03  0.47178496982E+03  0.00000000000E+00 0.  1.
          1   -1    0    0  501    0  0.00000000000E+00 -0.00000000000E+00 -0.62444712650E+02  0.62444712650E+02  0.00000000000E+00 0. -1.
         23    2    1    2    0    0 -0.71199602169E+02  0.11122160061E+03  0.17920472007E+03  0.25530018142E+03  0.12499689255E+03 0.  0.
          5    1    3    3  502    0 -0.90545574173E+02  0.11857654734E+03  0.18027249835E+03  0.23404948673E+03  0.47000000000E+01 0.  1.
         -5    1    3    3    0  502  0.19345972005E+02 -0.73549467240E+01 -0.10677782810E+01  0.21250694685E+02  0.47000000000E+01 0.  1.
        -11    1    1    2    0    0 -0.32530603937E+01 -0.28280218926E+02  0.11583950909E+03  0.11928598011E+03  0.00000000000E+00 0.  1.
         11    1    1    2    0    0  0.74452662562E+02 -0.82941381688E+02  0.11429602802E+03  0.15964352095E+03  0.00000000000E+00 0. -1.
<mgrwt>
<rscale>  0 0.17544862E+03</rscale>
<asrwt>0</asrwt>
<pdfrwt beam="2">  1        1 0.96068792E-02 0.18183468E+03</pdfrwt>
<pdfrwt beam="1">  1       -1 0.72582301E-01 0.18183468E+03</pdfrwt>
<totfact> 0.13348082E+03</totfact>
</mgrwt>
</event>
<event>
 7    1  0.7800420E-006  0.1496849E+03  0.7546771E-02  0.1210061E+00
          2   -1    0    0  501    0  0.00000000000E+00  0.00000000000E+00  0.97351000603E+02  0.97351000603E+02  0.00000000000E+00 0.  1.
         -2   -1    0    0    0  501 -0.00000000000E+00 -0.00000000000E+00 -0.19119717306E+03  0.19119717306E+03  0.00000000000E+00 0. -1.
         23    2    1    2    0    0 -0.23925989852E+02  0.78784242218E+02 -0.59070099165E+02  0.16091877055E+03  0.12500465707E+03 0.  0.
          5    1    3    3  502    0 -0.64055298252E+02  0.38940453302E+02 -0.70523491948E+02  0.10302957369E+03  0.47000000000E+01 0. -1.
         -5    1    3    3    0  502  0.40129308399E+02  0.39843788915E+02  0.11453392784E+02  0.57889196868E+02  0.47000000000E+01 0. -1.
        -11    1    1    2    0    0 -0.14139559426E+02 -0.52377853312E+02 -0.54841751970E+02  0.77142623869E+02  0.00000000000E+00 0. -1.
         11    1    1    2    0    0  0.38065549278E+02 -0.26406388906E+02  0.20065678680E+02  0.50486779237E+02  0.00000000000E+00 0.  1.
<mgrwt>
<rscale>  0 0.14245684E+03</rscale>
<asrwt>0</asrwt>
<pdfrwt beam="1">  1        2 0.14977077E-01 0.14968492E+03</pdfrwt>
<pdfrwt beam="2">  1       -2 0.29414949E-01 0.14968492E+03</pdfrwt>
<totfact> 0.39844856E+03</totfact>
</mgrwt>
</event>
<event>
 7    1  0.7800420E-006  0.1266938E+03  0.7546771E-02  0.1243400E+00
          1   -1    0    0  501    0  0.00000000000E+00  0.00000000000E+00  0.21286370839E+03  0.21286370839E+03  0.00000000000E+00 0. -1.
         -1   -1    0    0    0  501 -0.00000000000E+00 -0.00000000000E+00 -0.61468058136E+02  0.61468058136E+02  0.00000000000E+00 0.  1.
         23    2    1    2    0    0 -0.10842585149E+02  0.17595311310E+02  0.94981929533E+02  0.15834417408E+03  0.12499661553E+03 0.  0.
          5    1    3    3  502    0  0.54861080902E+02  0.20011741524E+02  0.59430258933E+02  0.83452104068E+02  0.47000000000E+01 0. -1.
         -5    1    3    3    0  502 -0.65703666052E+02 -0.24164302141E+01  0.35551670600E+02  0.74892070008E+02  0.47000000000E+01 0. -1.
        -11    1    1    2    0    0  0.26599862471E+02 -0.47599641635E+02  0.54707905386E+01  0.54801533887E+02  0.00000000000E+00 0.  1.
         11    1    1    2    0    0 -0.15757277322E+02  0.30004330325E+02  0.50942930181E+02  0.61186058562E+02  0.00000000000E+00 0. -1.
<mgrwt>
<rscale>  0 0.11981632E+03</rscale>
<asrwt>0</asrwt>
<pdfrwt beam="1">  1        1 0.32748262E-01 0.12669377E+03</pdfrwt>
<pdfrwt beam="2">  1       -1 0.94566245E-02 0.12669377E+03</pdfrwt>
<totfact> 0.84774700E+03</totfact>
</mgrwt>
</event>
<event>
 7    1  0.8531789E-006  0.1617040E+03  0.7546771E-02  0.1194309E+00
         -1   -1    0    0    0  501 -0.00000000000E+00  0.00000000000E+00  0.12948557342E+02  0.12948557342E+02  0.00000000000E+00 0.  1.
          1   -1    0    0  501    0  0.00000000000E+00 -0.00000000000E+00 -0.22366034934E+04  0.22366034934E+04  0.00000000000E+00 0. -1.
         23    2    1    2    0    0  0.83720754203E+02 -0.59276711454E+02 -0.17207185990E+04  0.17282999405E+04  0.12500117613E+03 0.  0.
          5    1    3    3  502    0  0.36431138325E+02 -0.41454328567E+02 -0.22487937982E+03  0.23159990213E+03  0.47000000000E+01 0. -1.
         -5    1    3    3    0  502  0.47289615878E+02 -0.17822382888E+02 -0.14958392192E+04  0.14967000383E+04  0.47000000000E+01 0. -1.
        -11    1    1    2    0    0 -0.39842005081E+02 -0.17092510025E+02 -0.10336742576E+03  0.11209087375E+03  0.00000000000E+00 0. -1.
         11    1    1    2    0    0 -0.43878749122E+02  0.76369221480E+02 -0.39956891129E+03  0.40916123653E+03  0.00000000000E+00 0.  1.
<mgrwt>
<rscale>  0 0.15512837E+03</rscale>
<asrwt>0</asrwt>
<pdfrwt beam="2">  1        1 0.34409273E+00 0.16170401E+03</pdfrwt>
<pdfrwt beam="1">  1       -1 0.19920864E-02 0.16170401E+03</pdfrwt>
<totfact> 0.16416646E+03</totfact>
</mgrwt>
</event>
<event>
 6    1  0.7800420E-006  0.2605328E+03  0.7546771E-02  0.1149776E+00
          2   -1    0    0  501    0  0.00000000000E+00  0.00000000000E+00  0.19421121137E+03  0.19421121137E+03  0.00000000000E+00 0. -1.
         -2   -1    0    0    0  501 -0.00000000000E+00 -0.00000000000E+00 -0.26548379975E+03  0.26548379975E+03  0.00000000000E+00 0.  1.
          5    1    1    2  502    0 -0.35009249000E+02 -0.39196997117E+02  0.16698496674E+03  0.17512316014E+03  0.47000000000E+01 0. -1.
         -5    1    1    2    0  502  0.16104149535E+02  0.61188905150E+02 -0.77673201984E+02  0.10029278166E+03  0.47000000000E+01 0.  1.
        -11    1    1    2    0    0 -0.52282975996E+01 -0.39887725784E+02 -0.14491221116E+03  0.15039253541E+03  0.00000000000E+00 0.  1.
         11    1    1    2    0    0  0.24133397064E+02  0.17895817751E+02 -0.15672141967E+02  0.33886533913E+02  0.00000000000E+00 0. -1.
<mgrwt>
<rscale>  0 0.19995587E+03</rscale>
<asrwt>0</asrwt>
<pdfrwt beam="1">  1        2 0.29878648E-01 0.26053282E+03</pdfrwt>
<pdfrwt beam="2">  1       -2 0.40843661E-01 0.26053282E+03</pdfrwt>
<totfact> 0.10081101E+03</totfact>
</mgrwt>
</event>
<event>
 7    1  0.7800420E-006  0.1374482E+03  0.7546771E-02  0.1228871E+00
          2   -1    0    0  501    0  0.00000000000E+00  0.00000000000E+00  0.44156862374E+03  0.44156862374E+03  0.00000000000E+00 0. -1.
         -2   -1    0    0    0  501 -0.00000000000E+00 -0.00000000000E+00 -0.34176591828E+02  0.34176591828E+02  0.00000000000E+00 0.  1.
         23    2    1    2    0    0 -0.49000504501E+02 -0.29438204755E+02  0.25438314898E+03  0.28914147686E+03  0.12499739923E+03 0.  0.
          5    1    3    3  502    0  0.89610319632E+01 -0.42479257255E+02  0.21348456959E+02  0.48606933716E+02  0.47000000000E+01 0.  1.
         -5    1    3    3    0  502 -0.57961536465E+02  0.13041052500E+02  0.23303469202E+03  0.24053454314E+03  0.47000000000E+01 0.  1.
        -11    1    1    2    0    0  0.71075555529E+02  0.97840466421E+01  0.13234114306E+03  0.15053783680E+03  0.00000000000E+00 0.  1.
         11    1    1    2    0    0 -0.22075051027E+02  0.19654158113E+02  0.20667739874E+02  0.36065901908E+02  0.00000000000E+00 0. -1.
<mgrwt>
<rscale>  0 0.12905100E+03</rscale>
<asrwt>0</asrwt>
<pdfrwt beam="1">  1        2 0.67933630E-01 0.13744820E+03</pdfrwt>
<pdfrwt beam="2">  1       -2 0.52579375E-02 0.13744820E+03</pdfrwt>
<totfact> 0.12299702E+04</totfact>
</mgrwt>
</event>
<event>
 7    1  0.7800420E-006  0.1321618E+03  0.7546771E-02  0.1238263E+00
         -2   -1    0    0    0  501 -0.00000000000E+00  0.00000000000E+00  0.28753995619E+02  0.28753995619E+02  0.00000000000E+00 0.  1.
          2   -1    0    0  501    0  0.00000000000E+00 -0.00000000000E+00 -0.76488497070E+03  0.76488497070E+03  0.00000000000E+00 0. -1.
         23    2    1    2    0    0  0.25010258415E+02  0.34893420153E+02 -0.64701616642E+03  0.66037615014E+03  0.12499470495E+03 0.  0.
          5    1    3    3  502    0  0.59690953226E+02  0.62343707847E+02 -0.38240921525E+03  0.39205694193E+03  0.47000000000E+01 0. -1.
         -5    1    3    3    0  502 -0.34680694811E+02 -0.27450287694E+02 -0.26460695117E+03  0.26831920821E+03  0.47000000000E+01 0. -1.
        -11    1    1    2    0    0  0.85651155887E+01  0.26925186266E+02 -0.31654732672E+02  0.42430519218E+02  0.00000000000E+00 0.  1.
         11    1    1    2    0    0 -0.33575374004E+02 -0.61818606420E+02 -0.57460075988E+02  0.90832296964E+02  0.00000000000E+00 0. -1.
<mgrwt>
<rscale>  0 0.12297865E+03</rscale>
<asrwt>0</asrwt>
<pdfrwt beam="2">  1        2 0.11767461E+00 0.13216180E+03</pdfrwt>
<pdfrwt beam="1">  1       -2 0.44236917E-02 0.13216180E+03</pdfrwt>
<totfact> 0.85122719E+03</totfact>
</mgrwt>
</event>
<event>
 7    1  0.7800420E-006  0.2162163E+03  0.7546771E-02  0.1140943E+00
         -3   -1    0    0    0  501 -0.00000000000E+00  0.00000000000E+00  0.76108593040E+02  0.76108593040E+02  0.00000000000E+00 0.  1.
          3   -1    0    0  501    0  0.00000000000E+00 -0.00000000000E+00 -0.62084792239E+03  0.62084792239E+03  0.00000000000E+00 0. -1.
         23    2    1    2    0    0  0.55131296851E+02 -0.16758651575E+03 -0.39700724333E+03  0.45206661163E+03  0.12499907977E+03 0.  0.
          5    1    3    3  502    0  0.49469227567E+02 -0.24828846006E+01 -0.72980339602E+02  0.88326605054E+02  0.47000000000E+01 0.  1.
         -5    1    3    3    0  502  0.56620692846E+01 -0.16510363115E+03 -0.32402690373E+03  0.36374000658E+03  0.47000000000E+01 0.  1.
        -11    1    1    2    0    0 -0.43155294112E+02  0.89760101447E+02 -0.13070751542E+03  0.16432805545E+03  0.00000000000E+00 0. -1.
         11    1    1    2    0    0 -0.11976002739E+02  0.77826414303E+02 -0.17024570607E+02  0.80561848348E+02  0.00000000000E+00 0.  1.
<mgrwt>
<rscale>  0 0.21078893E+03</rscale>
<asrwt>0</asrwt>
<pdfrwt beam="2">  1        3 0.95515067E-01 0.21621626E+03</pdfrwt>
<pdfrwt beam="1">  1       -3 0.11709014E-01 0.21621626E+03</pdfrwt>
<totfact> 0.14023915E+02</totfact>
</mgrwt>
</event>
<event>
 7    1  0.7800420E-006  0.1282916E+03  0.7546771E-02  0.1247979E+00
          1   -1    0    0  501    0  0.00000000000E+00  0.00000000000E+00  0.72765945642E+03  0.72765945642E+03  0.00000000000E+00 0. -1.
         -1   -1    0    0    0  501 -0.00000000000E+00 -0.00000000000E+00 -0.17057502461E+02  0.17057502461E+02  0.00000000000E+00 0.  1.
         23    2    1    2    0    0  0.26970658707E+02  0.10268162818E+02  0.49740911792E+03  0.51368722231E+03  0.12500352065E+03 0.  0.
          5    1    3    3  502    0  0.46263298847E+02  0.59187150448E+02  0.27717336369E+03  0.28721172528E+03  0.47000000000E+01 0.  1.
         -5    1    3    3    0  502 -0.19292640140E+02 -0.48918987631E+02  0.22023575423E+03  0.22647549703E+03  0.47000000000E+01 0.  1.
        -11    1    1    2    0    0 -0.39672008169E+02 -0.33039348419E+02  0.18729304659E+03  0.19427854250E+03  0.00000000000E+00 0. -1.
         11    1    1    2    0    0  0.12701349462E+02  0.22771185601E+02  0.25899789442E+02  0.36751194062E+02  0.00000000000E+00 0.  1.
<mgrwt>
<rscale>  0 0.11708834E+03</rscale>
<asrwt>0</asrwt>
<pdfrwt beam="1">  1        1 0.11194758E+00 0.12829159E+03</pdfrwt>
<pdfrwt beam="2">  1       -1 0.26242317E-02 0.12829159E+03</pdfrwt>
<totfact> 0.11653551E+04</totfact>
</mgrwt>
</event>
<event>
 7    1  0.7800420E-006  0.1260038E+03  0.7546771E-02  0.1248771E+00
          4   -1    0    0  501    0  0.00000000000E+00  0.00000000000E+00  0.24879950717E+03  0.24879950717E+03  0.00000000000E+00 0. -1.
         -4   -1    0    0    0  501 -0.00000000000E+00 -0.00000000000E+00 -0.49214964007E+02  0.49214964007E+02  0.00000000000E+00 0.  1.
         23    2    1    2    0    0 -0.39501701137E+01 -0.15373008636E+02  0.13821835704E+03  0.18703281378E+03  0.12500010388E+03 0.  0.
          5    1    3    3  502    0  0.27282886072E+02  0.40827462561E+02  0.10147443388E+03  0.11282902243E+03  0.47000000000E+01 0.  1.
         -5    1    3    3    0  502 -0.31233056186E+02 -0.56200471197E+02  0.36743923162E+02  0.74203791351E+02  0.47000000000E+01 0.  1.
        -11    1    1    2    0    0  0.35536117522E+01  0.30284441427E+02 -0.14428117090E+02  0.33733456861E+02  0.00000000000E+00 0.  1.
         11    1    1    2    0    0  0.39655836146E+00 -0.14911432791E+02  0.75794303218E+02  0.77248200541E+02  0.00000000000E+00 0. -1.
<mgrwt>
<rscale>  0 0.11662472E+03</rscale>
<asrwt>0</asrwt>
<pdfrwt beam="1">  1        4 0.38276846E-01 0.12600381E+03</pdfrwt>
<pdfrwt beam="2">  1       -4 0.75715331E-02 0.12600381E+03</pdfrwt>
<totfact> 0.13022373E+03</totfact>
</mgrwt>
</event>
<event>
 7    1  0.7800420E-006  0.1573963E+03  0.7546771E-02  0.1199545E+00
          1   -1    0    0  501    0  0.00000000000E+00  0.00000000000E+00  0.47361834547E+03  0.47361834547E+03  0.00000000000E+00 0. -1.
         -1   -1    0    0    0  501 -0.00000000000E+00 -0.00000000000E+00 -0.44539054683E+02  0.44539054683E+02  0.00000000000E+00 0.  1.
         23    2    1    2    0    0 -0.55409983751E+02 -0.77971594637E+02  0.21622012770E+03  0.26744111219E+03  0.12499507589E+03 0.  0.
          5    1    3    3  502    0 -0.15924312237E+02 -0.93621772083E+02  0.78678802450E+02  0.12341419644E+03  0.47000000000E+01 0. -1.
         -5    1    3    3    0  502 -0.39485671515E+02  0.15650177446E+02  0.13754132525E+03  0.14402691575E+03  0.47000000000E+01 0. -1.
        -11    1    1    2    0    0  0.15909959068E+02 -0.19817055000E+02  0.27431443678E+02  0.37394205015E+02  0.00000000000E+00 0.  1.
         11    1    1    2    0    0  0.39500024683E+02  0.97788649637E+02  0.18542771941E+03  0.21332208295E+03  0.00000000000E+00 0. -1.
<mgrwt>
<rscale>  0 0.15075768E+03</rscale>
<asrwt>0</asrwt>
<pdfrwt beam="1">  1        1 0.72864357E-01 0.15739633E+03</pdfrwt>
<pdfrwt beam="2">  1       -1 0.68521626E-02 0.15739633E+03</pdfrwt>
<totfact> 0.51437405E+03</totfact>
</mgrwt>
</event>
<event>
 7    1  0.7800420E-006  0.1442233E+03  0.7546771E-02  0.1218059E+00
         -1   -1    0    0    0  501 -0.00000000000E+00  0.00000000000E+00  0.41909291368E+03  0.41909291368E+03  0.00000000000E+00 0.  1.
          1   -1    0    0  501    0  0.00000000000E+00 -0.00000000000E+00 -0.40353800021E+02  0.40353800021E+02  0.00000000000E+00 0. -1.
         23    2    1    2    0    0  0.71885965025E+02  0.40288067779E+01  0.21064240018E+03  0.25528530999E+03  0.12496617740E+03 0.  0.
          5    1    3    3  502    0  0.48194864716E+02 -0.14890705721E+02  0.21793822970E+03  0.22374905601E+03  0.47000000000E+01 0. -1.
         -5    1    3    3    0  502  0.23691100310E+02  0.18919512499E+02 -0.72958295151E+01  0.31536253985E+02  0.47000000000E+01 0. -1.
        -11    1    1    2    0    0 -0.67543867457E+02 -0.31930784190E+02  0.15690960159E+03  0.17378829673E+03  0.00000000000E+00 0.  1.
         11    1    1    2    0    0 -0.43420975679E+01  0.27901977412E+02  0.11187111883E+02  0.30373106971E+02  0.00000000000E+00 0. -1.
<mgrwt>
<rscale>  0 0.13654237E+03</rscale>
<asrwt>0</asrwt>
<pdfrwt beam="2">  1        1 0.62082772E-02 0.14422333E+03</pdfrwt>
<pdfrwt beam="1">  1       -1 0.64475830E-01 0.14422333E+03</pdfrwt>
<totfact> 0.30099309E+03</totfact>
</mgrwt>
</event>
<event>
 7    1  0.7800420E-006  0.1274175E+03  0.7546771E-02  0.1245769E+00
          1   -1    0    0  501    0  0.00000000000E+00  0.00000000000E+00  0.96587723442E+03  0.96587723442E+03  0.00000000000E+00 0. -1.
         -1   -1    0    0    0  501 -0.00000000000E+00 -0.00000000000E+00 -0.20022284206E+02  0.20022284206E+02  0.00000000000E+00 0.  1.
         23    2    1    2    0    0  0.16006457807E+02  0.18835747976E+02  0.81102801274E+03  0.82097603979E+03  0.12499691341E+03 0.  0.
          5    1    3    3  502    0  0.46650599990E+02 -0.38757315398E+02  0.44675098205E+03  0.45087352765E+03  0.47000000000E+01 0.  1.
         -5    1    3    3    0  502 -0.30644142184E+02  0.57593063375E+02  0.36427703070E+03  0.37010251214E+03  0.47000000000E+01 0.  1.
        -11    1    1    2    0    0  0.16961367084E+02 -0.20190093348E+02  0.12868774373E+03  0.13136157440E+03  0.00000000000E+00 0. -1.
         11    1    1    2    0    0 -0.32967824891E+02  0.13543453715E+01  0.61391937380E+01  0.33561904433E+02  0.00000000000E+00 0.  1.
<mgrwt>
<rscale>  0 0.11839446E+03</rscale>
<asrwt>0</asrwt>
<pdfrwt beam="1">  1        1 0.14859646E+00 0.12741750E+03</pdfrwt>
<pdfrwt beam="2">  1       -1 0.30803522E-02 0.12741750E+03</pdfrwt>
<totfact> 0.59694712E+03</totfact>
</mgrwt>
</event>
<event>
 7    1  0.7800420E-006  0.1362941E+03  0.7546771E-02  0.1229704E+00
         -2   -1    0    0    0  501 -0.00000000000E+00  0.00000000000E+00  0.62727942810E+02  0.62727942810E+02  0.00000000000E+00 0.  1.
          2   -1    0    0  501    0  0.00000000000E+00 -0.00000000000E+00 -0.49739547209E+03  0.49739547209E+03  0.00000000000E+00 0. -1.
         23    2    1    2    0    0 -0.54278991634E+02 -0.20961128497E+01 -0.43137547432E+03  0.45239462163E+03  0.12500196483E+03 0.  0.
          5    1    3    3  502    0  0.99944803847E+01  0.45045049333E+02 -0.83925999659E+02  0.95888526563E+02  0.47000000000E+01 0. -1.
         -5    1    3    3    0  502 -0.64273472019E+02 -0.47141162183E+02 -0.34744947466E+03  0.35650609507E+03  0.47000000000E+01 0. -1.
        -11    1    1    2    0    0 -0.25587981243E+02 -0.86928435921E+01  0.75556920038E+00  0.27034814566E+02  0.00000000000E+00 0.  1.
         11    1    1    2    0    0  0.79866972877E+02  0.10788956442E+02 -0.40476241593E+01  0.80693978704E+02  0.00000000000E+00 0. -1.
<mgrwt>
<rscale>  0 0.12849615E+03</rscale>
<asrwt>0</asrwt>
<pdfrwt beam="2">  1        2 0.76522379E-01 0.13629414E+03</pdfrwt>
<pdfrwt beam="1">  1       -2 0.96504529E-02 0.13629414E+03</pdfrwt>
<totfact> 0.42551252E+03</totfact>
</mgrwt>
</event>
<event>
 7    1  0.1132811E-005  0.1302812E+03  0.7546771E-02  0.1243422E+00
         -1   -1    0    0    0  501 -0.00000000000E+00  0.00000000000E+00  0.25675696368E+02  0.25675696368E+02  0.00000000000E+00 0.  1.
          1   -1    0    0  501    0  0.00000000000E+00 -0.00000000000E+00 -0.49006815728E+03  0.49006815728E+03  0.00000000000E+00 0. -1.
         23    2    1    2    0    0 -0.27980417598E+02 -0.23772837406E+02 -0.29327661153E+03  0.32091175314E+03  0.12500052348E+03 0.  0.
          5    1    3    3  502    0  0.13312054078E+02 -0.62291691334E+02 -0.93345937196E+02  0.11310623141E+03  0.47000000000E+01 0.  1.
         -5    1    3    3    0  502 -0.41292471677E+02  0.38518853928E+02 -0.19993067433E+03  0.20780552173E+03  0.47000000000E+01 0.  1.
        -11    1    1    2    0    0  0.50423909437E+02  0.38985590763E+02 -0.13818173846E+03  0.15217305863E+03  0.00000000000E+00 0.  1.
         11    1    1    2    0    0 -0.22443491839E+02 -0.15212753357E+02 -0.32934110925E+02  0.42659041867E+02  0.00000000000E+00 0. -1.
<mgrwt>
<rscale>  0 0.11980347E+03</rscale>
<asrwt>0</asrwt>
<pdfrwt beam="2">  1        1 0.75395099E-01 0.13028117E+03</pdfrwt>
<pdfrwt beam="1">  1       -1 0.39501073E-02 0.13028117E+03</pdfrwt>
<totfact> 0.11013835E+04</totfact>
</mgrwt>
</event>
<event>
 7    1  0.7800420E-006  0.1394244E+03  0.7546771E-02  0.1225204E+00
         -1   -1    0    0    0  501 -0.00000000000E+00  0.00000000000E+00  0.22775631037E+02  0.22775631037E+02  0.00000000000E+00 0.  1.
          1   -1    0    0  501    0  0.00000000000E+00 -0.00000000000E+00 -0.70348747475E+03  0.70348747475E+03  0.00000000000E+00 0. -1.
         23    2    1    2    0    0 -0.47472136176E+02 -0.39478469814E+02 -0.43696294559E+03  0.45866738047E+03  0.12500798692E+03 0.  0.
          5    1    3    3  502    0 -0.24218962060E+01 -0.32875252899E+02 -0.19265640233E+02  0.38469503870E+02  0.47000000000E+01 0.  1.
         -5    1    3    3    0  502 -0.45050239970E+02 -0.66032169153E+01 -0.41769730536E+03  0.42019787660E+03  0.47000000000E+01 0.  1.
        -11    1    1    2    0    0  0.20539103673E+01  0.42591911404E+02 -0.19986639305E+03  0.20436453835E+03  0.00000000000E+00 0. -1.
         11    1    1    2    0    0  0.45418225809E+02 -0.31134415900E+01 -0.43882505080E+02  0.63231186975E+02  0.00000000000E+00 0.  1.
<mgrwt>
<rscale>  0 0.13152915E+03</rscale>
<asrwt>0</asrwt>
<pdfrwt beam="2">  1        1 0.10822881E+00 0.13942435E+03</pdfrwt>
<pdfrwt beam="1">  1       -1 0.35039442E-02 0.13942435E+03</pdfrwt>
<totfact> 0.80736638E+03</totfact>
</mgrwt>
</event>
<event>
 7    1  0.7800420E-006  0.1541152E+03  0.7546771E-02  0.1204000E+00
          2   -1    0    0  501    0  0.00000000000E+00  0.00000000000E+00  0.20741305518E+04  0.20741305518E+04  0.00000000000E+00 0. -1.
         -2   -1    0    0    0  501 -0.00000000000E+00 -0.00000000000E+00 -0.12844642364E+02  0.12844642364E+02  0.00000000000E+00 0.  1.
         23    2    1    2    0    0  0.38205774966E+02 -0.81652643102E+02  0.16241248034E+04  0.16314205065E+04  0.12499862580E+03 0.  0.
          5    1    3    3  502    0 -0.18613495319E+02 -0.56174960261E+02  0.12988281756E+04  0.13001841439E+04  0.47000000000E+01 0.  1.
         -5    1    3    3    0  502  0.56819270285E+02 -0.25477682841E+02  0.32529662785E+03  0.33123636257E+03  0.47000000000E+01 0.  1.
        -11    1    1    2    0    0 -0.65213054819E+02  0.34436571323E+02  0.25132569323E+03  0.26192217172E+03  0.00000000000E+00 0.  1.
         11    1    1    2    0    0  0.27007279853E+02  0.47216071778E+02  0.18583541283E+03  0.19363251602E+03  0.00000000000E+00 0. -1.
<mgrwt>
<rscale>  0 0.14716567E+03</rscale>
<asrwt>0</asrwt>
<pdfrwt beam="1">  1        2 0.31909674E+00 0.15411519E+03</pdfrwt>
<pdfrwt beam="2">  1       -2 0.19761005E-02 0.15411519E+03</pdfrwt>
<totfact> 0.53183205E+03</totfact>
</mgrwt>
</event>
<event>
 7    1  0.7800420E-006  0.1997264E+03  0.7546771E-02  0.1154210E+00
         -1   -1    0    0    0  501 -0.00000000000E+00  0.00000000000E+00  0.15207408484E+03  0.15207408484E+03  0.00000000000E+00 0.  1.
          1   -1    0    0  501    0  0.00000000000E+00 -0.00000000000E+00 -0.24322728319E+03  0.24322728319E+03  0.00000000000E+00 0. -1.
         23    2    1    2    0    0  0.11329450283E+01 -0.15577187108E+03 -0.18643719772E+02  0.20059463607E+03  0.12499784137E+03 0.  0.
          5    1    3    3  502    0 -0.27735775314E+02 -0.22986072761E+02 -0.49274199432E+02  0.61218212183E+02  0.47000000000E+01 0.  1.
         -5    1    3    3    0  502  0.28868720342E+02 -0.13278579832E+03  0.30630479660E+02  0.13937642388E+03  0.47000000000E+01 0.  1.
        -11    1    1    2    0    0  0.70485398082E+01  0.47977937039E+02  0.19969261550E+02  0.52443643683E+02  0.00000000000E+00 0. -1.
         11    1    1    2    0    0 -0.81814848365E+01  0.10779393404E+03 -0.92478740130E+02  0.14226308828E+03  0.00000000000E+00 0.  1.
<mgrwt>
<rscale>  0 0.19479019E+03</rscale>
<asrwt>0</asrwt>
<pdfrwt beam="2">  1        1 0.37419582E-01 0.19972636E+03</pdfrwt>
<pdfrwt beam="1">  1       -1 0.23396013E-01 0.19972636E+03</pdfrwt>
<totfact> 0.17628585E+03</totfact>
</mgrwt>
</event>
<event>
 7    1  0.1063272E-005  0.2521762E+03  0.7546771E-02  0.1114126E+00
          1   -1    0    0  501    0  0.00000000000E+00  0.00000000000E+00  0.69174697174E+03  0.69174697174E+03  0.00000000000E+00 0. -1.
         -1   -1    0    0    0  501 -0.00000000000E+00 -0.00000000000E+00 -0.87465097595E+02  0.87465097595E+02  0.00000000000E+00 0.  1.
         23    2    1    2    0    0 -0.78978656372E+02 -0.20427751408E+03  0.33762273439E+03  0.42140472205E+03  0.12500359222E+03 0.  0.
          5    1    3    3  502    0 -0.10679273819E+03 -0.14598084973E+03  0.20246059974E+03  0.27152804987E+03  0.47000000000E+01 0. -1.
         -5    1    3    3    0  502  0.27814081816E+02 -0.58296664353E+02  0.13516213465E+03  0.14987667219E+03  0.47000000000E+01 0. -1.
        -11    1    1    2    0    0 -0.37528025610E+01  0.11596483911E+03  0.11026718364E+03  0.16006492191E+03  0.00000000000E+00 0.  1.
         11    1    1    2    0    0  0.82731458933E+02  0.88312674972E+02  0.15639195611E+03  0.19774242537E+03  0.00000000000E+00 0. -1.
<mgrwt>
<rscale>  0 0.24870540E+03</rscale>
<asrwt>0</asrwt>
<pdfrwt beam="1">  1        1 0.10642261E+00 0.25217619E+03</pdfrwt>
<pdfrwt beam="2">  1       -1 0.13456169E-01 0.25217619E+03</pdfrwt>
<totfact> 0.10977322E+03</totfact>
</mgrwt>
</event>
<event>
 7    1  0.7800420E-006  0.1852841E+03  0.7546771E-02  0.1171869E+00
         -1   -1    0    0    0  501 -0.00000000000E+00  0.00000000000E+00  0.18122144489E+03  0.18122144489E+03  0.00000000000E+00 0.  1.
          1   -1    0    0  501    0  0.00000000000E+00 -0.00000000000E+00 -0.15545017217E+03  0.15545017217E+03  0.00000000000E+00 0. -1.
         23    2    1    2    0    0 -0.81641860456E+02 -0.10973429719E+03  0.12222303736E+02  0.18568681761E+03  0.12499280046E+03 0.  0.
          5    1    3    3  502    0 -0.11431988635E+03 -0.72283894492E+02  0.76443616687E+01  0.13555266166E+03  0.47000000000E+01 0.  1.
         -5    1    3    3    0  502  0.32678025899E+02 -0.37450402693E+02  0.45779420675E+01  0.50134155942E+02  0.47000000000E+01 0.  1.
        -11    1    1    2    0    0  0.44299988316E+02  0.31871099344E+02 -0.20309241517E+02  0.58229899787E+02  0.00000000000E+00 0. -1.
         11    1    1    2    0    0  0.37341872140E+02  0.77863197841E+02  0.33858210501E+02  0.92754899662E+02  0.00000000000E+00 0.  1.
<mgrwt>
<rscale>  0 0.17586242E+03</rscale>
<asrwt>0</asrwt>
<pdfrwt beam="2">  1        1 0.23915411E-01 0.18528413E+03</pdfrwt>
<pdfrwt beam="1">  1       -1 0.27880222E-01 0.18528413E+03</pdfrwt>
<totfact> 0.23083316E+03</totfact>
</mgrwt>
</event>
<event>
 7    1  0.7800420E-006  0.1259342E+03  0.7546771E-02  0.1248281E+00
         -1   -1    0    0    0  501 -0.00000000000E+00  0.00000000000E+00  0.66419918665E+02  0.66419918665E+02  0.00000000000E+00 0.  1.
          1   -1    0    0  501    0  0.00000000000E+00 -0.00000000000E+00 -0.19728027773E+03  0.19728027773E+03  0.00000000000E+00 0. -1.
         23    2    1    2    0    0 -0.15204457118E+02 -0.20344437129E+01 -0.11144749384E+03  0.16816650497E+03  0.12499646008E+03 0.  0.
          5    1    3    3  502    0 -0.11520288232E+02  0.61159712218E+02 -0.57527028671E+02  0.84880365616E+02  0.47000000000E+01 0.  1.
         -5    1    3    3    0  502 -0.36841688863E+01 -0.63194155931E+02 -0.53920465169E+02  0.83286139352E+02  0.47000000000E+01 0.  1.
        -11    1    1    2    0    0  0.98396294122E+01  0.30795624264E+02  0.26017067133E+02  0.41497910345E+02  0.00000000000E+00 0.  1.
         11    1    1    2    0    0  0.53648277060E+01 -0.28761180551E+02 -0.45429932360E+02  0.54035781083E+02  0.00000000000E+00 0. -1.
<mgrwt>
<rscale>  0 0.11691164E+03</rscale>
<asrwt>0</asrwt>
<pdfrwt beam="2">  1        1 0.30350813E-01 0.12593423E+03</pdfrwt>
<pdfrwt beam="1">  1       -1 0.10218449E-01 0.12593423E+03</pdfrwt>
<totfact> 0.82748954E+03</totfact>
</mgrwt>
</event>
<event>
 7    1  0.7800420E-006  0.1783783E+03  0.7546771E-02  0.1182804E+00
          1   -1    0    0  501    0  0.00000000000E+00  0.00000000000E+00  0.40508144175E+03  0.40508144175E+03  0.00000000000E+00 0. -1.
         -1   -1    0    0    0  501 -0.00000000000E+00 -0.00000000000E+00 -0.65672433028E+02  0.65672433028E+02  0.00000000000E+00 0.  1.
         23    2    1    2    0    0  0.14492184765E+02  0.12643150593E+03  0.12035409656E+03  0.21518344085E+03  0.12499542210E+03 0.  0.
          5    1    3    3  502    0  0.13083453638E+02  0.58311270200E+02 -0.16551035625E+02  0.62188485845E+02  0.47000000000E+01 0. -1.
         -5    1    3    3    0  502  0.14087311269E+01  0.68120235728E+02  0.13690513218E+03  0.15299495500E+03  0.47000000000E+01 0. -1.
        -11    1    1    2    0    0 -0.25360793527E+02 -0.91779595352E+02  0.15376643615E+03  0.18086121988E+03  0.00000000000E+00 0.  1.
         11    1    1    2    0    0  0.10868608763E+02 -0.34651910576E+02  0.65288476018E+02  0.74709214048E+02  0.00000000000E+00 0. -1.
<mgrwt>
<rscale>  0 0.16533317E+03</rscale>
<asrwt>0</asrwt>
<pdfrwt beam="1">  1        1 0.62320220E-01 0.17837826E+03</pdfrwt>
<pdfrwt beam="2">  1       -1 0.10103451E-01 0.17837826E+03</pdfrwt>
<totfact> 0.35046022E+03</totfact>
</mgrwt>
</event>
<event>
 7    1  0.7800420E-006  0.1332192E+03  0.7546771E-02  0.1237589E+00
          1   -1    0    0  501    0  0.00000000000E+00  0.00000000000E+00  0.18178283361E+02  0.18178283361E+02  0.00000000000E+00 0. -1.
         -1   -1    0    0    0  501 -0.00000000000E+00 -0.00000000000E+00 -0.74457144461E+03  0.74457144461E+03  0.00000000000E+00 0.  1.
         23    2    1    2    0    0  0.35553933753E+02 -0.29288202201E+02 -0.37670479542E+03  0.39956709237E+03  0.12500190967E+03 0.  0.
          5    1    3    3  502    0  0.66522114417E+02  0.23879867164E+02 -0.22124313136E+03  0.23230594684E+03  0.47000000000E+01 0. -1.
         -5    1    3    3    0  502 -0.30968180664E+02 -0.53168069365E+02 -0.15546166406E+03  0.16726114553E+03  0.47000000000E+01 0. -1.
        -11    1    1    2    0    0  0.13854465261E+02  0.35960485986E+02 -0.78497477179E+02  0.87446879210E+02  0.00000000000E+00 0. -1.
         11    1    1    2    0    0 -0.49408399014E+02 -0.66722837849E+01 -0.27119088865E+03  0.27573575638E+03  0.00000000000E+00 0.  1.
<mgrwt>
<rscale>  0 0.12340143E+03</rscale>
<asrwt>0</asrwt>
<pdfrwt beam="1">  1        1 0.27966594E-02 0.13321921E+03</pdfrwt>
<pdfrwt beam="2">  1       -1 0.11454943E+00 0.13321921E+03</pdfrwt>
<totfact> 0.26787243E+03</totfact>
</mgrwt>
</event>
<event>
 7    1  0.7800420E-006  0.1334609E+03  0.7546771E-02  0.1235165E+00
         -2   -1    0    0    0  501 -0.00000000000E+00  0.00000000000E+00  0.40771931024E+03  0.40771931024E+03  0.00000000000E+00 0.  1.
          2   -1    0    0  501    0  0.00000000000E+00 -0.00000000000E+00 -0.14778543458E+03  0.14778543458E+03  0.00000000000E+00 0. -1.
         23    2    1    2    0    0  0.19961729215E+02 -0.42275718713E+02 -0.10917569830E+03  0.17242723979E+03  0.12500445150E+03 0.  0.
          5    1    3    3  502    0  0.19529442437E+02 -0.22658087605E+02  0.23435553049E+02  0.38289727115E+02  0.47000000000E+01 0.  1.
         -5    1    3    3    0  502  0.43228677810E+00 -0.19617631108E+02 -0.13261125135E+03  0.13413751267E+03  0.47000000000E+01 0.  1.
        -11    1    1    2    0    0 -0.48463518245E+02  0.23511929198E+02  0.31147646456E+03  0.31609984402E+03  0.00000000000E+00 0.  1.
         11    1    1    2    0    0  0.28501789029E+02  0.18763789515E+02  0.57633109399E+02  0.66977661006E+02  0.00000000000E+00 0. -1.
<mgrwt>
<rscale>  0 0.12493895E+03</rscale>
<asrwt>0</asrwt>
<pdfrwt beam="2">  1        2 0.22736221E-01 0.13346093E+03</pdfrwt>
<pdfrwt beam="1">  1       -2 0.62726047E-01 0.13346093E+03</pdfrwt>
<totfact> 0.57296252E+02</totfact>
</mgrwt>
</event>
<event>
 7    1  0.7800420E-006  0.1281571E+03  0.7546771E-02  0.1245791E+00
         -2   -1    0    0    0  501 -0.00000000000E+00  0.00000000000E+00  0.23443736997E+02  0.23443736997E+02  0.00000000000E+00 0.  1.
          2   -1    0    0  501    0  0.00000000000E+00 -0.00000000000E+00 -0.57464478147E+03  0.57464478147E+03  0.00000000000E+00 0. -1.
         23    2    1    2    0    0 -0.10305193718E+02 -0.26362551227E+02 -0.40369791297E+03  0.42355193822E+03  0.12499223298E+03 0.  0.
          5    1    3    3  502    0 -0.40796830528E+02 -0.57542208318E+01 -0.38853293964E+02  0.56825706246E+02  0.47000000000E+01 0. -1.
         -5    1    3    3    0  502  0.30491636810E+02 -0.20608330395E+02 -0.36484461901E+03  0.36672623197E+03  0.47000000000E+01 0. -1.
        -11    1    1    2    0    0  0.32194973312E+02  0.48246721057E+02 -0.68931011454E+02  0.90087439410E+02  0.00000000000E+00 0.  1.
         11    1    1    2    0    0 -0.21889779594E+02 -0.21884169830E+02 -0.78572120051E+02  0.84449140843E+02  0.00000000000E+00 0. -1.
<mgrwt>
<rscale>  0 0.11838136E+03</rscale>
<asrwt>0</asrwt>
<pdfrwt beam="2">  1        2 0.88406888E-01 0.12815709E+03</pdfrwt>
<pdfrwt beam="1">  1       -2 0.36067288E-02 0.12815709E+03</pdfrwt>
<totfact> 0.16063040E+04</totfact>
</mgrwt>
</event>
<event>
 6    1  0.7800420E-006  0.1562614E+03  0.7546771E-02  0.1206447E+00
         -2   -1    0    0    0  501 -0.00000000000E+00  0.00000000000E+00  0.18121553529E+03  0.18121553529E+03  0.00000000000E+00 0.  1.
          2   -1    0    0  501    0  0.00000000000E+00 -0.00000000000E+00 -0.10632616920E+03  0.10632616920E+03  0.00000000000E+00 0. -1.
          5    1    1    2  502    0  0.10737679841E+03 -0.42154568084E+02  0.16742694972E+02  0.11665844283E+03  0.47000000000E+01 0. -1.
         -5    1    1    2    0  502 -0.38958237402E+02  0.99218768136E+01 -0.20068948078E+00  0.40476143310E+02  0.47000000000E+01 0.  1.
        -11    1    1    2    0    0 -0.77496161124E+02  0.86513729742E+01  0.13795526139E+02  0.79188495280E+02  0.00000000000E+00 0.  1.
         11    1    1    2    0    0  0.90776001143E+01  0.23581318296E+02  0.44551834460E+02  0.51218623079E+02  0.00000000000E+00 0. -1.
<mgrwt>
<rscale>  0 0.14524047E+03</rscale>
<asrwt>0</asrwt>
<pdfrwt beam="2">  1        2 0.16357872E-01 0.15626145E+03</pdfrwt>
<pdfrwt beam="1">  1       -2 0.27879313E-01 0.15626145E+03</pdfrwt>
<totfact> 0.39662584E+03</totfact>
</mgrwt>
</event>
<event>
 7    1  0.1013679E-005  0.4032094E+03  0.7546771E-02  0.1043451E+00
          1   -1    0    0  501    0  0.00000000000E+00  0.00000000000E+00  0.14248843860E+03  0.14248843860E+03  0.00000000000E+00 0. -1.
         -1   -1    0    0    0  501 -0.00000000000E+00 -0.00000000000E+00 -0.12273640421E+04  0.12273640421E+04  0.00000000000E+00 0.  1.
         23    2    1    2    0    0 -0.21732848463E+03  0.31578634146E+03 -0.34146773671E+03  0.52837300557E+03  0.12500053646E+03 0.  0.
          5    1    3    3  502    0 -0.11183956664E+03  0.14424646155E+03 -0.82688402200E+02  0.20043600524E+03  0.47000000000E+01 0.  1.
         -5    1    3    3    0  502 -0.10548891799E+03  0.17153987991E+03 -0.25877933451E+03  0.32793700034E+03  0.47000000000E+01 0.  1.
        -11    1    1    2    0    0  0.18852695202E+03 -0.22176454468E+03 -0.60854818931E+03  0.67457603250E+03  0.00000000000E+00 0.  1.
         11    1    1    2    0    0  0.28801532610E+02 -0.94021796781E+02 -0.13485967746E+03  0.16690344261E+03  0.00000000000E+00 0. -1.
<mgrwt>
<rscale>  0 0.40095044E+03</rscale>
<asrwt>0</asrwt>
<pdfrwt beam="1">  1        1 0.21921299E-01 0.40320940E+03</pdfrwt>
<pdfrwt beam="2">  1       -1 0.18882523E+00 0.40320940E+03</pdfrwt>
<totfact> 0.44322205E+01</totfact>
</mgrwt>
</event>
<event>
 7    1  0.7800420E-006  0.2101515E+03  0.7546771E-02  0.1145343E+00
         -2   -1    0    0    0  501 -0.00000000000E+00  0.00000000000E+00  0.23183488384E+03  0.23183488384E+03  0.00000000000E+00 0. -1.
          2   -1    0    0  501    0  0.00000000000E+00 -0.00000000000E+00 -0.17702586890E+03  0.17702586890E+03  0.00000000000E+00 0.  1.
         23    2    1    2    0    0 -0.96797195830E+02 -0.13845492210E+03  0.14549778304E+01  0.21015657530E+03  0.12499682639E+03 0.  0.
          5    1    3    3  502    0 -0.74762695901E+01  0.50459371732E+00 -0.39023804018E+02  0.40013703925E+02  0.47000000000E+01 0. -1.
         -5    1    3    3    0  502 -0.89320926240E+02 -0.13895951582E+03  0.40478781848E+02  0.17014287138E+03  0.47000000000E+01 0. -1.
        -11    1    1    2    0    0  0.76604798196E+02  0.31964094858E+02  0.24278862574E+02  0.86483880779E+02  0.00000000000E+00 0. -1.
         11    1    1    2    0    0  0.20192397635E+02  0.10649082724E+03  0.29075174535E+02  0.11222029667E+03  0.00000000000E+00 0.  1.
<mgrwt>
<rscale>  0 0.20530001E+03</rscale>
<asrwt>0</asrwt>
<pdfrwt beam="2">  1        2 0.27234749E-01 0.21015154E+03</pdfrwt>
<pdfrwt beam="1">  1       -2 0.35666906E-01 0.21015154E+03</pdfrwt>
<totfact> 0.14372716E+03</totfact>
</mgrwt>
</event>
<event>
 7    1  0.7800420E-006  0.1335514E+03  0.7546771E-02  0.1235048E+00
          2   -1    0    0  501    0  0.00000000000E+00  0.00000000000E+00  0.64892350860E+02  0.64892350860E+02  0.00000000000E+00 0.  1.
         -2   -1    0    0    0  501 -0.00000000000E+00 -0.00000000000E+00 -0.25377487031E+03  0.25377487031E+03  0.00000000000E+00 0. -1.
         23    2    1    2    0    0 -0.42063835380E+02  0.21011494058E+02 -0.42900678950E+02  0.14027271936E+03  0.12500047365E+03 0.  0.
          5    1    3    3  502    0 -0.26846447339E+02  0.62246858404E+02  0.12816418501E+02  0.69150225590E+02  0.47000000000E+01 0.  1.
         -5    1    3    3    0  502 -0.15217388040E+02 -0.41235364346E+02 -0.55717097451E+02  0.71122493769E+02  0.47000000000E+01 0.  1.
        -11    1    1    2    0    0 -0.75502732526E+01  0.30201141795E+02 -0.40754258109E+02  0.51283770785E+02  0.00000000000E+00 0.  1.
         11    1    1    2    0    0  0.49614108632E+02 -0.51212635853E+02 -0.10522758239E+03  0.12711073103E+03  0.00000000000E+00 0. -1.
<mgrwt>
<rscale>  0 0.12501345E+03</rscale>
<asrwt>0</asrwt>
<pdfrwt beam="1">  1        2 0.99834387E-02 0.13355137E+03</pdfrwt>
<pdfrwt beam="2">  1       -2 0.39042287E-01 0.13355137E+03</pdfrwt>
<totfact> 0.38263339E+03</totfact>
</mgrwt>
</event>
<event>
 7    1  0.7800420E-006  0.1475824E+03  0.7546771E-02  0.1213439E+00
          3   -1    0    0  501    0  0.00000000000E+00  0.00000000000E+00  0.25619870916E+03  0.25619870916E+03  0.00000000000E+00 0. -1.
         -3   -1    0    0    0  501 -0.00000000000E+00 -0.00000000000E+00 -0.71181378660E+02  0.71181378660E+02  0.00000000000E+00 0.  1.
         23    2    1    2    0    0 -0.72880159487E+02  0.29067213448E+02  0.76840812019E+02  0.16638829226E+03  0.12499653142E+03 0.  0.
          5    1    3    3  502    0 -0.38804841296E+02  0.70511536388E+02  0.11068573320E+02  0.81377489438E+02  0.47000000000E+01 0. -1.
         -5    1    3    3    0  502 -0.34075318191E+02 -0.41444322940E+02  0.65772238699E+02  0.85010802826E+02  0.47000000000E+01 0. -1.
        -11    1    1    2    0    0  0.43605823195E+02  0.27159570070E+02  0.27121432488E+02  0.58092014624E+02  0.00000000000E+00 0.  1.
         11    1    1    2    0    0  0.29274336292E+02 -0.56226783518E+02  0.81055085990E+02  0.10289978093E+03  0.00000000000E+00 0. -1.
<mgrwt>
<rscale>  0 0.13991806E+03</rscale>
<asrwt>0</asrwt>
<pdfrwt beam="1">  1        3 0.39415186E-01 0.14758236E+03</pdfrwt>
<pdfrwt beam="2">  1       -3 0.10950981E-01 0.14758236E+03</pdfrwt>
<totfact> 0.94689905E+02</totfact>
</mgrwt>
</event>
<event>
 7    1  0.7800420E-006  0.1353587E+03  0.7546771E-02  0.1230252E+00
          1   -1    0    0  501    0  0.00000000000E+00  0.00000000000E+00  0.12265993624E+03  0.12265993624E+03  0.00000000000E+00 0. -1.
         -1   -1    0    0    0  501 -0.00000000000E+00 -0.00000000000E+00 -0.14635682772E+03  0.14635682772E+03  0.00000000000E+00 0.  1.
         23    2    1    2    0    0  0.49811562535E+02 -0.14784430450E+02  0.42354626571E+02  0.14183051188E+03  0.12498883375E+03 0.  0.
          5    1    3    3  502    0 -0.29172631205E+01 -0.50384030380E+02 -0.18216767943E+02  0.53860946666E+02  0.47000000000E+01 0.  1.
         -5    1    3    3    0  502  0.52728825655E+02  0.35599599930E+02  0.60571394514E+02  0.87969565212E+02  0.47000000000E+01 0.  1.
        -11    1    1    2    0    0  0.18852788296E+02  0.29772013300E+02 -0.82565780972E+01  0.36193528211E+02  0.00000000000E+00 0. -1.
         11    1    1    2    0    0 -0.68664350831E+02 -0.14987582850E+02 -0.57794939951E+02  0.90992723878E+02  0.00000000000E+00 0.  1.
<mgrwt>
<rscale>  0 0.12813334E+03</rscale>
<asrwt>0</asrwt>
<pdfrwt beam="1">  1        1 0.18870759E-01 0.13535871E+03</pdfrwt>
<pdfrwt beam="2">  1       -1 0.22516435E-01 0.13535871E+03</pdfrwt>
<totfact> 0.43734518E+03</totfact>
</mgrwt>
</event>
<event>
 7    1  0.7800420E-006  0.1678002E+03  0.7546771E-02  0.1186824E+00
          2   -1    0    0  501    0  0.00000000000E+00  0.00000000000E+00  0.13396873036E+04  0.13396873036E+04  0.00000000000E+00 0. -1.
         -2   -1    0    0    0  501 -0.00000000000E+00 -0.00000000000E+00 -0.24394739323E+02  0.24394739323E+02  0.00000000000E+00 0.  1.
         23    2    1    2    0    0 -0.54352271826E+02  0.97853210109E+02  0.10368093193E+04  0.10503001896E+04  0.12501001366E+03 0.  0.
          5    1    3    3  502    0 -0.82214600468E+02  0.46262774696E+02  0.82780646145E+03  0.83317771962E+03  0.47000000000E+01 0. -1.
         -5    1    3    3    0  502  0.27862328642E+02  0.51590435412E+02  0.20900285788E+03  0.21712247001E+03  0.47000000000E+01 0. -1.
        -11    1    1    2    0    0 -0.12936400514E+02 -0.58663249383E+02  0.16955852030E+03  0.17988557222E+03  0.00000000000E+00 0. -1.
         11    1    1    2    0    0  0.67288672340E+02 -0.39189960726E+02  0.10892472469E+03  0.13389628112E+03  0.00000000000E+00 0.  1.
<mgrwt>
<rscale>  0 0.16166971E+03</rscale>
<asrwt>0</asrwt>
<pdfrwt beam="1">  1        2 0.20610568E+00 0.16780025E+03</pdfrwt>
<pdfrwt beam="2">  1       -2 0.37530379E-02 0.16780025E+03</pdfrwt>
<totfact> 0.49918411E+03</totfact>
</mgrwt>
</event>
<event>
 7    1  0.7800420E-006  0.1260322E+03  0.7546771E-02  0.1245641E+00
         -1   -1    0    0    0  501 -0.00000000000E+00  0.00000000000E+00  0.41567034283E+02  0.41567034283E+02  0.00000000000E+00 0.  1.
          1   -1    0    0  501    0  0.00000000000E+00 -0.00000000000E+00 -0.32974720036E+03  0.32974720036E+03  0.00000000000E+00 0. -1.
         23    2    1    2    0    0  0.13178500635E+02 -0.92530432387E+01 -0.21294275565E+03  0.24744438631E+03  0.12499926177E+03 0.  0.
          5    1    3    3  502    0 -0.49191233296E+02  0.24285164812E+02 -0.93481146254E+02  0.10849129628E+03  0.47000000000E+01 0.  1.
         -5    1    3    3    0  502  0.62369733931E+02 -0.33538208051E+02 -0.11946160939E+03  0.13895309003E+03  0.47000000000E+01 0.  1.
        -11    1    1    2    0    0  0.17928835109E+02 -0.37158757091E+02 -0.22286647572E+02  0.46892547563E+02  0.00000000000E+00 0.  1.
         11    1    1    2    0    0 -0.31107335745E+02  0.46411800329E+02 -0.52950762857E+02  0.76977300772E+02  0.00000000000E+00 0. -1.
<mgrwt>
<rscale>  0 0.11847117E+03</rscale>
<asrwt>0</asrwt>
<pdfrwt beam="2">  1        1 0.50730337E-01 0.12603217E+03</pdfrwt>
<pdfrwt beam="1">  1       -1 0.63949286E-02 0.12603217E+03</pdfrwt>
<totfact> 0.88900314E+03</totfact>
</mgrwt>
</event>
<event>
 7    1  0.7800420E-006  0.1729348E+03  0.7546771E-02  0.1181010E+00
         -1   -1    0    0    0  501 -0.00000000000E+00  0.00000000000E+00  0.68852817866E+02  0.68852817866E+02  0.00000000000E+00 0.  1.
          1   -1    0    0  501    0  0.00000000000E+00 -0.00000000000E+00 -0.38294326871E+03  0.38294326871E+03  0.00000000000E+00 0. -1.
         23    2    1    2    0    0 -0.58576274075E+02 -0.10415695337E+03 -0.14683049600E+03  0.22686042753E+03  0.12500643265E+03 0.  0.
          5    1    3    3  502    0 -0.46990589733E+01 -0.11589656153E+03 -0.84990856736E+02  0.14387365936E+03  0.47000000000E+01 0. -1.
         -5    1    3    3    0  502 -0.53877215102E+02  0.11739608160E+02 -0.61839639268E+02  0.82986768172E+02  0.47000000000E+01 0. -1.
        -11    1    1    2    0    0 -0.23809821249E+02  0.28190423310E+02 -0.55662550343E+02  0.66782685368E+02  0.00000000000E+00 0.  1.
         11    1    1    2    0    0  0.82386095324E+02  0.75966530057E+02 -0.11159740449E+03  0.15815297367E+03  0.00000000000E+00 0. -1.
<mgrwt>
<rscale>  0 0.16700283E+03</rscale>
<asrwt>0</asrwt>
<pdfrwt beam="2">  1        1 0.58914348E-01 0.17293484E+03</pdfrwt>
<pdfrwt beam="1">  1       -1 0.10592741E-01 0.17293484E+03</pdfrwt>
<totfact> 0.34951819E+03</totfact>
</mgrwt>
</event>
<event>
 7    1  0.7800420E-006  0.1265592E+03  0.7546771E-02  0.1246477E+00
         -1   -1    0    0    0  501 -0.00000000000E+00  0.00000000000E+00  0.46116342203E+02  0.46116342203E+02  0.00000000000E+00 0.  1.
          1   -1    0    0  501    0  0.00000000000E+00 -0.00000000000E+00 -0.53420160421E+03  0.53420160421E+03  0.00000000000E+00 0. -1.
         23    2    1    2    0    0  0.14417822584E+02  0.13472561217E+02 -0.46513045194E+03  0.48204104512E+03  0.12501139285E+03 0.  0.
          5    1    3    3  502    0  0.42210196709E+01 -0.16650576530E+01 -0.46303134992E+03  0.46307743459E+03  0.47000000000E+01 0. -1.
         -5    1    3    3    0  502  0.10196802913E+02  0.15137618870E+02 -0.20991020191E+01  0.18963610521E+02  0.47000000000E+01 0. -1.
        -11    1    1    2    0    0 -0.50343816965E+02  0.10080315588E+02 -0.20384905829E+02  0.55241805316E+02  0.00000000000E+00 0.  1.
         11    1    1    2    0    0  0.35925994381E+02 -0.23552876804E+02 -0.25699042376E+01  0.43035095978E+02  0.00000000000E+00 0. -1.
<mgrwt>
<rscale>  0 0.11797436E+03</rscale>
<asrwt>0</asrwt>
<pdfrwt beam="2">  1        1 0.82184867E-01 0.12655920E+03</pdfrwt>
<pdfrwt beam="1">  1       -1 0.70948215E-02 0.12655920E+03</pdfrwt>
<totfact> 0.41265598E+03</totfact>
</mgrwt>
</event>
<event>
 7    1  0.7800420E-006  0.1285984E+03  0.7546771E-02  0.1244537E+00
         -2   -1    0    0    0  501 -0.00000000000E+00  0.00000000000E+00  0.31653951508E+02  0.31653951508E+02  0.00000000000E+00 0.  1.
          2   -1    0    0  501    0  0.00000000000E+00 -0.00000000000E+00 -0.54317973671E+03  0.54317973671E+03  0.00000000000E+00 0. -1.
         23    2    1    2    0    0 -0.29833630414E+02  0.49059349405E+01 -0.43334505928E+03  0.45202377709E+03  0.12499376364E+03 0.  0.
          5    1    3    3  502    0 -0.54718710520E+02  0.48977362283E+02 -0.31003586744E+03  0.31864909916E+03  0.47000000000E+01 0.  1.
         -5    1    3    3    0  502  0.24885080106E+02 -0.44071427342E+02 -0.12330919184E+03  0.13337467792E+03  0.47000000000E+01 0.  1.
        -11    1    1    2    0    0  0.34083463967E+02  0.20149991952E+02 -0.87260140613E+02  0.95822945224E+02  0.00000000000E+00 0. -1.
         11    1    1    2    0    0 -0.42498335523E+01 -0.25055926893E+02  0.90794146901E+01  0.26986965905E+02  0.00000000000E+00 0.  1.
<mgrwt>
<rscale>  0 0.11913136E+03</rscale>
<asrwt>0</asrwt>
<pdfrwt beam="2">  1        2 0.83566109E-01 0.12859842E+03</pdfrwt>
<pdfrwt beam="1">  1       -2 0.48698390E-02 0.12859842E+03</pdfrwt>
<totfact> 0.10948312E+04</totfact>
</mgrwt>
</event>
<event>
 7    1  0.7800420E-006  0.1802774E+03  0.7546771E-02  0.1173051E+00
         -2   -1    0    0    0  501 -0.00000000000E+00  0.00000000000E+00  0.62009320129E+02  0.62009320129E+02  0.00000000000E+00 0.  1.
          2   -1    0    0  501    0  0.00000000000E+00 -0.00000000000E+00 -0.52326722547E+03  0.52326722547E+03  0.00000000000E+00 0. -1.
         23    2    1    2    0    0  0.88924585986E+02  0.94688159609E+02 -0.34193893541E+03  0.38655165444E+03  0.12500606560E+03 0.  0.
          5    1    3    3  502    0  0.29027214853E+02  0.33489422809E+02 -0.27273049620E+03  0.27634785000E+03  0.47000000000E+01 0. -1.
         -5    1    3    3    0  502  0.59897371133E+02  0.61198736800E+02 -0.69208439208E+02  0.11020380444E+03  0.47000000000E+01 0. -1.
        -11    1    1    2    0    0 -0.70403934092E+02 -0.36815894742E+02 -0.11229266754E+03  0.13755641470E+03  0.00000000000E+00 0. -1.
         11    1    1    2    0    0 -0.18520651894E+02 -0.57872264867E+02 -0.70263023889E+01  0.61168476462E+02  0.00000000000E+00 0.  1.
<mgrwt>
<rscale>  0 0.17468213E+03</rscale>
<asrwt>0</asrwt>
<pdfrwt beam="2">  1        2 0.80502654E-01 0.18027741E+03</pdfrwt>
<pdfrwt beam="1">  1       -2 0.95398950E-02 0.18027741E+03</pdfrwt>
<totfact> 0.41467954E+03</totfact>
</mgrwt>
</event>
<event>
 7    1  0.7800420E-006  0.1552853E+03  0.7546771E-02  0.1200553E+00
          1   -1    0    0  501    0  0.00000000000E+00  0.00000000000E+00  0.99624009184E+02  0.99624009184E+02  0.00000000000E+00 0. -1.
         -1   -1    0    0    0  501 -0.00000000000E+00 -0.00000000000E+00 -0.21160184182E+03  0.21160184182E+03  0.00000000000E+00 0.  1.
         23    2    1    2    0    0  0.83879157691E+02  0.38115329273E+02 -0.55181908621E+02  0.16479857622E+03  0.12500014506E+03 0.  0.
          5    1    3    3  502    0 -0.12442580060E+02  0.50837708605E+02 -0.40673033551E+02  0.66450553595E+02  0.47000000000E+01 0. -1.
         -5    1    3    3    0  502  0.96321737751E+02 -0.12722379333E+02 -0.14508875069E+02  0.98348022629E+02  0.47000000000E+01 0. -1.
        -11    1    1    2    0    0 -0.82138004117E+02 -0.49522858188E+02 -0.77109249018E+02  0.12306502951E+03  0.00000000000E+00 0.  1.
         11    1    1    2    0    0 -0.17411535732E+01  0.11407528915E+02  0.20313325001E+02  0.23362245275E+02  0.00000000000E+00 0. -1.
<mgrwt>
<rscale>  0 0.14993462E+03</rscale>
<asrwt>0</asrwt>
<pdfrwt beam="1">  1        1 0.15326771E-01 0.15528531E+03</pdfrwt>
<pdfrwt beam="2">  1       -1 0.32554129E-01 0.15528531E+03</pdfrwt>
<totfact> 0.31202794E+03</totfact>
</mgrwt>
</event>
<event>
 7    1  0.7800420E-006  0.1379335E+03  0.7546771E-02  0.1227411E+00
         -1   -1    0    0    0  501 -0.00000000000E+00  0.00000000000E+00  0.72789788337E+02  0.72789788337E+02  0.00000000000E+00 0.  1.
          1   -1    0    0  501    0  0.00000000000E+00 -0.00000000000E+00 -0.27154228774E+03  0.27154228774E+03  0.00000000000E+00 0. -1.
         23    2    1    2    0    0 -0.95939430697E+01  0.57492267700E+02 -0.19035267164E+03  0.23507400614E+03  0.12501297602E+03 0.  0.
          5    1    3    3  502    0  0.11940535652E+02  0.65407973092E+02 -0.19918687341E+03  0.21004351900E+03  0.47000000000E+01 0.  1.
         -5    1    3    3    0  502 -0.21534478722E+02 -0.79157053924E+01  0.88342017651E+01  0.25030487141E+02  0.47000000000E+01 0.  1.
        -11    1    1    2    0    0  0.36400818446E+02 -0.69645237126E+02  0.23502399457E+00  0.78584565114E+02  0.00000000000E+00 0.  1.
         11    1    1    2    0    0 -0.26806875376E+02  0.12152969427E+02 -0.86348517557E+01  0.30673504824E+02  0.00000000000E+00 0. -1.
<mgrwt>
<rscale>  0 0.13003009E+03</rscale>
<asrwt>0</asrwt>
<pdfrwt beam="2">  1        1 0.41775737E-01 0.13793349E+03</pdfrwt>
<pdfrwt beam="1">  1       -1 0.11198429E-01 0.13793349E+03</pdfrwt>
<totfact> 0.48733060E+03</totfact>
</mgrwt>
</event>
<event>
 6    1  0.7800420E-006  0.2302925E+03  0.7546771E-02  0.1164318E+00
          2   -1    0    0  501    0  0.00000000000E+00  0.00000000000E+00  0.53124454710E+03  0.53124454710E+03  0.00000000000E+00 0. -1.
         -2   -1    0    0    0  501 -0.00000000000E+00 -0.00000000000E+00 -0.64687375534E+02  0.64687375534E+02  0.00000000000E+00 0.  1.
          5    1    1    2  502    0  0.31964015171E+02  0.35324306206E+01  0.45141354208E+03  0.45258198407E+03  0.47000000000E+01 0. -1.
         -5    1    1    2    0  502 -0.45704000900E+02 -0.94173074211E+01 -0.75150465415E+01  0.47498497890E+02  0.47000000000E+01 0.  1.
        -11    1    1    2    0    0  0.38924225044E+02 -0.29952168066E+02  0.86934259643E+01  0.49877884098E+02  0.00000000000E+00 0.  1.
         11    1    1    2    0    0 -0.25184239315E+02  0.35837044866E+02  0.13965250061E+02  0.45973556572E+02  0.00000000000E+00 0. -1.
<mgrwt>
<rscale>  0 0.18364864E+03</rscale>
<asrwt>0</asrwt>
<pdfrwt beam="1">  1        2 0.81729927E-01 0.23029245E+03</pdfrwt>
<pdfrwt beam="2">  1       -2 0.99519043E-02 0.23029245E+03</pdfrwt>
<totfact> 0.38481245E+03</totfact>
</mgrwt>
</event>
<event>
 7    1  0.7800420E-006  0.1321452E+03  0.7546771E-02  0.1237387E+00
          1   -1    0    0  501    0  0.00000000000E+00  0.00000000000E+00  0.33527044240E+03  0.33527044240E+03  0.00000000000E+00 0. -1.
         -1   -1    0    0    0  501 -0.00000000000E+00 -0.00000000000E+00 -0.48525571886E+02  0.48525571886E+02  0.00000000000E+00 0.  1.
         23    2    1    2    0    0  0.40258256716E+02 -0.14687647845E+02  0.23686838096E+03  0.27123603862E+03  0.12500361801E+03 0.  0.
          5    1    3    3  502    0  0.12650278131E+02 -0.70251794471E+01  0.24137485142E+03  0.24185386410E+03  0.47000000000E+01 0.  1.
         -5    1    3    3    0  502  0.27607978585E+02 -0.76624683975E+01 -0.45064704605E+01  0.29382174520E+02  0.47000000000E+01 0.  1.
        -11    1    1    2    0    0 -0.19130920155E+02 -0.33544286309E+00 -0.26054461777E+02  0.32325525616E+02  0.00000000000E+00 0.  1.
         11    1    1    2    0    0 -0.21127336561E+02  0.15023090708E+02  0.75930951333E+02  0.80234450050E+02  0.00000000000E+00 0. -1.
<mgrwt>
<rscale>  0 0.12352879E+03</rscale>
<asrwt>0</asrwt>
<pdfrwt beam="1">  1        1 0.51580067E-01 0.13214522E+03</pdfrwt>
<pdfrwt beam="2">  1       -1 0.74654728E-02 0.13214522E+03</pdfrwt>
<totfact> 0.69311163E+03</totfact>
</mgrwt>
</event>
<event>
 7    1  0.7800420E-006  0.1472638E+03  0.7546771E-02  0.1214490E+00
          2   -1    0    0  501    0  0.00000000000E+00  0.00000000000E+00  0.95087824784E+02  0.95087824784E+02  0.00000000000E+00 0. -1.
         -2   -1    0    0    0  501 -0.00000000000E+00 -0.00000000000E+00 -0.18914325238E+03  0.18914325238E+03  0.00000000000E+00 0.  1.
         23    2    1    2    0    0 -0.76057197789E+02 -0.16660246460E+02 -0.75237383392E+02  0.16537015923E+03  0.12499745820E+03 0.  0.
          5    1    3    3  502    0 -0.44940964793E+01  0.16216695168E+02 -0.84177162178E+02  0.85971290194E+02  0.47000000000E+01 0. -1.
         -5    1    3    3    0  502 -0.71563101310E+02 -0.32876941628E+02  0.89397787855E+01  0.79398869039E+02  0.47000000000E+01 0. -1.
        -11    1    1    2    0    0  0.20380188551E+02  0.46559957816E+02 -0.22442888286E+02  0.55559562560E+02  0.00000000000E+00 0. -1.
         11    1    1    2    0    0  0.55677009237E+02 -0.29899711356E+02  0.36248440859E+01  0.63301355368E+02  0.00000000000E+00 0.  1.
<mgrwt>
<rscale>  0 0.13914055E+03</rscale>
<asrwt>0</asrwt>
<pdfrwt beam="1">  1        2 0.14628896E-01 0.14726380E+03</pdfrwt>
<pdfrwt beam="2">  1       -2 0.29098962E-01 0.14726380E+03</pdfrwt>
<totfact> 0.41722293E+03</totfact>
</mgrwt>
</event>
<event>
 6    1  0.7800420E-006  0.1758109E+03  0.7546771E-02  0.1179802E+00
          1   -1    0    0  501    0  0.00000000000E+00  0.00000000000E+00  0.63097424533E+03  0.63097424533E+03  0.00000000000E+00 0. -1.
         -1   -1    0    0    0  501 -0.00000000000E+00 -0.00000000000E+00 -0.42559201965E+02  0.42559201965E+02  0.00000000000E+00 0.  1.
          5    1    1    2  502    0 -0.72870103569E+02  0.35821817301E+02  0.18821198451E+03  0.20503437688E+03  0.47000000000E+01 0. -1.
         -5    1    1    2    0  502 -0.29704004040E+02 -0.89179362738E+02  0.18893117033E+03  0.21107430852E+03  0.47000000000E+01 0.  1.
        -11    1    1    2    0    0 -0.10825313965E+02  0.21513929871E+02  0.66885224619E+02  0.71089168466E+02  0.00000000000E+00 0. -1.
         11    1    1    2    0    0  0.11339942157E+03  0.31843615566E+02  0.14438666391E+03  0.18633559344E+03  0.00000000000E+00 0.  1.
<mgrwt>
<rscale>  0 0.16813987E+03</rscale>
<asrwt>0</asrwt>
<pdfrwt beam="1">  1        1 0.97072954E-01 0.17581092E+03</pdfrwt>
<pdfrwt beam="2">  1       -1 0.65475700E-02 0.17581092E+03</pdfrwt>
<totfact> 0.37664748E+03</totfact>
</mgrwt>
</event>
<event>
 7    1  0.7800420E-006  0.1552947E+03  0.7546771E-02  0.1202678E+00
          2   -1    0    0  501    0  0.00000000000E+00  0.00000000000E+00  0.10157332150E+04  0.10157332150E+04  0.00000000000E+00 0. -1.
         -2   -1    0    0    0  501 -0.00000000000E+00 -0.00000000000E+00 -0.19909137346E+02  0.19909137346E+02  0.00000000000E+00 0.  1.
         23    2    1    2    0    0 -0.89992332326E+02  0.19813084517E+02  0.52265544906E+03  0.54523862308E+03  0.12500103789E+03 0.  0.
          5    1    3    3  502    0 -0.91174821082E+02 -0.29851298413E+02  0.42324072662E+03  0.43400316898E+03  0.47000000000E+01 0. -1.
         -5    1    3    3    0  502  0.11824887561E+01  0.49664382929E+02  0.99414722442E+02  0.11123545410E+03  0.47000000000E+01 0. -1.
        -11    1    1    2    0    0  0.57554218661E+02 -0.39575565704E+02  0.41563028658E+03  0.42145847792E+03  0.00000000000E+00 0. -1.
         11    1    1    2    0    0  0.32438113666E+02  0.19762481187E+02  0.57538341993E+02  0.68945251324E+02  0.00000000000E+00 0.  1.
<mgrwt>
<rscale>  0 0.14821928E+03</rscale>
<asrwt>0</asrwt>
<pdfrwt beam="1">  1        2 0.15626661E+00 0.15529468E+03</pdfrwt>
<pdfrwt beam="2">  1       -2 0.30629450E-02 0.15529468E+03</pdfrwt>
<totfact> 0.10242842E+04</totfact>
</mgrwt>
</event>
<event>
 6    1  0.7800420E-006  0.1600737E+03  0.7546771E-02  0.1199920E+00
         -2   -1    0    0    0  501 -0.00000000000E+00  0.00000000000E+00  0.33056974668E+02  0.33056974668E+02  0.00000000000E+00 0.  1.
          2   -1    0    0  501    0  0.00000000000E+00 -0.00000000000E+00 -0.70323605240E+03  0.70323605240E+03  0.00000000000E+00 0. -1.
          5    1    1    2  502    0 -0.52470502316E+02  0.76464258057E+01 -0.45859827461E+03  0.46167747283E+03  0.47000000000E+01 0. -1.
         -5    1    1    2    0  502 -0.20443722466E+02 -0.43633864043E+02 -0.42687560882E+02  0.64545935067E+02  0.47000000000E+01 0.  1.
        -11    1    1    2    0    0 -0.23156830226E+02  0.86802616648E+01 -0.39683749771E+02  0.46758803712E+02  0.00000000000E+00 0. -1.
         11    1    1    2    0    0  0.96071055007E+02  0.27307176573E+02 -0.12920949246E+03  0.16331081546E+03  0.00000000000E+00 0.  1.
<mgrwt>
<rscale>  0 0.15045117E+03</rscale>
<asrwt>0</asrwt>
<pdfrwt beam="2">  1        2 0.10819016E+00 0.16007369E+03</pdfrwt>
<pdfrwt beam="1">  1       -2 0.50856884E-02 0.16007369E+03</pdfrwt>
<totfact> 0.77252081E+03</totfact>
</mgrwt>
</event>
<event>
 7    1  0.7800420E-006  0.1969519E+03  0.7546771E-02  0.1156760E+00
         -2   -1    0    0    0  501 -0.00000000000E+00  0.00000000000E+00  0.44744101228E+02  0.44744101228E+02  0.00000000000E+00 0.  1.
          2   -1    0    0  501    0  0.00000000000E+00 -0.00000000000E+00 -0.93100702555E+03  0.93100702555E+03  0.00000000000E+00 0. -1.
         23    2    1    2    0    0 -0.97523065005E+02 -0.11685202094E+03 -0.65651135947E+03  0.68541753964E+03  0.12499958207E+03 0.  0.
          5    1    3    3  502    0 -0.17760316461E+02 -0.11482683408E+03 -0.35950171028E+03  0.37784150163E+03  0.47000000000E+01 0.  1.
         -5    1    3    3    0  502 -0.79762748544E+02 -0.20251868590E+01 -0.29700964920E+03  0.30757603800E+03  0.47000000000E+01 0.  1.
        -11    1    1    2    0    0 -0.16347506316E+02  0.14808476288E+02 -0.47957035088E+02  0.52786448519E+02  0.00000000000E+00 0. -1.
         11    1    1    2    0    0  0.11387057132E+03  0.10204354465E+03 -0.18179452976E+03  0.23754713862E+03  0.00000000000E+00 0.  1.
<mgrwt>
<rscale>  0 0.19189884E+03</rscale>
<asrwt>0</asrwt>
<pdfrwt beam="2">  1        2 0.14323184E+00 0.19695187E+03</pdfrwt>
<pdfrwt beam="1">  1       -2 0.68837084E-02 0.19695187E+03</pdfrwt>
<totfact> 0.34394801E+03</totfact>
</mgrwt>
</event>
<event>
 7    1  0.7800420E-006  0.2114878E+03  0.7546771E-02  0.1144034E+00
          2   -1    0    0  501    0  0.00000000000E+00  0.00000000000E+00  0.11232478912E+04  0.11232478912E+04  0.00000000000E+00 0. -1.
         -2   -1    0    0    0  501 -0.00000000000E+00 -0.00000000000E+00 -0.51392334319E+02  0.51392334319E+02  0.00000000000E+00 0.  1.
         23    2    1    2    0    0  0.26312769167E+02 -0.16855232357E+03  0.86796149276E+03  0.89335560066E+03  0.12499931485E+03 0.  0.
          5    1    3    3  502    0 -0.34062728682E+02 -0.13839915645E+03  0.63190249202E+03  0.64779429251E+03  0.47000000000E+01 0. -1.
         -5    1    3    3    0  502  0.60375497849E+02 -0.30153167120E+02  0.23605900074E+03  0.24556130815E+03  0.47000000000E+01 0. -1.
        -11    1    1    2    0    0 -0.48421281396E+02  0.78868881359E+02  0.14407478016E+03  0.17123803087E+03  0.00000000000E+00 0. -1.
         11    1    1    2    0    0  0.22108512229E+02  0.89683442207E+02  0.59819284003E+02  0.11004659403E+03  0.00000000000E+00 0.  1.
<mgrwt>
<rscale>  0 0.20691294E+03</rscale>
<asrwt>0</asrwt>
<pdfrwt beam="1">  1        2 0.17280735E+00 0.21148777E+03</pdfrwt>
<pdfrwt beam="2">  1       -2 0.79065138E-02 0.21148777E+03</pdfrwt>
<totfact> 0.21281852E+03</totfact>
</mgrwt>
</event>
<event>
 7    1  0.7800420E-006  0.1658450E+03  0.7546771E-02  0.1189627E+00
         -1   -1    0    0    0  501 -0.00000000000E+00  0.00000000000E+00  0.20634090089E+02  0.20634090089E+02  0.00000000000E+00 0.  1.
          1   -1    0    0  501    0  0.00000000000E+00 -0.00000000000E+00 -0.12173180136E+04  0.12173180136E+04  0.00000000000E+00 0. -1.
         23    2    1    2    0    0 -0.58525342966E+02  0.91942267958E+02 -0.80081775519E+03  0.81781026823E+03  0.12500384549E+03 0.  0.
          5    1    3    3  502    0 -0.42139159768E+02 -0.13469042760E+02 -0.41858414059E+03  0.42094167845E+03  0.47000000000E+01 0.  1.
         -5    1    3    3    0  502 -0.16386183198E+02  0.10541131072E+03 -0.38223361460E+03  0.39686858978E+03  0.47000000000E+01 0.  1.
        -11    1    1    2    0    0  0.75833334587E+01 -0.89396020072E+02 -0.24877408624E+03  0.26445737149E+03  0.00000000000E+00 0.  1.
         11    1    1    2    0    0  0.50942009507E+02 -0.25462478865E+01 -0.14709208212E+03  0.15568446401E+03  0.00000000000E+00 0. -1.
<mgrwt>
<rscale>  0 0.15917870E+03</rscale>
<asrwt>0</asrwt>
<pdfrwt beam="2">  1        1 0.18727965E+00 0.16584498E+03</pdfrwt>
<pdfrwt beam="1">  1       -1 0.31744762E-02 0.16584498E+03</pdfrwt>
<totfact> 0.38221394E+03</totfact>
</mgrwt>
</event>
<event>
 7    1  0.7800420E-006  0.1608669E+03  0.7546771E-02  0.1195218E+00
         -1   -1    0    0    0  501 -0.00000000000E+00  0.00000000000E+00  0.15731551442E+02  0.15731551442E+02  0.00000000000E+00 0.  1.
          1   -1    0    0  501    0  0.00000000000E+00 -0.00000000000E+00 -0.16680436479E+04  0.16680436479E+04  0.00000000000E+00 0. -1.
         23    2    1    2    0    0  0.90481151488E+02 -0.45434720359E+02 -0.12174693495E+04  0.12280512159E+04  0.12500807697E+03 0.  0.
          5    1    3    3  502    0  0.36645184548E+02  0.43214338231E+02 -0.40266823451E+03  0.40666220093E+03  0.47000000000E+01 0.  1.
         -5    1    3    3    0  502  0.53835966940E+02 -0.88649058591E+02 -0.81480111495E+03  0.82138901493E+03  0.47000000000E+01 0.  1.
        -11    1    1    2    0    0 -0.74512056570E+02  0.11556553389E+02 -0.39035017908E+03  0.39756617413E+03  0.00000000000E+00 0. -1.
         11    1    1    2    0    0 -0.15969094918E+02  0.33878166970E+02 -0.44492567925E+02  0.58157809366E+02  0.00000000000E+00 0.  1.
<mgrwt>
<rscale>  0 0.15435757E+03</rscale>
<asrwt>0</asrwt>
<pdfrwt beam="2">  1        1 0.25662213E+00 0.16086694E+03</pdfrwt>
<pdfrwt beam="1">  1       -1 0.24202384E-02 0.16086694E+03</pdfrwt>
<totfact> 0.28626701E+03</totfact>
</mgrwt>
</event>
<event>
 6    1  0.7800420E-006  0.1435903E+03  0.7546771E-02  0.1227170E+00
          2   -1    0    0  501    0  0.00000000000E+00  0.00000000000E+00  0.10567883917E+04  0.10567883917E+04  0.00000000000E+00 0.  1.
         -2   -1    0    0    0  501 -0.00000000000E+00 -0.00000000000E+00 -0.14251100322E+02  0.14251100322E+02  0.00000000000E+00 0. -1.
          5    1    1    2  502    0 -0.41876599429E+02 -0.55509345645E+02  0.23067276558E+03  0.24097085262E+03  0.47000000000E+01 0.  1.
         -5    1    1    2    0  502 -0.41863935523E+01  0.61266637078E+02  0.49105139671E+03  0.49489866733E+03  0.47000000000E+01 0. -1.
        -11    1    1    2    0    0 -0.12467907095E+02 -0.30915927525E+02  0.10935434039E+03  0.11432241707E+03  0.00000000000E+00 0.  1.
         11    1    1    2    0    0  0.58530900076E+02  0.25158636093E+02  0.21145878867E+03  0.22084755498E+03  0.00000000000E+00 0. -1.
<mgrwt>
<rscale>  0 0.13019307E+03</rscale>
<asrwt>0</asrwt>
<pdfrwt beam="1">  1        2 0.16258277E+00 0.14359033E+03</pdfrwt>
<pdfrwt beam="2">  1       -2 0.21924778E-02 0.14359033E+03</pdfrwt>
<totfact> 0.15744669E+04</totfact>
</mgrwt>
</event>
<event>
 7    1  0.7800420E-006  0.1322366E+03  0.7546771E-02  0.1236605E+00
          2   -1    0    0  501    0  0.00000000000E+00  0.00000000000E+00  0.63812720571E+03  0.63812720571E+03  0.00000000000E+00 0. -1.
         -2   -1    0    0    0  501 -0.00000000000E+00 -0.00000000000E+00 -0.27523321105E+02  0.27523321105E+02  0.00000000000E+00 0.  1.
         23    2    1    2    0    0  0.33157430836E+02  0.27611063112E+02  0.48981248034E+03  0.50734879041E+03  0.12499897286E+03 0.  0.
          5    1    3    3  502    0 -0.17786162219E+02 -0.16346320657E+01  0.39686668853E+03  0.39729620946E+03  0.47000000000E+01 0. -1.
         -5    1    3    3    0  502  0.50943593056E+02  0.29245695177E+02  0.92945791805E+02  0.11005258095E+03  0.47000000000E+01 0. -1.
        -11    1    1    2    0    0 -0.11743749795E+02 -0.19112868304E+02 -0.10667220528E+02  0.24839625357E+02  0.00000000000E+00 0.  1.
         11    1    1    2    0    0 -0.21413681041E+02 -0.84981948073E+01  0.13145862479E+03  0.13346211104E+03  0.00000000000E+00 0. -1.
<mgrwt>
<rscale>  0 0.12402275E+03</rscale>
<asrwt>0</asrwt>
<pdfrwt beam="1">  1        2 0.98173405E-01 0.13223664E+03</pdfrwt>
<pdfrwt beam="2">  1       -2 0.42343576E-02 0.13223664E+03</pdfrwt>
<totfact> 0.11264441E+04</totfact>
</mgrwt>
</event>
<event>
 7    1  0.7800420E-006  0.1884854E+03  0.7546771E-02  0.1164895E+00
         -1   -1    0    0    0  501 -0.00000000000E+00  0.00000000000E+00  0.18045023641E+03  0.18045023641E+03  0.00000000000E+00 0.  1.
          1   -1    0    0  501    0  0.00000000000E+00 -0.00000000000E+00 -0.22739468324E+03  0.22739468324E+03  0.00000000000E+00 0. -1.
         23    2    1    2    0    0 -0.12681196923E+02  0.14050388264E+03 -0.12164763258E+03  0.22433212789E+03  0.12499841318E+03 0.  0.
          5    1    3    3  502    0 -0.29519265254E+02  0.18444101923E+02  0.16800689620E+02  0.38934882671E+02  0.47000000000E+01 0.  1.
         -5    1    3    3    0  502  0.16838068331E+02  0.12205978072E+03 -0.13844832220E+03  0.18539724522E+03  0.47000000000E+01 0.  1.
        -11    1    1    2    0    0  0.36720427481E+02 -0.15568123870E+02  0.11854939075E+02  0.41608843480E+02  0.00000000000E+00 0.  1.
         11    1    1    2    0    0 -0.24039230559E+02 -0.12493575877E+03  0.62848246680E+02  0.14190394828E+03  0.00000000000E+00 0. -1.
<mgrwt>
<rscale>  0 0.18303731E+03</rscale>
<asrwt>0</asrwt>
<pdfrwt beam="2">  1        1 0.34983797E-01 0.18848543E+03</pdfrwt>
<pdfrwt beam="1">  1       -1 0.27761575E-01 0.18848543E+03</pdfrwt>
<totfact> 0.14413294E+03</totfact>
</mgrwt>
</event>
<event>
 7    1  0.7800420E-006  0.1279575E+03  0.7546771E-02  0.1245236E+00
          1   -1    0    0  501    0  0.00000000000E+00  0.00000000000E+00  0.69332958868E+03  0.69332958868E+03  0.00000000000E+00 0. -1.
         -1   -1    0    0    0  501 -0.00000000000E+00 -0.00000000000E+00 -0.18216889123E+02  0.18216889123E+02  0.00000000000E+00 0.  1.
         23    2    1    2    0    0  0.27147202735E+02 -0.34059002805E+01  0.43392259472E+03  0.45239578270E+03  0.12499822089E+03 0.  0.
          5    1    3    3  502    0  0.17176167094E+02 -0.74411065020E+01  0.10122186836E+01  0.19326286986E+02  0.47000000000E+01 0.  1.
         -5    1    3    3    0  502  0.99710356408E+01  0.40352062215E+01  0.43291037603E+03  0.43306949572E+03  0.47000000000E+01 0.  1.
        -11    1    1    2    0    0  0.30723338012E+02 -0.10688703899E+02  0.57730354284E+02  0.66264362183E+02  0.00000000000E+00 0. -1.
         11    1    1    2    0    0 -0.57870540747E+02  0.14094604180E+02  0.18345975055E+03  0.19288633292E+03  0.00000000000E+00 0.  1.
<mgrwt>
<rscale>  0 0.11871283E+03</rscale>
<asrwt>0</asrwt>
<pdfrwt beam="1">  1        1 0.10666607E+00 0.12795752E+03</pdfrwt>
<pdfrwt beam="2">  1       -1 0.28025989E-02 0.12795752E+03</pdfrwt>
<totfact> 0.11351477E+04</totfact>
</mgrwt>
</event>
<event>
 7    1  0.7800420E-006  0.1277471E+03  0.7546771E-02  0.1245435E+00
         -2   -1    0    0    0  501 -0.00000000000E+00  0.00000000000E+00  0.14615578610E+02  0.14615578610E+02  0.00000000000E+00 0.  1.
          2   -1    0    0  501    0  0.00000000000E+00 -0.00000000000E+00 -0.86756603018E+03  0.86756603018E+03  0.00000000000E+00 0. -1.
         23    2    1    2    0    0 -0.15554507566E+02  0.21253762394E+02 -0.55384897935E+03  0.56839073057E+03  0.12500266219E+03 0.  0.
          5    1    3    3  502    0  0.45233306591E+02 -0.83652084914E+01 -0.10892835075E+03  0.11833640326E+03  0.47000000000E+01 0.  1.
         -5    1    3    3    0  502 -0.60787814157E+02  0.29618970885E+02 -0.44492062859E+03  0.45005432731E+03  0.47000000000E+01 0.  1.
        -11    1    1    2    0    0  0.34562513020E+01  0.36100406853E+02 -0.11321527397E+03  0.11888180394E+03  0.00000000000E+00 0.  1.
         11    1    1    2    0    0  0.12098256264E+02 -0.57354169247E+02 -0.18588619825E+03  0.19490907428E+03  0.00000000000E+00 0. -1.
<mgrwt>
<rscale>  0 0.11859379E+03</rscale>
<asrwt>0</asrwt>
<pdfrwt beam="2">  1        2 0.13347171E+00 0.12774714E+03</pdfrwt>
<pdfrwt beam="1">  1       -2 0.22485503E-02 0.12774714E+03</pdfrwt>
<totfact> 0.19634676E+04</totfact>
</mgrwt>
</event>
<event>
 7    1  0.7800420E-006  0.1424948E+03  0.7546771E-02  0.1220504E+00
         -2   -1    0    0    0  501 -0.00000000000E+00  0.00000000000E+00  0.12865718987E+02  0.12865718987E+02  0.00000000000E+00 0.  1.
          2   -1    0    0  501    0  0.00000000000E+00 -0.00000000000E+00 -0.13144826762E+04  0.13144826762E+04  0.00000000000E+00 0. -1.
         23    2    1    2    0    0  0.24749926712E+02 -0.63770757695E+02 -0.82841158998E+03  0.84057749507E+03  0.12500197760E+03 0.  0.
          5    1    3    3  502    0  0.45981916620E+02 -0.34140972485E+02 -0.14205064515E+03  0.15323321587E+03  0.47000000000E+01 0.  1.
         -5    1    3    3    0  502 -0.21231989908E+02 -0.29629785210E+02 -0.68636094483E+03  0.68734427921E+03  0.47000000000E+01 0.  1.
        -11    1    1    2    0    0  0.32479832547E+02  0.32170776331E+02 -0.14207273789E+03  0.14924664561E+03  0.00000000000E+00 0.  1.
         11    1    1    2    0    0 -0.57229759259E+02  0.31599981364E+02 -0.33113262930E+03  0.33752425447E+03  0.00000000000E+00 0. -1.
<mgrwt>
<rscale>  0 0.13479891E+03</rscale>
<asrwt>0</asrwt>
<pdfrwt beam="2">  1        2 0.20222802E+00 0.14249478E+03</pdfrwt>
<pdfrwt beam="1">  1       -2 0.19793422E-02 0.14249478E+03</pdfrwt>
<totfact> 0.13111974E+04</totfact>
</mgrwt>
</event>
<event>
 7    1  0.7800420E-006  0.2015149E+03  0.7546771E-02  0.1152648E+00
         -1   -1    0    0    0  501 -0.00000000000E+00  0.00000000000E+00  0.11382491919E+03  0.11382491919E+03  0.00000000000E+00 0.  1.
          1   -1    0    0  501    0  0.00000000000E+00 -0.00000000000E+00 -0.32903419518E+03  0.32903419518E+03  0.00000000000E+00 0. -1.
         23    2    1    2    0    0  0.13647749895E+02 -0.15746502934E+03 -0.14036226394E+03  0.24558060579E+03  0.12500708883E+03 0.  0.
          5    1    3    3  502    0 -0.45616987243E+02 -0.11308934052E+03 -0.59243232517E+02  0.13565382067E+03  0.47000000000E+01 0. -1.
         -5    1    3    3    0  502  0.59264737138E+02 -0.44375688823E+02 -0.81119031421E+02  0.10992678511E+03  0.47000000000E+01 0. -1.
        -11    1    1    2    0    0  0.34108299595E+02  0.65982597548E+02 -0.88975119344E+01  0.74808054373E+02  0.00000000000E+00 0. -1.
         11    1    1    2    0    0 -0.47756049490E+02  0.91482431796E+02 -0.65949500117E+02  0.12247045422E+03  0.00000000000E+00 0.  1.
<mgrwt>
<rscale>  0 0.19659082E+03</rscale>
<asrwt>0</asrwt>
<pdfrwt beam="2">  1        1 0.50620645E-01 0.20151493E+03</pdfrwt>
<pdfrwt beam="1">  1       -1 0.17511526E-01 0.20151493E+03</pdfrwt>
<totfact> 0.19329182E+03</totfact>
</mgrwt>
</event>
<event>
 7    1  0.7800420E-006  0.1858061E+03  0.7546771E-02  0.1167633E+00
         -2   -1    0    0    0  501 -0.00000000000E+00  0.00000000000E+00  0.44306566168E+02  0.44306566168E+02  0.00000000000E+00 0.  1.
          2   -1    0    0  501    0  0.00000000000E+00 -0.00000000000E+00 -0.69277154689E+03  0.69277154689E+03  0.00000000000E+00 0. -1.
         23    2    1    2    0    0  0.13135319206E+03  0.40545109961E+02 -0.32890369961E+03  0.37775861051E+03  0.12500542867E+03 0.  0.
          5    1    3    3  502    0 -0.13438467644E+02  0.14265442164E+02 -0.33111144163E+01  0.20424219236E+02  0.47000000000E+01 0. -1.
         -5    1    3    3    0  502  0.14479165971E+03  0.26279667797E+02 -0.32559258519E+03  0.35733439128E+03  0.47000000000E+01 0. -1.
        -11    1    1    2    0    0 -0.13435296322E+03 -0.23555890749E+02 -0.22437800557E+03  0.26258539202E+03  0.00000000000E+00 0. -1.
         11    1    1    2    0    0  0.29997711586E+01 -0.16989219212E+02 -0.95183275547E+02  0.96734110531E+02  0.00000000000E+00 0.  1.
<mgrwt>
<rscale>  0 0.18017628E+03</rscale>
<asrwt>0</asrwt>
<pdfrwt beam="2">  1        2 0.10658023E+00 0.18580615E+03</pdfrwt>
<pdfrwt beam="1">  1       -2 0.68163954E-02 0.18580615E+03</pdfrwt>
<totfact> 0.50683368E+03</totfact>
</mgrwt>
</event>
<event>
 7    1  0.7800420E-006  0.2117936E+03  0.7546771E-02  0.1144187E+00
         -1   -1    0    0    0  501 -0.00000000000E+00  0.00000000000E+00  0.29501499330E+02  0.29501499330E+02  0.00000000000E+00 0.  1.
          1   -1    0    0  501    0  0.00000000000E+00 -0.00000000000E+00 -0.14740366164E+04  0.14740366164E+04  0.00000000000E+00 0. -1.
         23    2    1    2    0    0  0.16623385059E+03 -0.39967256991E+02 -0.94142721882E+03  0.96495686273E+03  0.12500185553E+03 0.  0.
          5    1    3    3  502    0  0.73035120894E+02 -0.22559968134E+02 -0.15569395120E+03  0.17351016537E+03  0.47000000000E+01 0.  1.
         -5    1    3    3    0  502  0.93198729695E+02 -0.17407288857E+02 -0.78573326762E+03  0.79144669736E+03  0.47000000000E+01 0.  1.
        -11    1    1    2    0    0 -0.63851991813E+02  0.42302693865E+02 -0.12282024163E+03  0.14474600692E+03  0.00000000000E+00 0. -1.
         11    1    1    2    0    0 -0.10238185878E+03 -0.23354368741E+01 -0.38028765662E+03  0.39383524607E+03  0.00000000000E+00 0.  1.
<mgrwt>
<rscale>  0 0.20672343E+03</rscale>
<asrwt>0</asrwt>
<pdfrwt beam="2">  1        1 0.22677488E+00 0.21179362E+03</pdfrwt>
<pdfrwt beam="1">  1       -1 0.45386919E-02 0.21179362E+03</pdfrwt>
<totfact> 0.15185570E+03</totfact>
</mgrwt>
</event>
<event>
 7    1  0.7800420E-006  0.1771068E+03  0.7546771E-02  0.1176616E+00
         -3   -1    0    0    0  501 -0.00000000000E+00  0.00000000000E+00  0.94044909771E+02  0.94044909771E+02  0.00000000000E+00 0.  1.
          3   -1    0    0  501    0  0.00000000000E+00 -0.00000000000E+00 -0.30103558616E+03  0.30103558616E+03  0.00000000000E+00 0. -1.
         23    2    1    2    0    0  0.52945345184E+01  0.12534871697E+03 -0.14356635847E+03  0.22798710440E+03  0.12500595005E+03 0.  0.
          5    1    3    3  502    0 -0.13106642544E+02  0.13549669165E+03 -0.15267721495E+03  0.20460586377E+03  0.47000000000E+01 0.  1.
         -5    1    3    3    0  502  0.18401177063E+02 -0.10147974676E+02  0.91108564821E+01  0.23381240625E+02  0.47000000000E+01 0.  1.
        -11    1    1    2    0    0  0.15532951063E+02  0.88441144642E+01 -0.13531628668E+02  0.22418650802E+02  0.00000000000E+00 0.  1.
         11    1    1    2    0    0 -0.20827485581E+02 -0.13419283143E+03 -0.49892689247E+02  0.14467474073E+03  0.00000000000E+00 0. -1.
<mgrwt>
<rscale>  0 0.17118694E+03</rscale>
<asrwt>0</asrwt>
<pdfrwt beam="2">  1        3 0.46313166E-01 0.17710681E+03</pdfrwt>
<pdfrwt beam="1">  1       -3 0.14468448E-01 0.17710681E+03</pdfrwt>
<totfact> 0.44263450E+02</totfact>
</mgrwt>
</event>
<event>
 7    1  0.7800420E-006  0.1300557E+03  0.7546771E-02  0.1241463E+00
          1   -1    0    0  501    0  0.00000000000E+00  0.00000000000E+00  0.14958653081E+03  0.14958653081E+03  0.00000000000E+00 0. -1.
         -1   -1    0    0    0  501 -0.00000000000E+00 -0.00000000000E+00 -0.93029321483E+02  0.93029321483E+02  0.00000000000E+00 0.  1.
         23    2    1    2    0    0 -0.33983499908E+02 -0.11684852438E+02  0.63904175278E+02  0.14490761156E+03  0.12499223267E+03 0.  0.
          5    1    3    3  502    0  0.10938085695E+02 -0.33542474140E+02 -0.24532065960E+02  0.43227902452E+02  0.47000000000E+01 0.  1.
         -5    1    3    3    0  502 -0.44921585603E+02  0.21857621702E+02  0.88436241239E+02  0.10167970911E+03  0.47000000000E+01 0.  1.
        -11    1    1    2    0    0  0.30567323920E+02 -0.68103262413E+01  0.37630261406E+02  0.48956903585E+02  0.00000000000E+00 0. -1.
         11    1    1    2    0    0  0.34161759873E+01  0.18495178679E+02 -0.44977227359E+02  0.48751337147E+02  0.00000000000E+00 0.  1.
<mgrwt>
<rscale>  0 0.12099625E+03</rscale>
<asrwt>0</asrwt>
<pdfrwt beam="1">  1        1 0.23013312E-01 0.13005565E+03</pdfrwt>
<pdfrwt beam="2">  1       -1 0.14312203E-01 0.13005565E+03</pdfrwt>
<totfact> 0.69723498E+03</totfact>
</mgrwt>
</event>
<event>
 6    1  0.7800420E-006  0.1469169E+03  0.7546771E-02  0.1220401E+00
         -1   -1    0    0    0  501 -0.00000000000E+00  0.00000000000E+00  0.47162115116E+03  0.47162115116E+03  0.00000000000E+00 0.  1.
          1   -1    0    0  501    0  0.00000000000E+00 -0.00000000000E+00 -0.33480181479E+02  0.33480181479E+02  0.00000000000E+00 0. -1.
          5    1    1    2  502    0 -0.37580570409E+02  0.40144436845E+02  0.11182719328E+03  0.12470479637E+03  0.47000000000E+01 0. -1.
         -5    1    1    2    0  502  0.15049070542E+02 -0.89339368612E+02  0.13912219728E+03  0.16608754645E+03  0.47000000000E+01 0.  1.
        -11    1    1    2    0    0  0.21124963262E+02  0.53084142292E+00  0.25109867460E+00  0.21133123668E+02  0.00000000000E+00 0. -1.
         11    1    1    2    0    0  0.14065366047E+01  0.48664090344E+02  0.18694048045E+03  0.19317586615E+03  0.00000000000E+00 0.  1.
<mgrwt>
<rscale>  0 0.13487167E+03</rscale>
<asrwt>0</asrwt>
<pdfrwt beam="2">  1        1 0.51507975E-02 0.14691695E+03</pdfrwt>
<pdfrwt beam="1">  1       -1 0.72557095E-01 0.14691695E+03</pdfrwt>
<totfact> 0.30818319E+03</totfact>
</mgrwt>
</event>
<event>
 7    1  0.7800420E-006  0.1822268E+03  0.7546771E-02  0.1170977E+00
          1   -1    0    0  501    0  0.00000000000E+00  0.00000000000E+00  0.14428158153E+03  0.14428158153E+03  0.00000000000E+00 0. -1.
         -1   -1    0    0    0  501 -0.00000000000E+00 -0.00000000000E+00 -0.30720053042E+03  0.30720053042E+03  0.00000000000E+00 0.  1.
         23    2    1    2    0    0  0.12356381589E+03  0.48101938018E+02  0.45600507122E+02  0.18784570749E+03  0.12499916214E+03 0.  0.
          5    1    3    3  502    0  0.14034664193E+03  0.63592319429E+02  0.23904587268E+02  0.15599577650E+03  0.47000000000E+01 0.  1.
         -5    1    3    3    0  502 -0.16782826046E+02 -0.15490381411E+02  0.21695919853E+02  0.31849930999E+02  0.47000000000E+01 0.  1.
        -11    1    1    2    0    0 -0.59959920394E+02 -0.12431412467E+02 -0.17098643139E+03  0.18162073612E+03  0.00000000000E+00 0.  1.
         11    1    1    2    0    0 -0.63603895492E+02 -0.35670525551E+02 -0.37533024633E+02  0.82015668338E+02  0.00000000000E+00 0. -1.
<mgrwt>
<rscale>  0 0.17675857E+03</rscale>
<asrwt>0</asrwt>
<pdfrwt beam="1">  1        1 0.22197166E-01 0.18222679E+03</pdfrwt>
<pdfrwt beam="2">  1       -1 0.47261620E-01 0.18222679E+03</pdfrwt>
<totfact> 0.10117189E+03</totfact>
</mgrwt>
</event>
<event>
 7    1  0.7800420E-006  0.1411588E+03  0.7546771E-02  0.1222707E+00
          1   -1    0    0  501    0  0.00000000000E+00  0.00000000000E+00  0.75423967090E+03  0.75423967090E+03  0.00000000000E+00 0. -1.
         -1   -1    0    0    0  501 -0.00000000000E+00 -0.00000000000E+00 -0.30185126694E+02  0.30185126694E+02  0.00000000000E+00 0.  1.
         23    2    1    2    0    0  0.85144695876E+01  0.65034506663E+02  0.60357841199E+03  0.61986506709E+03  0.12499527481E+03 0.  0.
          5    1    3    3  502    0 -0.66797872417E+00 -0.18887512312E+02  0.38515433167E+03  0.38564638404E+03  0.47000000000E+01 0.  1.
         -5    1    3    3    0  502  0.91824483118E+01  0.83922018974E+02  0.21842408032E+03  0.23421868305E+03  0.47000000000E+01 0.  1.
        -11    1    1    2    0    0  0.40341998593E+02 -0.40475167011E+02  0.55883676361E+02  0.79929351797E+02  0.00000000000E+00 0.  1.
         11    1    1    2    0    0 -0.48856468180E+02 -0.24559339651E+02  0.64592455850E+02  0.84630378706E+02  0.00000000000E+00 0. -1.
<mgrwt>
<rscale>  0 0.13325331E+03</rscale>
<asrwt>0</asrwt>
<pdfrwt beam="1">  1        1 0.11603686E+00 0.14115878E+03</pdfrwt>
<pdfrwt beam="2">  1       -1 0.46438662E-02 0.14115878E+03</pdfrwt>
<totfact> 0.48262021E+03</totfact>
</mgrwt>
</event>
<event>
 7    1  0.7800420E-006  0.1276919E+03  0.7546771E-02  0.1245758E+00
         -4   -1    0    0    0  501 -0.00000000000E+00  0.00000000000E+00  0.84334871138E+02  0.84334871138E+02  0.00000000000E+00 0.  1.
          4   -1    0    0  501    0  0.00000000000E+00 -0.00000000000E+00 -0.15380925910E+03  0.15380925910E+03  0.00000000000E+00 0. -1.
         23    2    1    2    0    0  0.78418250084E+01  0.24888608305E+02 -0.65874612509E+02  0.14368257172E+03  0.12499711917E+03 0.  0.
          5    1    3    3  502    0  0.55292762875E+02 -0.20958190707E+02 -0.44541271540E+02  0.74179176690E+02  0.47000000000E+01 0. -1.
         -5    1    3    3    0  502 -0.47450937867E+02  0.45846799012E+02 -0.21333340969E+02  0.69503395032E+02  0.47000000000E+01 0. -1.
        -11    1    1    2    0    0 -0.55240188444E+01  0.33972417855E+02 -0.81794568543E+01  0.35377160338E+02  0.00000000000E+00 0.  1.
         11    1    1    2    0    0 -0.23178061639E+01 -0.58861026160E+02  0.45796814037E+01  0.59084398176E+02  0.00000000000E+00 0. -1.
<mgrwt>
<rscale>  0 0.11840154E+03</rscale>
<asrwt>0</asrwt>
<pdfrwt beam="2">  1        4 0.23662963E-01 0.12769188E+03</pdfrwt>
<pdfrwt beam="1">  1       -4 0.12974596E-01 0.12769188E+03</pdfrwt>
<totfact> 0.13095004E+03</totfact>
</mgrwt>
</event>
<event>
 7    1  0.7800420E-006  0.1384532E+03  0.7546771E-02  0.1227411E+00
          2   -1    0    0  501    0  0.00000000000E+00  0.00000000000E+00  0.71184363855E+03  0.71184363855E+03  0.00000000000E+00 0. -1.
         -2   -1    0    0    0  501 -0.00000000000E+00 -0.00000000000E+00 -0.21611308226E+02  0.21611308226E+02  0.00000000000E+00 0.  1.
         23    2    1    2    0    0 -0.55474592642E+02  0.21617222214E+02  0.34262228708E+03  0.36953934542E+03  0.12499824593E+03 0.  0.
          5    1    3    3  502    0 -0.28257677134E+02  0.25620670716E+01  0.33353877418E+03  0.33477643942E+03  0.47000000000E+01 0.  1.
         -5    1    3    3    0  502 -0.27216915508E+02  0.19055155143E+02  0.90835128970E+01  0.34762906004E+02  0.47000000000E+01 0.  1.
        -11    1    1    2    0    0  0.77339861353E+02 -0.23944541696E+02  0.21998817642E+03  0.23441329526E+03  0.00000000000E+00 0.  1.
         11    1    1    2    0    0 -0.21865268711E+02  0.23273194814E+01  0.12762186683E+03  0.12950230609E+03  0.00000000000E+00 0. -1.
<mgrwt>
<rscale>  0 0.13002986E+03</rscale>
<asrwt>0</asrwt>
<pdfrwt beam="1">  1        2 0.10951439E+00 0.13845323E+03</pdfrwt>
<pdfrwt beam="2">  1       -2 0.33248172E-02 0.13845323E+03</pdfrwt>
<totfact> 0.14223312E+04</totfact>
</mgrwt>
</event>
<event>
 7    1  0.7800420E-006  0.1391043E+03  0.7546771E-02  0.1224845E+00
         -2   -1    0    0    0  501 -0.00000000000E+00  0.00000000000E+00  0.32275266069E+02  0.32275266069E+02  0.00000000000E+00 0.  1.
          2   -1    0    0  501    0  0.00000000000E+00 -0.00000000000E+00 -0.52203413392E+03  0.52203413392E+03  0.00000000000E+00 0. -1.
         23    2    1    2    0    0  0.89849467746E+00  0.61014351613E+02 -0.33944762044E+03  0.36684424843E+03  0.12500582860E+03 0.  0.
          5    1    3    3  502    0  0.48733659373E+02 -0.13150960913E+02 -0.12744913598E+03  0.13716154560E+03  0.47000000000E+01 0.  1.
         -5    1    3    3    0  502 -0.47835164695E+02  0.74165312526E+02 -0.21199848446E+03  0.22968270283E+03  0.47000000000E+01 0.  1.
        -11    1    1    2    0    0  0.27729471391E+01 -0.35116160569E+02 -0.15664111053E+03  0.16055301765E+03  0.00000000000E+00 0. -1.
         11    1    1    2    0    0 -0.36714418166E+01 -0.25898191045E+02  0.63298631248E+01  0.26912133910E+02  0.00000000000E+00 0.  1.
<mgrwt>
<rscale>  0 0.13177551E+03</rscale>
<asrwt>0</asrwt>
<pdfrwt beam="2">  1        2 0.80312941E-01 0.13910433E+03</pdfrwt>
<pdfrwt beam="1">  1       -2 0.49654257E-02 0.13910433E+03</pdfrwt>
<totfact> 0.11174490E+04</totfact>
</mgrwt>
</event>
<event>
 7    1  0.7800420E-006  0.1618567E+03  0.7546771E-02  0.1194247E+00
         -1   -1    0    0    0  501 -0.00000000000E+00  0.00000000000E+00  0.80752153446E+02  0.80752153446E+02  0.00000000000E+00 0.  1.
          1   -1    0    0  501    0  0.00000000000E+00 -0.00000000000E+00 -0.27643797976E+03  0.27643797976E+03  0.00000000000E+00 0. -1.
         23    2    1    2    0    0  0.48883514928E+02  0.90450676063E+02 -0.11255815903E+03  0.19714695100E+03  0.12500663299E+03 0.  0.
          5    1    3    3  502    0  0.38272121242E+02  0.12156877280E+03 -0.79498603003E+02  0.15028585983E+03  0.47000000000E+01 0.  1.
         -5    1    3    3    0  502  0.10611393686E+02 -0.31118096740E+02 -0.33059556027E+02  0.46861091167E+02  0.47000000000E+01 0.  1.
        -11    1    1    2    0    0 -0.54852934555E+02 -0.43914785360E+02 -0.88295109873E+02  0.11284227590E+03  0.00000000000E+00 0. -1.
         11    1    1    2    0    0  0.59694196264E+01 -0.46535890703E+02  0.51674425837E+01  0.47200906316E+02  0.00000000000E+00 0.  1.
<mgrwt>
<rscale>  0 0.15518103E+03</rscale>
<asrwt>0</asrwt>
<pdfrwt beam="2">  1        1 0.42528920E-01 0.16185667E+03</pdfrwt>
<pdfrwt beam="1">  1       -1 0.12423408E-01 0.16185667E+03</pdfrwt>
<totfact> 0.40950521E+03</totfact>
</mgrwt>
</event>
<event>
 7    1  0.7800420E-006  0.1854318E+03  0.7546771E-02  0.1167764E+00
         -1   -1    0    0    0  501 -0.00000000000E+00  0.00000000000E+00  0.12343054901E+04  0.12343054901E+04  0.00000000000E+00 0.  1.
          1   -1    0    0  501    0  0.00000000000E+00 -0.00000000000E+00 -0.26001940705E+02  0.26001940705E+02  0.00000000000E+00 0. -1.
         23    2    1    2    0    0 -0.78783314061E+02  0.11202415834E+03  0.77098960299E+03  0.79297535000E+03  0.12501485981E+03 0.  0.
          5    1    3    3  502    0 -0.88218447037E+02  0.78334946679E+02  0.72723076448E+03  0.73675337330E+03  0.47000000000E+01 0. -1.
         -5    1    3    3    0  502  0.94351329755E+01  0.33689211663E+02  0.43758838511E+02  0.56221976704E+02  0.47000000000E+01 0. -1.
        -11    1    1    2    0    0  0.33747718359E+02 -0.10929510762E+03  0.36088583078E+03  0.37858012613E+03  0.00000000000E+00 0.  1.
         11    1    1    2    0    0  0.45035595702E+02 -0.27290507180E+01  0.76428115594E+02  0.88751954633E+02  0.00000000000E+00 0. -1.
<mgrwt>
<rscale>  0 0.18004078E+03</rscale>
<asrwt>0</asrwt>
<pdfrwt beam="2">  1        1 0.40002995E-02 0.18543176E+03</pdfrwt>
<pdfrwt beam="1">  1       -1 0.18989311E+00 0.18543176E+03</pdfrwt>
<totfact> 0.44369227E+02</totfact>
</mgrwt>
</event>
<event>
 7    1  0.7800420E-006  0.1252464E+03  0.7546771E-02  0.1249563E+00
          1   -1    0    0  501    0  0.00000000000E+00  0.00000000000E+00  0.56214488747E+03  0.56214488747E+03  0.00000000000E+00 0. -1.
         -1   -1    0    0    0  501 -0.00000000000E+00 -0.00000000000E+00 -0.30902011274E+02  0.30902011274E+02  0.00000000000E+00 0.  1.
         23    2    1    2    0    0 -0.58648432009E+00 -0.79088190282E+01  0.45829534568E+03  0.47510134453E+03  0.12499508117E+03 0.  0.
          5    1    3    3  502    0  0.42924115063E+02  0.41026175365E+02  0.22353413514E+03  0.23133358228E+03  0.47000000000E+01 0.  1.
         -5    1    3    3    0  502 -0.43510599383E+02 -0.48934994393E+02  0.23476121054E+03  0.24376776225E+03  0.47000000000E+01 0.  1.
        -11    1    1    2    0    0 -0.18041775319E+02 -0.28874029264E+02  0.68475337034E+02  0.76472786039E+02  0.00000000000E+00 0.  1.
         11    1    1    2    0    0  0.18628259639E+02  0.36782848292E+02  0.44721934788E+01  0.41472768176E+02  0.00000000000E+00 0. -1.
<mgrwt>
<rscale>  0 0.11616410E+03</rscale>
<asrwt>0</asrwt>
<pdfrwt beam="1">  1        1 0.86483822E-01 0.12524641E+03</pdfrwt>
<pdfrwt beam="2">  1       -1 0.47541560E-02 0.12524641E+03</pdfrwt>
<totfact> 0.69848960E+03</totfact>
</mgrwt>
</event>
<event>
 7    1  0.7800420E-006  0.1909615E+03  0.7546771E-02  0.1162330E+00
          1   -1    0    0  501    0  0.00000000000E+00  0.00000000000E+00  0.27163028103E+03  0.27163028103E+03  0.00000000000E+00 0. -1.
         -1   -1    0    0    0  501 -0.00000000000E+00 -0.00000000000E+00 -0.14416758648E+03  0.14416758648E+03  0.00000000000E+00 0.  1.
         23    2    1    2    0    0 -0.12977673777E+03  0.63233302398E+02  0.15060070726E+03  0.24320127403E+03  0.12500333781E+03 0.  0.
          5    1    3    3  502    0 -0.34911201181E+02  0.23039546816E+02  0.13180951326E+03  0.13836708594E+03  0.47000000000E+01 0.  1.
         -5    1    3    3    0  502 -0.94865536592E+02  0.40193755582E+02  0.18791193998E+02  0.10483418809E+03  0.47000000000E+01 0.  1.
        -11    1    1    2    0    0  0.87191569741E+02 -0.85986278018E+02 -0.11989252604E+02  0.12304369963E+03  0.00000000000E+00 0.  1.
         11    1    1    2    0    0  0.42585168032E+02  0.22752975620E+02 -0.11148760105E+02  0.49552893838E+02  0.00000000000E+00 0. -1.
<mgrwt>
<rscale>  0 0.18577313E+03</rscale>
<asrwt>0</asrwt>
<pdfrwt beam="1">  1        1 0.41789274E-01 0.19096148E+03</pdfrwt>
<pdfrwt beam="2">  1       -1 0.22179629E-01 0.19096148E+03</pdfrwt>
<totfact> 0.16743316E+03</totfact>
</mgrwt>
</event>
<event>
 7    1  0.7800420E-006  0.1396540E+03  0.7546771E-02  0.1225763E+00
         -3   -1    0    0    0  501 -0.00000000000E+00  0.00000000000E+00  0.26693331528E+03  0.26693331528E+03  0.00000000000E+00 0.  1.
          3   -1    0    0  501    0  0.00000000000E+00 -0.00000000000E+00 -0.58272530981E+02  0.58272530981E+02  0.00000000000E+00 0. -1.
         23    2    1    2    0    0 -0.27861613627E+02  0.55644579655E+02  0.13286884450E+03  0.19276247759E+03  0.12502261463E+03 0.  0.
          5    1    3    3  502    0 -0.63814644046E+02  0.48542104525E+02  0.34002347036E+02  0.87217511489E+02  0.47000000000E+01 0. -1.
         -5    1    3    3    0  502  0.35953030419E+02  0.71024751305E+01  0.98866497460E+02  0.10554496610E+03  0.47000000000E+01 0. -1.
        -11    1    1    2    0    0 -0.15607590037E+02 -0.25395773739E+02  0.73636932941E+02  0.79441425488E+02  0.00000000000E+00 0.  1.
         11    1    1    2    0    0  0.43469203664E+02 -0.30248805917E+02  0.21550068610E+01  0.53001943183E+02  0.00000000000E+00 0. -1.
<mgrwt>
<rscale>  0 0.13114771E+03</rscale>
<asrwt>0</asrwt>
<pdfrwt beam="2">  1        3 0.89650049E-02 0.13965401E+03</pdfrwt>
<pdfrwt beam="1">  1       -3 0.41066663E-01 0.13965401E+03</pdfrwt>
<totfact> 0.12070895E+03</totfact>
</mgrwt>
</event>
<event>
 7    1  0.7800420E-006  0.1271810E+03  0.7546771E-02  0.1247330E+00
         -2   -1    0    0    0  501 -0.00000000000E+00  0.00000000000E+00  0.14968782874E+03  0.14968782874E+03  0.00000000000E+00 0.  1.
          2   -1    0    0  501    0  0.00000000000E+00 -0.00000000000E+00 -0.81999062596E+02  0.81999062596E+02  0.00000000000E+00 0. -1.
         23    2    1    2    0    0  0.19167221928E+02 -0.13740770065E+02  0.24397399691E+02  0.12949991894E+03  0.12497521649E+03 0.  0.
          5    1    3    3  502    0 -0.50741843980E+02 -0.23967218638E+02  0.12749003660E+02  0.57738976386E+02  0.47000000000E+01 0. -1.
         -5    1    3    3    0  502  0.69909065908E+02  0.10226448574E+02  0.11648396031E+02  0.71760942557E+02  0.47000000000E+01 0. -1.
        -11    1    1    2    0    0  0.32018670396E+02  0.19810162169E+02  0.32016845377E+02  0.49423842090E+02  0.00000000000E+00 0.  1.
         11    1    1    2    0    0 -0.51185892324E+02 -0.60693921038E+01  0.11274521072E+02  0.52763130299E+02  0.00000000000E+00 0. -1.
<mgrwt>
<rscale>  0 0.11746993E+03</rscale>
<asrwt>0</asrwt>
<pdfrwt beam="2">  1        2 0.12615240E-01 0.12718096E+03</pdfrwt>
<pdfrwt beam="1">  1       -2 0.23028897E-01 0.12718096E+03</pdfrwt>
<totfact> 0.74235466E+03</totfact>
</mgrwt>
</event>
<event>
 7    1  0.7800420E-006  0.2361147E+03  0.7546771E-02  0.1123908E+00
          2   -1    0    0  501    0  0.00000000000E+00  0.00000000000E+00  0.39288195442E+04  0.39288195442E+04  0.00000000000E+00 0. -1.
         -2   -1    0    0    0  501 -0.00000000000E+00 -0.00000000000E+00 -0.20166787666E+02  0.20166787666E+02  0.00000000000E+00 0.  1.
         23    2    1    2    0    0  0.25108926077E+02  0.19873113822E+03  0.30991164275E+04  0.31080979339E+04  0.12500244876E+03 0.  0.
          5    1    3    3  502    0 -0.11279004350E+02  0.18648635071E+03  0.28363094779E+04  0.28424598360E+04  0.47000000000E+01 0.  1.
         -5    1    3    3    0  502  0.36387930427E+02  0.12244787514E+02  0.26280694957E+03  0.26563809788E+03  0.47000000000E+01 0.  1.
        -11    1    1    2    0    0  0.42393624534E+02 -0.89442185942E+02  0.34468715459E+03  0.35861728705E+03  0.00000000000E+00 0.  1.
         11    1    1    2    0    0 -0.67502550611E+02 -0.10928895228E+03  0.46484917451E+03  0.48227111096E+03  0.00000000000E+00 0. -1.
<mgrwt>
<rscale>  0 0.23392410E+03</rscale>
<asrwt>0</asrwt>
<pdfrwt beam="1">  1        2 0.60443317E+00 0.23611467E+03</pdfrwt>
<pdfrwt beam="2">  1       -2 0.31025858E-02 0.23611467E+03</pdfrwt>
<totfact> 0.20677807E+02</totfact>
</mgrwt>
</event>
<event>
 7    1  0.7800420E-006  0.3122089E+03  0.7546771E-02  0.1080713E+00
         -2   -1    0    0    0  501 -0.00000000000E+00  0.00000000000E+00  0.80828496287E+02  0.80828496287E+02  0.00000000000E+00 0.  1.
          2   -1    0    0  501    0  0.00000000000E+00 -0.00000000000E+00 -0.13488115376E+04  0.13488115376E+04  0.00000000000E+00 0. -1.
         23    2    1    2    0    0  0.26761383553E+03 -0.10115646707E+03 -0.91108319558E+03  0.96309240845E+03  0.12499840859E+03 0.  0.
          5    1    3    3  502    0  0.18417937616E+03 -0.87195853494E+01 -0.47497516197E+03  0.50953073338E+03  0.47000000000E+01 0.  1.
         -5    1    3    3    0  502  0.83434459371E+02 -0.92436881723E+02 -0.43610803361E+03  0.45356167507E+03  0.47000000000E+01 0.  1.
        -11    1    1    2    0    0 -0.28518825081E+02  0.44644045255E+02 -0.45012994953E+02  0.69516788442E+02  0.00000000000E+00 0. -1.
         11    1    1    2    0    0 -0.23909501045E+03  0.56512421818E+02 -0.31188685083E+03  0.39703083704E+03  0.00000000000E+00 0.  1.
<mgrwt>
<rscale>  0 0.30923485E+03</rscale>
<asrwt>0</asrwt>
<pdfrwt beam="2">  1        2 0.20750945E+00 0.31220890E+03</pdfrwt>
<pdfrwt beam="1">  1       -2 0.12435155E-01 0.31220890E+03</pdfrwt>
<totfact> 0.76858567E+02</totfact>
</mgrwt>
</event>
<event>
 7    1  0.7800420E-006  0.1295643E+03  0.7546771E-02  0.1241741E+00
         -2   -1    0    0    0  501 -0.00000000000E+00  0.00000000000E+00  0.39565140496E+02  0.39565140496E+02  0.00000000000E+00 0.  1.
          2   -1    0    0  501    0  0.00000000000E+00 -0.00000000000E+00 -0.46865561527E+03  0.46865561527E+03  0.00000000000E+00 0. -1.
         23    2    1    2    0    0 -0.19467029307E+02 -0.28239183986E+02 -0.37399751137E+03  0.39580429614E+03  0.12494192888E+03 0.  0.
          5    1    3    3  502    0 -0.36650530403E+02 -0.34491884073E+02 -0.37351319984E+03  0.37691796442E+03  0.47000000000E+01 0.  1.
         -5    1    3    3    0  502  0.17183501096E+02  0.62527000870E+01 -0.48431152631E+00  0.18886331723E+02  0.47000000000E+01 0.  1.
        -11    1    1    2    0    0 -0.90478113543E+01  0.40404454473E+02 -0.67366735997E+02  0.79073762719E+02  0.00000000000E+00 0. -1.
         11    1    1    2    0    0  0.28514840661E+02 -0.12165270487E+02  0.12273772584E+02  0.33342696913E+02  0.00000000000E+00 0.  1.
<mgrwt>
<rscale>  0 0.12082601E+03</rscale>
<asrwt>0</asrwt>
<pdfrwt beam="2">  1        2 0.72100866E-01 0.12956428E+03</pdfrwt>
<pdfrwt beam="1">  1       -2 0.60869445E-02 0.12956428E+03</pdfrwt>
<totfact> 0.92048110E+03</totfact>
</mgrwt>
</event>
<event>
 7    1  0.7800420E-006  0.1301738E+03  0.7546771E-02  0.1241153E+00
         -1   -1    0    0    0  501 -0.00000000000E+00  0.00000000000E+00  0.37923156126E+02  0.37923156126E+02  0.00000000000E+00 0.  1.
          1   -1    0    0  501    0  0.00000000000E+00 -0.00000000000E+00 -0.34759282778E+03  0.34759282778E+03  0.00000000000E+00 0. -1.
         23    2    1    2    0    0  0.30997410529E+02  0.16709841361E+02 -0.19950799038E+03  0.23821974276E+03  0.12532018735E+03 0.  0.
          5    1    3    3  502    0  0.92384602929E+01  0.50394133393E+02 -0.18986019569E+03  0.19670765551E+03  0.47000000000E+01 0. -1.
         -5    1    3    3    0  502  0.21758950236E+02 -0.33684292032E+02 -0.96477946843E+01  0.41512087244E+02  0.47000000000E+01 0.  1.
        -11    1    1    2    0    0 -0.50282171983E+02 -0.33285013507E+02 -0.10539231992E+03  0.12142376226E+03  0.00000000000E+00 0.  1.
         11    1    1    2    0    0  0.19284761454E+02  0.16575172146E+02 -0.47693613577E+01  0.25872478887E+02  0.00000000000E+00 0. -1.
<mgrwt>
<rscale>  0 0.12118620E+03</rscale>
<asrwt>0</asrwt>
<pdfrwt beam="2">  1        1 0.53475817E-01 0.13017376E+03</pdfrwt>
<pdfrwt beam="1">  1       -1 0.58343320E-02 0.13017376E+03</pdfrwt>
<totfact> 0.95680075E+03</totfact>
</mgrwt>
</event>
<event>
 7    1  0.7800420E-006  0.1603132E+03  0.7546771E-02  0.1195709E+00
         -2   -1    0    0    0  501 -0.00000000000E+00  0.00000000000E+00  0.76784550479E+02  0.76784550479E+02  0.00000000000E+00 0.  1.
          2   -1    0    0  501    0  0.00000000000E+00 -0.00000000000E+00 -0.45856452550E+03  0.45856452550E+03  0.00000000000E+00 0. -1.
         23    2    1    2    0    0  0.30977732857E+02 -0.95486323153E+02 -0.36417903826E+03  0.39790288906E+03  0.12499231726E+03 0.  0.
          5    1    3    3  502    0  0.22717859522E+02 -0.38638001218E+01 -0.25043962585E+03  0.25154150013E+03  0.47000000000E+01 0. -1.
         -5    1    3    3    0  502  0.82598733351E+01 -0.91622523031E+02 -0.11373941241E+03  0.14636138893E+03  0.47000000000E+01 0. -1.
        -11    1    1    2    0    0 -0.12988600988E+02  0.94753591234E+02  0.18215839156E+02  0.97358942083E+02  0.00000000000E+00 0.  1.
         11    1    1    2    0    0 -0.17989131869E+02  0.73273191914E+00 -0.35816775917E+02  0.40087244836E+02  0.00000000000E+00 0. -1.
<mgrwt>
<rscale>  0 0.15394395E+03</rscale>
<asrwt>0</asrwt>
<pdfrwt beam="2">  1        2 0.70548387E-01 0.16031325E+03</pdfrwt>
<pdfrwt beam="1">  1       -2 0.11813008E-01 0.16031325E+03</pdfrwt>
<totfact> 0.34008184E+03</totfact>
</mgrwt>
</event>
<event>
 7    1  0.7800420E-006  0.1263037E+03  0.7546771E-02  0.1249074E+00
         -2   -1    0    0    0  501 -0.00000000000E+00  0.00000000000E+00  0.10256682371E+02  0.10256682371E+02  0.00000000000E+00 0.  1.
          2   -1    0    0  501    0  0.00000000000E+00 -0.00000000000E+00 -0.14230441601E+04  0.14230441601E+04  0.00000000000E+00 0. -1.
         23    2    1    2    0    0  0.61154963779E+01 -0.17043795792E+02 -0.11071027451E+04  0.11142841270E+04  0.12499894894E+03 0.  0.
          5    1    3    3  502    0 -0.30641812912E+02 -0.57276335430E+02 -0.42137510773E+03  0.42637843604E+03  0.47000000000E+01 0. -1.
         -5    1    3    3    0  502  0.36757309290E+02  0.40232539637E+02 -0.68572763732E+03  0.68790569093E+03  0.47000000000E+01 0. -1.
        -11    1    1    2    0    0  0.37033610564E+02  0.28260103890E+02 -0.14899274670E+03  0.15610560641E+03  0.00000000000E+00 0. -1.
         11    1    1    2    0    0 -0.43149106942E+02 -0.11216308098E+02 -0.15669198598E+03  0.16291110910E+03  0.00000000000E+00 0.  1.
<mgrwt>
<rscale>  0 0.11644826E+03</rscale>
<asrwt>0</asrwt>
<pdfrwt beam="2">  1        2 0.21892997E+00 0.12630371E+03</pdfrwt>
<pdfrwt beam="1">  1       -2 0.15779504E-02 0.12630371E+03</pdfrwt>
<totfact> 0.15830692E+04</totfact>
</mgrwt>
</event>
<event>
 7    1  0.7800420E-006  0.1645079E+03  0.7546771E-02  0.1190252E+00
          2   -1    0    0  501    0  0.00000000000E+00  0.00000000000E+00  0.19044612849E+03  0.19044612849E+03  0.00000000000E+00 0. -1.
         -2   -1    0    0    0  501 -0.00000000000E+00 -0.00000000000E+00 -0.12579499796E+03  0.12579499796E+03  0.00000000000E+00 0.  1.
         23    2    1    2    0    0  0.10206765567E+03 -0.31941302511E+02  0.55889673335E+02  0.17374259466E+03  0.12499912189E+03 0.  0.
          5    1    3    3  502    0  0.69039454437E+02 -0.67800933541E+02 -0.32767336177E+01  0.96934203670E+02  0.47000000000E+01 0.  1.
         -5    1    3    3    0  502  0.33028201231E+02  0.35859631031E+02  0.59166406953E+02  0.76808390987E+02  0.47000000000E+01 0.  1.
        -11    1    1    2    0    0 -0.30777802546E+02  0.46978639305E+02 -0.25862402705E+02  0.61831460877E+02  0.00000000000E+00 0.  1.
         11    1    1    2    0    0 -0.71289853122E+02 -0.15037336794E+02  0.34623859893E+02  0.80667070915E+02  0.00000000000E+00 0. -1.
<mgrwt>
<rscale>  0 0.15863060E+03</rscale>
<asrwt>0</asrwt>
<pdfrwt beam="1">  1        2 0.29299404E-01 0.16450785E+03</pdfrwt>
<pdfrwt beam="2">  1       -2 0.19353077E-01 0.16450785E+03</pdfrwt>
<totfact> 0.38880573E+03</totfact>
</mgrwt>
</event>
<event>
 7    1  0.7800420E-006  0.1653735E+03  0.7546771E-02  0.1190091E+00
          2   -1    0    0  501    0  0.00000000000E+00  0.00000000000E+00  0.77601294559E+03  0.77601294559E+03  0.00000000000E+00 0. -1.
         -2   -1    0    0    0  501 -0.00000000000E+00 -0.00000000000E+00 -0.30192144124E+02  0.30192144124E+02  0.00000000000E+00 0.  1.
         23    2    1    2    0    0 -0.24328492682E+02 -0.10550006081E+03  0.41959004665E+03  0.45100355609E+03  0.12500504775E+03 0.  0.
          5    1    3    3  502    0 -0.72747697659E+02 -0.39767356604E+02  0.22988445782E+03  0.24442304333E+03  0.47000000000E+01 0.  1.
         -5    1    3    3    0  502  0.48419204977E+02 -0.65732704210E+02  0.18970558884E+03  0.20658051275E+03  0.47000000000E+01 0.  1.
        -11    1    1    2    0    0  0.37220487188E+02  0.46901959338E+02  0.70353222911E+02  0.92383626419E+02  0.00000000000E+00 0.  1.
         11    1    1    2    0    0 -0.12891994506E+02  0.58598101476E+02  0.25587753190E+03  0.26281790721E+03  0.00000000000E+00 0. -1.
<mgrwt>
<rscale>  0 0.15877142E+03</rscale>
<asrwt>0</asrwt>
<pdfrwt beam="1">  1        2 0.11938659E+00 0.16537352E+03</pdfrwt>
<pdfrwt beam="2">  1       -2 0.46449458E-02 0.16537352E+03</pdfrwt>
<totfact> 0.78677721E+03</totfact>
</mgrwt>
</event>
<event>
 7    1  0.7800420E-006  0.1665529E+03  0.7546771E-02  0.1189262E+00
         -2   -1    0    0    0  501 -0.00000000000E+00  0.00000000000E+00  0.55004966453E+02  0.55004966453E+02  0.00000000000E+00 0.  1.
          2   -1    0    0  501    0  0.00000000000E+00 -0.00000000000E+00 -0.46930747259E+03  0.46930747259E+03  0.00000000000E+00 0. -1.
         23    2    1    2    0    0 -0.98434263508E+02  0.49235434881E+02 -0.30155249610E+03  0.34449060586E+03  0.12500574923E+03 0.  0.
          5    1    3    3  502    0 -0.20186626211E+02 -0.38690813819E+02 -0.12286198661E+03  0.13046699470E+03  0.47000000000E+01 0. -1.
         -5    1    3    3    0  502 -0.78247637298E+02  0.87926248700E+02 -0.17869050949E+03  0.21402361116E+03  0.47000000000E+01 0. -1.
        -11    1    1    2    0    0  0.70157288173E+02  0.12843273786E+02 -0.49702121377E+02  0.86932707508E+02  0.00000000000E+00 0.  1.
         11    1    1    2    0    0  0.28276975336E+02 -0.62078708667E+02 -0.63047888659E+02  0.92889125673E+02  0.00000000000E+00 0. -1.
<mgrwt>
<rscale>  0 0.15950002E+03</rscale>
<asrwt>0</asrwt>
<pdfrwt beam="2">  1        2 0.72201146E-01 0.16655290E+03</pdfrwt>
<pdfrwt beam="1">  1       -2 0.84623030E-02 0.16655290E+03</pdfrwt>
<totfact> 0.56237370E+03</totfact>
</mgrwt>
</event>
<event>
 7    1  0.7800420E-006  0.1543865E+03  0.7546771E-02  0.1203353E+00
          2   -1    0    0  501    0  0.00000000000E+00  0.00000000000E+00  0.13705139279E+03  0.13705139279E+03  0.00000000000E+00 0. -1.
         -2   -1    0    0    0  501 -0.00000000000E+00 -0.00000000000E+00 -0.14691881876E+03  0.14691881876E+03  0.00000000000E+00 0.  1.
         23    2    1    2    0    0  0.90378978678E+02 -0.63999248733E+01 -0.10029577320E+02  0.15471190536E+03  0.12500344961E+03 0.  0.
          5    1    3    3  502    0  0.11746950603E+03  0.15540041239E+02 -0.13561589943E+02  0.11935905684E+03  0.47000000000E+01 0.  1.
         -5    1    3    3    0  502 -0.27090527350E+02 -0.21939966112E+02  0.35320126227E+01  0.35352848518E+02  0.47000000000E+01 0.  1.
        -11    1    1    2    0    0 -0.58976332608E+02  0.41300849550E+02 -0.24717680986E+02  0.76124448995E+02  0.00000000000E+00 0.  1.
         11    1    1    2    0    0 -0.31402646069E+02 -0.34900924677E+02  0.24879832331E+02  0.53133857193E+02  0.00000000000E+00 0. -1.
<mgrwt>
<rscale>  0 0.14767992E+03</rscale>
<asrwt>0</asrwt>
<pdfrwt beam="1">  1        2 0.21084830E-01 0.15438647E+03</pdfrwt>
<pdfrwt beam="2">  1       -2 0.22602895E-01 0.15438647E+03</pdfrwt>
<totfact> 0.42807722E+03</totfact>
</mgrwt>
</event>
<event>
 7    1  0.7800420E-006  0.1505563E+03  0.7546771E-02  0.1208587E+00
          1   -1    0    0  501    0  0.00000000000E+00  0.00000000000E+00  0.37614800701E+03  0.37614800701E+03  0.00000000000E+00 0. -1.
         -1   -1    0    0    0  501 -0.00000000000E+00 -0.00000000000E+00 -0.51156455083E+02  0.51156455083E+02  0.00000000000E+00 0.  1.
         23    2    1    2    0    0 -0.77927398749E+02  0.31220982543E+02  0.20513904470E+03  0.25445869512E+03  0.12497908080E+03 0.  0.
          5    1    3    3  502    0 -0.66152175041E+02 -0.30808046146E+02  0.16230772908E+03  0.17802004070E+03  0.47000000000E+01 0. -1.
         -5    1    3    3    0  502 -0.11775223708E+02  0.62029028689E+02  0.42831315615E+02  0.76438654428E+02  0.47000000000E+01 0. -1.
        -11    1    1    2    0    0  0.33646854101E+02  0.31809454739E+02  0.56934077622E+02  0.73385566676E+02  0.00000000000E+00 0.  1.
         11    1    1    2    0    0  0.44280544649E+02 -0.63030437281E+02  0.62918429612E+02  0.99460200297E+02  0.00000000000E+00 0. -1.
<mgrwt>
<rscale>  0 0.14358342E+03</rscale>
<asrwt>0</asrwt>
<pdfrwt beam="1">  1        1 0.57868922E-01 0.15055630E+03</pdfrwt>
<pdfrwt beam="2">  1       -1 0.78702241E-02 0.15055630E+03</pdfrwt>
<totfact> 0.55871050E+03</totfact>
</mgrwt>
</event>
<event>
 7    1  0.7800420E-006  0.2126904E+03  0.7546771E-02  0.1141938E+00
          1   -1    0    0  501    0  0.00000000000E+00  0.00000000000E+00  0.64514115006E+02  0.64514115006E+02  0.00000000000E+00 0. -1.
         -1   -1    0    0    0  501 -0.00000000000E+00 -0.00000000000E+00 -0.73525579862E+03  0.73525579862E+03  0.00000000000E+00 0.  1.
         23    2    1    2    0    0  0.13861482031E+03  0.10196793416E+03 -0.21740640829E+03  0.30414262294E+03  0.12500264283E+03 0.  0.
          5    1    3    3  502    0  0.15814796936E+03  0.66449233521E+02 -0.18159498105E+03  0.24985017109E+03  0.47000000000E+01 0. -1.
         -5    1    3    3    0  502 -0.19533149051E+02  0.35518700640E+02 -0.35811427238E+02  0.54292451849E+02  0.47000000000E+01 0. -1.
        -11    1    1    2    0    0 -0.63860595203E+02 -0.23503365360E+02 -0.30149364759E+03  0.30907766555E+03  0.00000000000E+00 0.  1.
         11    1    1    2    0    0 -0.74754225105E+02 -0.78464568801E+02 -0.15184162772E+03  0.18654962514E+03  0.00000000000E+00 0. -1.
<mgrwt>
<rscale>  0 0.20953148E+03</rscale>
<asrwt>0</asrwt>
<pdfrwt beam="1">  1        1 0.99252480E-02 0.21269036E+03</pdfrwt>
<pdfrwt beam="2">  1       -1 0.11311628E+00 0.21269036E+03</pdfrwt>
<totfact> 0.49302960E+02</totfact>
</mgrwt>
</event>
<event>
 7    1  0.7800420E-006  0.1451495E+03  0.7546771E-02  0.1216303E+00
          1   -1    0    0  501    0  0.00000000000E+00  0.00000000000E+00  0.39607206819E+03  0.39607206819E+03  0.00000000000E+00 0. -1.
         -1   -1    0    0    0  501 -0.00000000000E+00 -0.00000000000E+00 -0.61773154521E+02  0.61773154521E+02  0.00000000000E+00 0.  1.
         23    2    1    2    0    0 -0.16140750877E+02 -0.71984837703E+02  0.30274892872E+03  0.33574586516E+03  0.12500412568E+03 0.  0.
          5    1    3    3  502    0 -0.55246894098E+02 -0.39672576157E+02  0.26136182365E+03  0.27010780342E+03  0.47000000000E+01 0. -1.
         -5    1    3    3    0  502  0.39106143221E+02 -0.32312261547E+02  0.41387105068E+02  0.65638061746E+02  0.47000000000E+01 0. -1.
        -11    1    1    2    0    0 -0.36638945682E+02  0.15935451160E+02  0.32959129784E+01  0.40090073419E+02  0.00000000000E+00 0.  1.
         11    1    1    2    0    0  0.52779696559E+02  0.56049386543E+02  0.28254071980E+02  0.82009284134E+02  0.00000000000E+00 0. -1.
<mgrwt>
<rscale>  0 0.13781251E+03</rscale>
<asrwt>0</asrwt>
<pdfrwt beam="1">  1        1 0.60934163E-01 0.14514948E+03</pdfrwt>
<pdfrwt beam="2">  1       -1 0.95035625E-02 0.14514948E+03</pdfrwt>
<totfact> 0.39248785E+03</totfact>
</mgrwt>
</event>
<event>
 7    1  0.7800420E-006  0.1397153E+03  0.7546771E-02  0.1223703E+00
          1   -1    0    0  501    0  0.00000000000E+00  0.00000000000E+00  0.13682244266E+04  0.13682244266E+04  0.00000000000E+00 0. -1.
         -1   -1    0    0    0  501 -0.00000000000E+00 -0.00000000000E+00 -0.15180749877E+02  0.15180749877E+02  0.00000000000E+00 0.  1.
         23    2    1    2    0    0 -0.58206514078E+02  0.22507899872E+02  0.10613598481E+04  0.10705162688E+04  0.12500300325E+03 0.  0.
          5    1    3    3  502    0  0.22252609440E+02  0.66436353681E+01  0.67988513912E+03  0.68029788249E+03  0.47000000000E+01 0.  1.
         -5    1    3    3    0  502 -0.80459123519E+02  0.15864264504E+02  0.38147470897E+03  0.39021838633E+03  0.47000000000E+01 0.  1.
        -11    1    1    2    0    0  0.66219533054E+02 -0.29147693820E+01  0.28186572943E+03  0.28955450586E+03  0.00000000000E+00 0. -1.
         11    1    1    2    0    0 -0.80130189762E+01 -0.19593130490E+02  0.98180992068E+01  0.23334401804E+02  0.00000000000E+00 0.  1.
<mgrwt>
<rscale>  0 0.13256197E+03</rscale>
<asrwt>0</asrwt>
<pdfrwt beam="1">  1        1 0.21049597E+00 0.13971526E+03</pdfrwt>
<pdfrwt beam="2">  1       -1 0.23355011E-02 0.13971526E+03</pdfrwt>
<totfact> 0.47093588E+03</totfact>
</mgrwt>
</event>
<event>
 7    1  0.7800420E-006  0.1330805E+03  0.7546771E-02  0.1237342E+00
          2   -1    0    0  501    0  0.00000000000E+00  0.00000000000E+00  0.14835841337E+03  0.14835841337E+03  0.00000000000E+00 0. -1.
         -2   -1    0    0    0  501 -0.00000000000E+00 -0.00000000000E+00 -0.97315749573E+02  0.97315749573E+02  0.00000000000E+00 0.  1.
         23    2    1    2    0    0  0.36515355731E+02 -0.27422184698E+02  0.60795829917E+02  0.14630980562E+03  0.12500031547E+03 0.  0.
          5    1    3    3  502    0  0.40731036740E+02 -0.67140500015E+02  0.69715894184E+02  0.10511546032E+03  0.47000000000E+01 0.  1.
         -5    1    3    3    0  502 -0.42156810096E+01  0.39718315318E+02 -0.89200642673E+01  0.41194345299E+02  0.47000000000E+01 0.  1.
        -11    1    1    2    0    0 -0.55633537852E+01  0.12427402595E+02 -0.46843442209E+02  0.48782161889E+02  0.00000000000E+00 0.  1.
         11    1    1    2    0    0 -0.30952001946E+02  0.14994782103E+02  0.37090276091E+02  0.50582195438E+02  0.00000000000E+00 0. -1.
<mgrwt>
<rscale>  0 0.12355718E+03</rscale>
<asrwt>0</asrwt>
<pdfrwt beam="1">  1        2 0.22824371E-01 0.13308053E+03</pdfrwt>
<pdfrwt beam="2">  1       -2 0.14971654E-01 0.13308053E+03</pdfrwt>
<totfact> 0.77398418E+03</totfact>
</mgrwt>
</event>
<event>
 7    1  0.7800420E-006  0.1396751E+03  0.7546771E-02  0.1225007E+00
          2   -1    0    0  501    0  0.00000000000E+00  0.00000000000E+00  0.19040056149E+03  0.19040056149E+03  0.00000000000E+00 0. -1.
         -2   -1    0    0    0  501 -0.00000000000E+00 -0.00000000000E+00 -0.82589947500E+02  0.82589947500E+02  0.00000000000E+00 0.  1.
         23    2    1    2    0    0  0.62633858808E+01  0.61999294896E+02  0.71291238174E+02  0.15681702076E+03  0.12500397910E+03 0.  0.
          5    1    3    3  502    0 -0.42334831992E+01  0.37433990096E+02  0.10610010054E+03  0.11268783133E+03  0.47000000000E+01 0. -1.
         -5    1    3    3    0  502  0.10496869080E+02  0.24565304800E+02 -0.34808862370E+02  0.44129189431E+02  0.47000000000E+01 0. -1.
        -11    1    1    2    0    0  0.42201401344E+02 -0.23195655999E+02  0.14341787736E+02  0.50246229790E+02  0.00000000000E+00 0.  1.
         11    1    1    2    0    0 -0.48464787225E+02 -0.38803638897E+02  0.22177588082E+02  0.65927258441E+02  0.00000000000E+00 0. -1.
<mgrwt>
<rscale>  0 0.13166418E+03</rscale>
<asrwt>0</asrwt>
<pdfrwt beam="1">  1        2 0.29292394E-01 0.13967511E+03</pdfrwt>
<pdfrwt beam="2">  1       -2 0.12706146E-01 0.13967511E+03</pdfrwt>
<totfact> 0.77002873E+03</totfact>
</mgrwt>
</event>
<event>
 7    1  0.1220678E-005  0.1833680E+03  0.7546771E-02  0.1169862E+00
         -1   -1    0    0    0  501 -0.00000000000E+00  0.00000000000E+00  0.12164982465E+03  0.12164982465E+03  0.00000000000E+00 0.  1.
          1   -1    0    0  501    0  0.00000000000E+00 -0.00000000000E+00 -0.24769864835E+03  0.24769864835E+03  0.00000000000E+00 0. -1.
         23    2    1    2    0    0 -0.10895692973E+03  0.78276346241E+02 -0.83311340023E+02  0.20140652093E+03  0.12500003351E+03 0.  0.
          5    1    3    3  502    0 -0.15982143436E+02 -0.22593506399E+02  0.15696991172E+02  0.32161793670E+02  0.47000000000E+01 0. -1.
         -5    1    3    3    0  502 -0.92974786296E+02  0.10086985264E+03 -0.99008331195E+02  0.16924472726E+03  0.47000000000E+01 0. -1.
        -11    1    1    2    0    0 -0.16648002506E+02 -0.10463907865E+02 -0.57269664707E+01  0.20480417481E+02  0.00000000000E+00 0. -1.
         11    1    1    2    0    0  0.12560493224E+03 -0.67812438376E+02 -0.37010517212E+02  0.14746153460E+03  0.00000000000E+00 0.  1.
<mgrwt>
<rscale>  0 0.17788848E+03</rscale>
<asrwt>0</asrwt>
<pdfrwt beam="2">  1        1 0.38107484E-01 0.18336796E+03</pdfrwt>
<pdfrwt beam="1">  1       -1 0.18715358E-01 0.18336796E+03</pdfrwt>
<totfact> 0.24710275E+03</totfact>
</mgrwt>
</event>
<event>
 7    1  0.7800420E-006  0.1510855E+03  0.7546771E-02  0.1209389E+00
         -1   -1    0    0    0  501 -0.00000000000E+00  0.00000000000E+00  0.44348734212E+02  0.44348734212E+02  0.00000000000E+00 0.  1.
          1   -1    0    0  501    0  0.00000000000E+00 -0.00000000000E+00 -0.58851544269E+03  0.58851544269E+03  0.00000000000E+00 0. -1.
         23    2    1    2    0    0 -0.84793628280E+02  0.36049860833E+01 -0.46303871266E+03  0.48706436026E+03  0.12499554511E+03 0.  0.
          5    1    3    3  502    0  0.16782643151E+02  0.14733877402E+02 -0.24678285255E+03  0.24783585408E+03  0.47000000000E+01 0.  1.
         -5    1    3    3    0  502 -0.10157627143E+03 -0.11128891319E+02 -0.21625586011E+03  0.23922850619E+03  0.47000000000E+01 0.  1.
        -11    1    1    2    0    0  0.44113014171E+02 -0.66510953634E+01  0.10210594993E+02  0.45765176050E+02  0.00000000000E+00 0.  1.
         11    1    1    2    0    0  0.40680614109E+02  0.30461092801E+01 -0.91338590813E+02  0.10003464059E+03  0.00000000000E+00 0. -1.
<mgrwt>
<rscale>  0 0.14296922E+03</rscale>
<asrwt>0</asrwt>
<pdfrwt beam="2">  1        1 0.90540829E-01 0.15108554E+03</pdfrwt>
<pdfrwt beam="1">  1       -1 0.68228828E-02 0.15108554E+03</pdfrwt>
<totfact> 0.38739445E+03</totfact>
</mgrwt>
</event>
<event>
 7    1  0.7800420E-006  0.1960664E+03  0.7546771E-02  0.1157476E+00
         -3   -1    0    0    0  501 -0.00000000000E+00  0.00000000000E+00  0.32016833925E+02  0.32016833925E+02  0.00000000000E+00 0.  1.
          3   -1    0    0  501    0  0.00000000000E+00 -0.00000000000E+00 -0.11407694719E+04  0.11407694719E+04  0.00000000000E+00 0. -1.
         23    2    1    2    0    0 -0.37329606282E+02  0.14637706680E+03 -0.70938099611E+03  0.73597786251E+03  0.12498908461E+03 0.  0.
          5    1    3    3  502    0 -0.34060703732E+02  0.89949827928E+02 -0.18522102924E+03  0.20875828787E+03  0.47000000000E+01 0. -1.
         -5    1    3    3    0  502 -0.32689025500E+01  0.56427238874E+02 -0.52415996687E+03  0.52721957464E+03  0.47000000000E+01 0. -1.
        -11    1    1    2    0    0  0.43718337862E+01 -0.93492988403E+02 -0.33242271955E+03  0.34534752972E+03  0.00000000000E+00 0. -1.
         11    1    1    2    0    0  0.32957772496E+02 -0.52884078399E+02 -0.66948922310E+02  0.91460913588E+02  0.00000000000E+00 0.  1.
<mgrwt>
<rscale>  0 0.19109623E+03</rscale>
<asrwt>0</asrwt>
<pdfrwt beam="2">  1        3 0.17550301E+00 0.19606636E+03</pdfrwt>
<pdfrwt beam="1">  1       -3 0.49256663E-02 0.19606636E+03</pdfrwt>
<totfact> 0.13074431E+02</totfact>
</mgrwt>
</event>
<event>
 7    1  0.7800420E-006  0.1397563E+03  0.7546771E-02  0.1236005E+00
         -2   -1    0    0    0  501 -0.00000000000E+00  0.00000000000E+00  0.37203582029E+03  0.37203582029E+03  0.00000000000E+00 0.  1.
          2   -1    0    0  501    0  0.00000000000E+00 -0.00000000000E+00 -0.34805778478E+02  0.34805778478E+02  0.00000000000E+00 0. -1.
         23    2    1    2    0    0 -0.59010740399E+02  0.20607010651E+02  0.20163288837E+03  0.24533172876E+03  0.12499967637E+03 0.  0.
          5    1    3    3  502    0  0.74331250510E+01 -0.44170269637E+02  0.85189191052E+02  0.96361570867E+02  0.47000000000E+01 0.  1.
         -5    1    3    3    0  502 -0.66443865450E+02  0.64777280288E+02  0.11644369732E+03  0.14897015789E+03  0.47000000000E+01 0.  1.
        -11    1    1    2    0    0  0.27619845464E+02 -0.37741989034E+02  0.10299706348E+03  0.11311811829E+03  0.00000000000E+00 0.  1.
         11    1    1    2    0    0  0.31390894936E+02  0.17134978383E+02  0.32600089962E+02  0.48391751720E+02  0.00000000000E+00 0. -1.
<mgrwt>
<rscale>  0 0.12440329E+03</rscale>
<asrwt>0</asrwt>
<pdfrwt beam="2">  1        2 0.53547354E-02 0.13975634E+03</pdfrwt>
<pdfrwt beam="1">  1       -2 0.57236277E-01 0.13975634E+03</pdfrwt>
<totfact> 0.39931682E+03</totfact>
</mgrwt>
</event>
<event>
 7    1  0.7800420E-006  0.1280917E+03  0.7546771E-02  0.1245182E+00
         -1   -1    0    0    0  501 -0.00000000000E+00  0.00000000000E+00  0.11244083223E+03  0.11244083223E+03  0.00000000000E+00 0.  1.
          1   -1    0    0  501    0  0.00000000000E+00 -0.00000000000E+00 -0.11049329554E+03  0.11049329554E+03  0.00000000000E+00 0. -1.
         23    2    1    2    0    0  0.17956394014E+02  0.21396327504E+02 -0.39171536362E+01  0.12815162010E+03  0.12500903458E+03 0.  0.
          5    1    3    3  502    0 -0.43553474041E+02  0.10042912391E+01 -0.35044275232E+02  0.56107975623E+02  0.47000000000E+01 0. -1.
         -5    1    3    3    0  502  0.61509868055E+02  0.20392036265E+02  0.31127121596E+02  0.72043644481E+02  0.47000000000E+01 0. -1.
        -11    1    1    2    0    0 -0.32065282634E+02  0.28381237938E+02  0.40448570693E+01  0.43012066749E+02  0.00000000000E+00 0.  1.
         11    1    1    2    0    0  0.14108888620E+02 -0.49777565442E+02  0.18198332568E+01  0.51770440914E+02  0.00000000000E+00 0. -1.
<mgrwt>
<rscale>  0 0.11874481E+03</rscale>
<asrwt>0</asrwt>
<pdfrwt beam="2">  1        1 0.16998968E-01 0.12809174E+03</pdfrwt>
<pdfrwt beam="1">  1       -1 0.17298590E-01 0.12809174E+03</pdfrwt>
<totfact> 0.75981461E+03</totfact>
</mgrwt>
</event>
<event>
 7    1  0.7800420E-006  0.1414427E+03  0.7546771E-02  0.1222232E+00
          2   -1    0    0  501    0  0.00000000000E+00  0.00000000000E+00  0.86419268412E+03  0.86419268412E+03  0.00000000000E+00 0. -1.
         -2   -1    0    0    0  501 -0.00000000000E+00 -0.00000000000E+00 -0.19473574751E+02  0.19473574751E+02  0.00000000000E+00 0.  1.
         23    2    1    2    0    0  0.13134603690E+02 -0.64878327473E+02  0.55816237297E+03  0.57580488878E+03  0.12499728060E+03 0.  0.
          5    1    3    3  502    0  0.28012714279E+02 -0.71384889604E+02  0.16213355771E+03  0.17941542620E+03  0.47000000000E+01 0.  1.
         -5    1    3    3    0  502 -0.14878110588E+02  0.65065621305E+01  0.39602881526E+03  0.39638946258E+03  0.47000000000E+01 0.  1.
        -11    1    1    2    0    0 -0.31203123226E+02 -0.97750905229E+01  0.12124890154E+03  0.12558058536E+03  0.00000000000E+00 0.  1.
         11    1    1    2    0    0  0.18068519536E+02  0.74653417996E+02  0.16530783486E+03  0.18228078473E+03  0.00000000000E+00 0. -1.
<mgrwt>
<rscale>  0 0.13358452E+03</rscale>
<asrwt>0</asrwt>
<pdfrwt beam="1">  1        2 0.13295269E+00 0.14144269E+03</pdfrwt>
<pdfrwt beam="2">  1       -2 0.29959352E-02 0.14144269E+03</pdfrwt>
<totfact> 0.13063823E+04</totfact>
</mgrwt>
</event>
<event>
 7    1  0.7800420E-006  0.1456887E+03  0.7546771E-02  0.1215375E+00
          2   -1    0    0  501    0  0.00000000000E+00  0.00000000000E+00  0.52306472784E+02  0.52306472784E+02  0.00000000000E+00 0. -1.
         -2   -1    0    0    0  501 -0.00000000000E+00 -0.00000000000E+00 -0.34470999507E+03  0.34470999507E+03  0.00000000000E+00 0.  1.
         23    2    1    2    0    0 -0.46882573854E+02  0.58341289375E+02 -0.12697073417E+03  0.19325307974E+03  0.12499401472E+03 0.  0.
          5    1    3    3  502    0 -0.81484401331E+02  0.44449662320E+02 -0.45385661128E+02  0.10342837317E+03  0.47000000000E+01 0. -1.
         -5    1    3    3    0  502  0.34601827477E+02  0.13891627055E+02 -0.81585073043E+02  0.89824706570E+02  0.47000000000E+01 0. -1.
        -11    1    1    2    0    0  0.14777077825E+02 -0.53236128743E+02 -0.26866924496E+02  0.61435161467E+02  0.00000000000E+00 0. -1.
         11    1    1    2    0    0  0.32105496029E+02 -0.51051606319E+01 -0.13856586362E+03  0.14232822665E+03  0.00000000000E+00 0.  1.
<mgrwt>
<rscale>  0 0.13849040E+03</rscale>
<asrwt>0</asrwt>
<pdfrwt beam="1">  1        2 0.80471499E-02 0.14568866E+03</pdfrwt>
<pdfrwt beam="2">  1       -2 0.53032305E-01 0.14568866E+03</pdfrwt>
<totfact> 0.27737881E+03</totfact>
</mgrwt>
</event>
<event>
 7    1  0.7800420E-006  0.1250573E+03  0.7546771E-02  0.1250955E+00
          1   -1    0    0  501    0  0.00000000000E+00  0.00000000000E+00  0.19373709550E+02  0.19373709550E+02  0.00000000000E+00 0. -1.
         -1   -1    0    0    0  501 -0.00000000000E+00 -0.00000000000E+00 -0.59987479958E+03  0.59987479958E+03  0.00000000000E+00 0.  1.
         23    2    1    2    0    0 -0.25409964846E+01  0.39868692349E+01 -0.33814652827E+03  0.36053070869E+03  0.12496785801E+03 0.  0.
          5    1    3    3  502    0 -0.28348560504E+02  0.55496515858E+02 -0.22438915505E+03  0.23292936066E+03  0.47000000000E+01 0.  1.
         -5    1    3    3    0  502  0.25807564020E+02 -0.51509646623E+02 -0.11375737323E+03  0.12760134803E+03  0.47000000000E+01 0.  1.
        -11    1    1    2    0    0 -0.26797414650E+02 -0.32723296187E+02 -0.72190596154E+02  0.83668379441E+02  0.00000000000E+00 0. -1.
         11    1    1    2    0    0  0.29338411135E+02  0.28736426952E+02 -0.17016396561E+03  0.17504942100E+03  0.00000000000E+00 0.  1.
<mgrwt>
<rscale>  0 0.11535937E+03</rscale>
<asrwt>0</asrwt>
<pdfrwt beam="1">  1        1 0.29805714E-02 0.12505726E+03</pdfrwt>
<pdfrwt beam="2">  1       -1 0.92288409E-01 0.12505726E+03</pdfrwt>
<totfact> 0.39454165E+03</totfact>
</mgrwt>
</event>
<event>
 7    1  0.7800420E-006  0.1299466E+03  0.7546771E-02  0.1239150E+00
         -1   -1    0    0    0  501 -0.00000000000E+00  0.00000000000E+00  0.44598225405E+03  0.44598225405E+03  0.00000000000E+00 0.  1.
          1   -1    0    0  501    0  0.00000000000E+00 -0.00000000000E+00 -0.44655845476E+02  0.44655845476E+02  0.00000000000E+00 0. -1.
         23    2    1    2    0    0  0.15206636678E+02  0.32109145925E+02  0.78151601830E+02  0.15163701441E+03  0.12499548880E+03 0.  0.
          5    1    3    3  502    0 -0.21279384579E+02  0.63639294802E+02  0.99822892871E+01  0.68003736297E+02  0.47000000000E+01 0.  1.
         -5    1    3    3    0  502  0.36486021257E+02 -0.31530148877E+02  0.68169312543E+02  0.83633278113E+02  0.47000000000E+01 0.  1.
        -11    1    1    2    0    0 -0.22382313709E+02 -0.60317658165E+02  0.14734714386E+03  0.16078049837E+03  0.00000000000E+00 0. -1.
         11    1    1    2    0    0  0.71756770313E+01  0.28208512240E+02  0.17582766288E+03  0.17822058674E+03  0.00000000000E+00 0.  1.
<mgrwt>
<rscale>  0 0.12242430E+03</rscale>
<asrwt>0</asrwt>
<pdfrwt beam="2">  1        1 0.68701304E-02 0.12994657E+03</pdfrwt>
<pdfrwt beam="1">  1       -1 0.68612651E-01 0.12994657E+03</pdfrwt>
<totfact> 0.23125120E+03</totfact>
</mgrwt>
</event>
<event>
 6    1  0.7800420E-006  0.1514586E+03  0.7546771E-02  0.1216675E+00
         -2   -1    0    0    0  501 -0.00000000000E+00  0.00000000000E+00  0.41123255977E+03  0.41123255977E+03  0.00000000000E+00 0.  1.
          2   -1    0    0  501    0  0.00000000000E+00 -0.00000000000E+00 -0.43011398072E+02  0.43011398072E+02  0.00000000000E+00 0. -1.
          5    1    1    2  502    0 -0.40822986017E+02  0.22175835328E+02 -0.10199538853E+02  0.47795443848E+02  0.47000000000E+01 0. -1.
         -5    1    1    2    0  502 -0.51577167884E+01 -0.39146175984E+02  0.16136583177E+03  0.16619280008E+03  0.47000000000E+01 0.  1.
        -11    1    1    2    0    0  0.41196543369E+02 -0.32028890166E+02  0.13260573204E+03  0.14250363209E+03  0.00000000000E+00 0. -1.
         11    1    1    2    0    0  0.47841594366E+01  0.48999230822E+02  0.84449136744E+02  0.97752081816E+02  0.00000000000E+00 0.  1.
<mgrwt>
<rscale>  0 0.13754187E+03</rscale>
<asrwt>0</asrwt>
<pdfrwt beam="2">  1        2 0.66171384E-02 0.15145864E+03</pdfrwt>
<pdfrwt beam="1">  1       -2 0.63266545E-01 0.15145864E+03</pdfrwt>
<totfact> 0.24855463E+03</totfact>
</mgrwt>
</event>
<event>
 7    1  0.7800420E-006  0.1368961E+03  0.7546771E-02  0.1229505E+00
         -1   -1    0    0    0  501 -0.00000000000E+00  0.00000000000E+00  0.14348996786E+02  0.14348996786E+02  0.00000000000E+00 0.  1.
          1   -1    0    0  501    0  0.00000000000E+00 -0.00000000000E+00 -0.15491409186E+04  0.15491409186E+04  0.00000000000E+00 0. -1.
         23    2    1    2    0    0  0.37405479890E+02  0.41397718935E+02 -0.12794036629E+04  0.12867067513E+04  0.12501035933E+03 0.  0.
          5    1    3    3  502    0 -0.32399954200E+02  0.42855239493E+02 -0.30019279469E+03  0.30499857797E+03  0.47000000000E+01 0.  1.
         -5    1    3    3    0  502  0.69805434091E+02 -0.14575205583E+01 -0.97921086825E+03  0.98170817329E+03  0.47000000000E+01 0.  1.
        -11    1    1    2    0    0 -0.13984126365E+02 -0.61054249297E+02 -0.22545429941E+03  0.23399320133E+03  0.00000000000E+00 0. -1.
         11    1    1    2    0    0 -0.23421353526E+02  0.19656530363E+02 -0.29933959480E+02  0.42789962807E+02  0.00000000000E+00 0.  1.
<mgrwt>
<rscale>  0 0.12862887E+03</rscale>
<asrwt>0</asrwt>
<pdfrwt beam="2">  1        1 0.23832947E+00 0.13689606E+03</pdfrwt>
<pdfrwt beam="1">  1       -1 0.22075370E-02 0.13689606E+03</pdfrwt>
<totfact> 0.38917668E+03</totfact>
</mgrwt>
</event>
<event>
 7    1  0.7800420E-006  0.1260675E+03  0.7546771E-02  0.1252656E+00
          2   -1    0    0  501    0  0.00000000000E+00  0.00000000000E+00  0.15927703063E+03  0.15927703063E+03  0.00000000000E+00 0.  1.
         -2   -1    0    0    0  501 -0.00000000000E+00 -0.00000000000E+00 -0.73001350387E+02  0.73001350387E+02  0.00000000000E+00 0. -1.
         23    2    1    2    0    0  0.13427426761E+02 -0.92705634699E+01  0.73369939557E+02  0.14586349640E+03  0.12500708946E+03 0.  0.
          5    1    3    3  502    0  0.27003302678E+01 -0.32365993799E+02  0.10206536390E+03  0.10721136995E+03  0.47000000000E+01 0. -1.
         -5    1    3    3    0  502  0.10727096493E+02  0.23095430329E+02 -0.28695424341E+02  0.38652126453E+02  0.47000000000E+01 0. -1.
        -11    1    1    2    0    0  0.32090769561E+01 -0.13213443785E+02 -0.31287397374E+02  0.34114432518E+02  0.00000000000E+00 0.  1.
         11    1    1    2    0    0 -0.16636503717E+02  0.22484007255E+02  0.44193138060E+02  0.52300452099E+02  0.00000000000E+00 0. -1.
<mgrwt>
<rscale>  0 0.11438654E+03</rscale>
<asrwt>0</asrwt>
<pdfrwt beam="1">  1        2 0.24504158E-01 0.12606749E+03</pdfrwt>
<pdfrwt beam="2">  1       -2 0.11230977E-01 0.12606749E+03</pdfrwt>
<totfact> 0.11307817E+04</totfact>
</mgrwt>
</event>
<event>
 7    1  0.7800420E-006  0.1445805E+03  0.7546771E-02  0.1217021E+00
          3   -1    0    0  501    0  0.00000000000E+00  0.00000000000E+00  0.29237964019E+02  0.29237964019E+02  0.00000000000E+00 0. -1.
         -3   -1    0    0    0  501 -0.00000000000E+00 -0.00000000000E+00 -0.60181499754E+03  0.60181499754E+03  0.00000000000E+00 0.  1.
         23    2    1    2    0    0 -0.62621444915E+02 -0.36854184991E+02 -0.26678286421E+03  0.30344128125E+03  0.12499535278E+03 0.  0.
          5    1    3    3  502    0 -0.71980067860E+02  0.60493229414E+01 -0.24243530090E+03  0.25301124402E+03  0.47000000000E+01 0. -1.
         -5    1    3    3    0  502  0.93586229459E+01 -0.42903507933E+02 -0.24347563314E+02  0.50430037237E+02  0.47000000000E+01 0. -1.
        -11    1    1    2    0    0  0.40112298867E+01 -0.17899525354E+02 -0.95080666371E+01  0.20661227076E+02  0.00000000000E+00 0. -1.
         11    1    1    2    0    0  0.58610215028E+02  0.54753710345E+02 -0.29628610266E+03  0.30695045322E+03  0.00000000000E+00 0.  1.
<mgrwt>
<rscale>  0 0.13729134E+03</rscale>
<asrwt>0</asrwt>
<pdfrwt beam="1">  1        3 0.44981484E-02 0.14458048E+03</pdfrwt>
<pdfrwt beam="2">  1       -3 0.92586920E-01 0.14458048E+03</pdfrwt>
<totfact> 0.67932531E+02</totfact>
</mgrwt>
</event>
<event>
 7    1  0.7800420E-006  0.2018398E+03  0.7546771E-02  0.1152010E+00
          2   -1    0    0  501    0  0.00000000000E+00  0.00000000000E+00  0.11351010746E+04  0.11351010746E+04  0.00000000000E+00 0. -1.
         -2   -1    0    0    0  501 -0.00000000000E+00 -0.00000000000E+00 -0.35204377522E+02  0.35204377522E+02  0.00000000000E+00 0.  1.
         23    2    1    2    0    0 -0.49059172424E+02 -0.15070149923E+03  0.72409365241E+03  0.75169869486E+03  0.12498626374E+03 0.  0.
          5    1    3    3  502    0  0.70993525084E-01 -0.46864662153E+02  0.53320088358E+02  0.71143681528E+02  0.47000000000E+01 0. -1.
         -5    1    3    3    0  502 -0.49130165949E+02 -0.10383683708E+03  0.67077356405E+03  0.68055501333E+03  0.47000000000E+01 0. -1.
        -11    1    1    2    0    0  0.12738570078E+02  0.14736335984E+03  0.30352385930E+03  0.33764621152E+03  0.00000000000E+00 0.  1.
         11    1    1    2    0    0  0.36320602346E+02  0.33381393923E+01  0.72279185390E+02  0.80960545762E+02  0.00000000000E+00 0. -1.
<mgrwt>
<rscale>  0 0.19733126E+03</rscale>
<asrwt>0</asrwt>
<pdfrwt beam="1">  1        2 0.17463091E+00 0.20183981E+03</pdfrwt>
<pdfrwt beam="2">  1       -2 0.54160589E-02 0.20183981E+03</pdfrwt>
<totfact> 0.37491008E+03</totfact>
</mgrwt>
</event>
<event>
 7    1  0.7800420E-006  0.1842640E+03  0.7546771E-02  0.1168924E+00
         -1   -1    0    0    0  501 -0.00000000000E+00  0.00000000000E+00  0.35103356759E+02  0.35103356759E+02  0.00000000000E+00 0.  1.
          1   -1    0    0  501    0  0.00000000000E+00 -0.00000000000E+00 -0.11612682082E+04  0.11612682082E+04  0.00000000000E+00 0. -1.
         23    2    1    2    0    0  0.16109239306E+02  0.13441526466E+03 -0.89151593713E+03  0.91035921296E+03  0.12500503794E+03 0.  0.
          5    1    3    3  502    0 -0.18903354583E+02  0.84831732053E+02 -0.22788331886E+03  0.24393986265E+03  0.47000000000E+01 0. -1.
         -5    1    3    3    0  502  0.35012593889E+02  0.49583532610E+02 -0.66363261827E+03  0.66641935031E+03  0.47000000000E+01 0. -1.
        -11    1    1    2    0    0  0.24535418564E+02 -0.11214204182E+03 -0.14358714061E+03  0.18383441260E+03  0.00000000000E+00 0.  1.
         11    1    1    2    0    0 -0.40644657870E+02 -0.22273222845E+02 -0.91061773717E+02  0.10217793941E+03  0.00000000000E+00 0. -1.
<mgrwt>
<rscale>  0 0.17884697E+03</rscale>
<asrwt>0</asrwt>
<pdfrwt beam="2">  1        1 0.17865662E+00 0.18426402E+03</pdfrwt>
<pdfrwt beam="1">  1       -1 0.54005172E-02 0.18426402E+03</pdfrwt>
<totfact> 0.19071733E+03</totfact>
</mgrwt>
</event>
<event>
 7    1  0.7800420E-006  0.1331656E+03  0.7546771E-02  0.1236247E+00
          1   -1    0    0  501    0  0.00000000000E+00  0.00000000000E+00  0.10715661290E+04  0.10715661290E+04  0.00000000000E+00 0. -1.
         -1   -1    0    0    0  501 -0.00000000000E+00 -0.00000000000E+00 -0.12913745970E+02  0.12913745970E+02  0.00000000000E+00 0.  1.
         23    2    1    2    0    0  0.45893435359E+02 -0.12450515230E+01  0.65518148102E+03  0.66857747628E+03  0.12500124461E+03 0.  0.
          5    1    3    3  502    0  0.39650638890E+02 -0.47617272212E+02  0.16788006720E+03  0.17901224746E+03  0.47000000000E+01 0. -1.
         -5    1    3    3    0  502  0.62427964692E+01  0.46372220689E+02  0.48730141382E+03  0.48956522882E+03  0.47000000000E+01 0. -1.
        -11    1    1    2    0    0 -0.67521466580E+02 -0.47452728770E+01  0.36614628061E+03  0.37235032545E+03  0.00000000000E+00 0. -1.
         11    1    1    2    0    0  0.21628031221E+02  0.59903244000E+01  0.37324621452E+02  0.43552073285E+02  0.00000000000E+00 0.  1.
<mgrwt>
<rscale>  0 0.12424949E+03</rscale>
<asrwt>0</asrwt>
<pdfrwt beam="1">  1        1 0.16485626E+00 0.13316557E+03</pdfrwt>
<pdfrwt beam="2">  1       -1 0.19867310E-02 0.13316557E+03</pdfrwt>
<totfact> 0.94624369E+03</totfact>
</mgrwt>
</event>
<event>
 7    1  0.7800420E-006  0.2428725E+03  0.7546771E-02  0.1120578E+00
         -1   -1    0    0    0  501 -0.00000000000E+00  0.00000000000E+00  0.66022275507E+02  0.66022275507E+02  0.00000000000E+00 0.  1.
          1   -1    0    0  501    0  0.00000000000E+00 -0.00000000000E+00 -0.18077484375E+04  0.18077484375E+04  0.00000000000E+00 0. -1.
         23    2    1    2    0    0  0.20816000980E+03 -0.56156972917E+01 -0.15710100603E+04  0.15896728106E+04  0.12499963854E+03 0.  0.
          5    1    3    3  502    0  0.22447980709E+03 -0.11296585784E+02 -0.14395699247E+04  0.14570183440E+04  0.47000000000E+01 0.  1.
         -5    1    3    3    0  502 -0.16319797294E+02  0.56808884923E+01 -0.13144013558E+03  0.13265446663E+03  0.47000000000E+01 0.  1.
        -11    1    1    2    0    0 -0.46632126816E+02  0.23605847326E+02 -0.86458283537E+02  0.10102883782E+03  0.00000000000E+00 0. -1.
         11    1    1    2    0    0 -0.16152788298E+03 -0.17990150035E+02 -0.84257818214E+02  0.18306906459E+03  0.00000000000E+00 0.  1.
<mgrwt>
<rscale>  0 0.23882559E+03</rscale>
<asrwt>0</asrwt>
<pdfrwt beam="2">  1        1 0.27811517E+00 0.24287247E+03</pdfrwt>
<pdfrwt beam="1">  1       -1 0.10157272E-01 0.24287247E+03</pdfrwt>
<totfact> 0.26976549E+02</totfact>
</mgrwt>
</event>
<event>
 7    1  0.7800420E-006  0.1672267E+03  0.7546771E-02  0.1184828E+00
         -2   -1    0    0    0  501 -0.00000000000E+00  0.00000000000E+00  0.79765933468E+02  0.79765933468E+02  0.00000000000E+00 0. -1.
          2   -1    0    0  501    0  0.00000000000E+00 -0.00000000000E+00 -0.34020298909E+03  0.34020298909E+03  0.00000000000E+00 0.  1.
         23    2    1    2    0    0 -0.10900835342E+03  0.21395206173E+02 -0.18584380966E+03  0.25000540756E+03  0.12499682498E+03 0.  0.
          5    1    3    3  502    0 -0.12236474093E+03  0.40714829427E+02 -0.10710299122E+03  0.16770202112E+03  0.47000000000E+01 0.  1.
         -5    1    3    3    0  502  0.13356387518E+02 -0.19319623254E+02 -0.78740818442E+02  0.82303386438E+02  0.47000000000E+01 0.  1.
        -11    1    1    2    0    0  0.47365241879E+02 -0.33010866321E+02  0.15874346395E+02  0.59876358498E+02  0.00000000000E+00 0. -1.
         11    1    1    2    0    0  0.61643111536E+02  0.11615660147E+02 -0.90467592352E+02  0.11008715650E+03  0.00000000000E+00 0.  1.
<mgrwt>
<rscale>  0 0.16347576E+03</rscale>
<asrwt>0</asrwt>
<pdfrwt beam="2">  1        2 0.52338921E-01 0.16722674E+03</pdfrwt>
<pdfrwt beam="1">  1       -2 0.12271682E-01 0.16722674E+03</pdfrwt>
<totfact> 0.44203414E+03</totfact>
</mgrwt>
</event>
<event>
 7    1  0.7800420E-006  0.1743015E+03  0.7546771E-02  0.1185286E+00
         -2   -1    0    0    0  501 -0.00000000000E+00  0.00000000000E+00  0.89423191456E+02  0.89423191456E+02  0.00000000000E+00 0.  1.
          2   -1    0    0  501    0  0.00000000000E+00 -0.00000000000E+00 -0.26490773554E+03  0.26490773554E+03  0.00000000000E+00 0. -1.
         23    2    1    2    0    0 -0.68122719558E+01  0.12128497391E+03 -0.97139512835E+02  0.19954217828E+03  0.12499817605E+03 0.  0.
          5    1    3    3  502    0  0.58654496437E+02  0.53495014133E+02 -0.51332506959E+02  0.94652959595E+02  0.47000000000E+01 0.  1.
         -5    1    3    3    0  502 -0.65466768393E+02  0.67789959774E+02 -0.45807005876E+02  0.10488921869E+03  0.47000000000E+01 0.  1.
        -11    1    1    2    0    0 -0.62259015521E+01 -0.10728377993E+03 -0.45335470304E+02  0.11663565559E+03  0.00000000000E+00 0.  1.
         11    1    1    2    0    0  0.13038173508E+02 -0.14001193976E+02 -0.33009560942E+02  0.38153093122E+02  0.00000000000E+00 0. -1.
<mgrwt>
<rscale>  0 0.16305876E+03</rscale>
<asrwt>0</asrwt>
<pdfrwt beam="2">  1        2 0.40755035E-01 0.17430145E+03</pdfrwt>
<pdfrwt beam="1">  1       -2 0.13757414E-01 0.17430145E+03</pdfrwt>
<totfact> 0.48092650E+03</totfact>
</mgrwt>
</event>
<event>
 7    1  0.7800420E-006  0.1689790E+03  0.7546771E-02  0.1185215E+00
         -2   -1    0    0    0  501 -0.00000000000E+00  0.00000000000E+00  0.42415136630E+02  0.42415136630E+02  0.00000000000E+00 0.  1.
          2   -1    0    0  501    0  0.00000000000E+00 -0.00000000000E+00 -0.58774571159E+03  0.58774571159E+03  0.00000000000E+00 0. -1.
         23    2    1    2    0    0  0.57914611389E+02  0.97843710567E+02 -0.28600985790E+03  0.33219807021E+03  0.12500570037E+03 0.  0.
          5    1    3    3  502    0 -0.27245903292E+02 -0.11568470552E+01 -0.15349890003E+02  0.31644694096E+02  0.47000000000E+01 0.  1.
         -5    1    3    3    0  502  0.85160514681E+02  0.99000557622E+02 -0.27065996790E+03  0.30055337612E+03  0.47000000000E+01 0.  1.
        -11    1    1    2    0    0 -0.56751749599E+02 -0.11040913974E+03 -0.18637973658E+03  0.22393826254E+03  0.00000000000E+00 0.  1.
         11    1    1    2    0    0 -0.11628617902E+01  0.12565429174E+02 -0.72940980477E+02  0.74024515471E+02  0.00000000000E+00 0. -1.
<mgrwt>
<rscale>  0 0.16312356E+03</rscale>
<asrwt>0</asrwt>
<pdfrwt beam="2">  1        2 0.90422417E-01 0.16897905E+03</pdfrwt>
<pdfrwt beam="1">  1       -2 0.65254057E-02 0.16897905E+03</pdfrwt>
<totfact> 0.65395085E+03</totfact>
</mgrwt>
</event>
<event>
 7    1  0.7800420E-006  0.1842112E+03  0.7546771E-02  0.1169401E+00
         -2   -1    0    0    0  501 -0.00000000000E+00  0.00000000000E+00  0.20983522177E+02  0.20983522177E+02  0.00000000000E+00 0.  1.
          2   -1    0    0  501    0  0.00000000000E+00 -0.00000000000E+00 -0.16958989491E+04  0.16958989491E+04  0.00000000000E+00 0. -1.
         23    2    1    2    0    0 -0.71539879947E+02 -0.11278120565E+03 -0.12240249236E+04  0.12378088621E+04  0.12687084265E+03 0.  0.
          5    1    3    3  502    0 -0.26050473042E+02 -0.13017952083E+03 -0.97646059704E+03  0.98545559126E+03  0.47000000000E+01 0. -1.
         -5    1    3    3    0  502 -0.45489406905E+02  0.17398315183E+02 -0.24756432656E+03  0.25235327083E+03  0.47000000000E+01 0.  1.
        -11    1    1    2    0    0  0.39509595650E+02  0.11894161355E+03 -0.30833422672E+03  0.33283345827E+03  0.00000000000E+00 0.  1.
         11    1    1    2    0    0  0.32030284297E+02 -0.61604079014E+01 -0.14255627660E+03  0.14624015090E+03  0.00000000000E+00 0. -1.
<mgrwt>
<rscale>  0 0.17835854E+03</rscale>
<asrwt>0</asrwt>
<pdfrwt beam="2">  1        2 0.26090747E+00 0.18421120E+03</pdfrwt>
<pdfrwt beam="1">  1       -2 0.32282349E-02 0.18421120E+03</pdfrwt>
<totfact> 0.40603503E+03</totfact>
</mgrwt>
</event>
<event>
 7    1  0.7800420E-006  0.1417116E+03  0.7546771E-02  0.1222835E+00
          3   -1    0    0  501    0  0.00000000000E+00  0.00000000000E+00  0.54366437361E+02  0.54366437361E+02  0.00000000000E+00 0. -1.
         -3   -1    0    0    0  501 -0.00000000000E+00 -0.00000000000E+00 -0.29551964022E+03  0.29551964022E+03  0.00000000000E+00 0.  1.
         23    2    1    2    0    0 -0.32145907287E+01 -0.66691448248E+02 -0.15292395596E+03  0.20848956840E+03  0.12499632381E+03 0.  0.
          5    1    3    3  502    0  0.85526006709E+01 -0.10251245663E+03 -0.10188747181E+03  0.14486234036E+03  0.47000000000E+01 0. -1.
         -5    1    3    3    0  502 -0.11767191400E+02  0.35821008380E+02 -0.51036484147E+02  0.63627228046E+02  0.47000000000E+01 0. -1.
        -11    1    1    2    0    0  0.30698134196E+02  0.38069510962E+02 -0.89174799942E+02  0.10170451343E+03  0.00000000000E+00 0. -1.
         11    1    1    2    0    0 -0.27483543467E+02  0.28621937286E+02  0.94555303948E+00  0.39691995743E+02  0.00000000000E+00 0.  1.
<mgrwt>
<rscale>  0 0.13316407E+03</rscale>
<asrwt>0</asrwt>
<pdfrwt beam="1">  1        3 0.83640671E-02 0.14171155E+03</pdfrwt>
<pdfrwt beam="2">  1       -3 0.45464561E-01 0.14171155E+03</pdfrwt>
<totfact> 0.11113396E+03</totfact>
</mgrwt>
</event>
<event>
 7    1  0.7800420E-006  0.1610977E+03  0.7546771E-02  0.1193654E+00
          2   -1    0    0  501    0  0.00000000000E+00  0.00000000000E+00  0.12175749906E+03  0.12175749906E+03  0.00000000000E+00 0.  1.
         -2   -1    0    0    0  501 -0.00000000000E+00 -0.00000000000E+00 -0.35402649852E+03  0.35402649852E+03  0.00000000000E+00 0. -1.
         23    2    1    2    0    0 -0.82203295848E+02 -0.59756312428E+02  0.42986320859E+02  0.16673423411E+03  0.12499712925E+03 0.  0.
          5    1    3    3  502    0 -0.21732497407E+02  0.34340896942E+02  0.36117291954E+02  0.54572405339E+02  0.47000000000E+01 0.  1.
         -5    1    3    3    0  502 -0.60470798441E+02 -0.94097209370E+02  0.68690289043E+01  0.11216182877E+03  0.47000000000E+01 0.  1.
        -11    1    1    2    0    0  0.85602119552E+02  0.33648619113E+02 -0.11803515308E+03  0.14964040164E+03  0.00000000000E+00 0.  1.
         11    1    1    2    0    0 -0.33988237045E+01  0.26107693315E+02 -0.15722016724E+03  0.15940936183E+03  0.00000000000E+00 0. -1.
<mgrwt>
<rscale>  0 0.15568713E+03</rscale>
<asrwt>0</asrwt>
<pdfrwt beam="1">  1        2 0.18731923E-01 0.16109774E+03</pdfrwt>
<pdfrwt beam="2">  1       -2 0.54465614E-01 0.16109774E+03</pdfrwt>
<totfact> 0.95601889E+02</totfact>
</mgrwt>
</event>
<event>
 7    1  0.7800420E-006  0.2147335E+03  0.7546771E-02  0.1140526E+00
          2   -1    0    0  501    0  0.00000000000E+00  0.00000000000E+00  0.18636770175E+04  0.18636770175E+04  0.00000000000E+00 0. -1.
         -2   -1    0    0    0  501 -0.00000000000E+00 -0.00000000000E+00 -0.28026090662E+02  0.28026090662E+02  0.00000000000E+00 0.  1.
         23    2    1    2    0    0  0.16182297852E+03  0.65569549667E+02  0.13333644390E+04  0.13505447737E+04  0.12499766573E+03 0.  0.
          5    1    3    3  502    0  0.89156467855E+02  0.98677995797E+02  0.91162479683E+03  0.92128610258E+03  0.47000000000E+01 0. -1.
         -5    1    3    3    0  502  0.72666510668E+02 -0.33108446130E+02  0.42173964213E+03  0.42925867110E+03  0.47000000000E+01 0. -1.
        -11    1    1    2    0    0 -0.12759187967E+03 -0.92021137558E+02  0.41292489307E+03  0.44187616459E+03  0.00000000000E+00 0. -1.
         11    1    1    2    0    0 -0.34231098857E+02  0.26451587891E+02  0.89361594853E+02  0.99282169928E+02  0.00000000000E+00 0.  1.
<mgrwt>
<rscale>  0 0.21131867E+03</rscale>
<asrwt>0</asrwt>
<pdfrwt beam="1">  1        2 0.28671944E+00 0.21473346E+03</pdfrwt>
<pdfrwt beam="2">  1       -2 0.43117077E-02 0.21473346E+03</pdfrwt>
<totfact> 0.21546838E+03</totfact>
</mgrwt>
</event>
<event>
 7    1  0.7800420E-006  0.1872439E+03  0.7546771E-02  0.1166200E+00
          1   -1    0    0  501    0  0.00000000000E+00  0.00000000000E+00  0.43052622183E+02  0.43052622183E+02  0.00000000000E+00 0. -1.
         -1   -1    0    0    0  501 -0.00000000000E+00 -0.00000000000E+00 -0.87702464609E+03  0.87702464609E+03  0.00000000000E+00 0.  1.
         23    2    1    2    0    0  0.13069553165E+03  0.48462701344E+02 -0.24604969629E+03  0.30919369588E+03  0.12502133062E+03 0.  0.
          5    1    3    3  502    0  0.25745711159E+02 -0.37263880875E+02 -0.10014118769E+03  0.11000811758E+03  0.47000000000E+01 0.  1.
         -5    1    3    3    0  502  0.10494982049E+03  0.85726582219E+02 -0.14590850860E+03  0.19918557830E+03  0.47000000000E+01 0.  1.
        -11    1    1    2    0    0 -0.55645717651E+02  0.24682970226E+02 -0.20051737113E+03  0.20955407664E+03  0.00000000000E+00 0.  1.
         11    1    1    2    0    0 -0.75049814003E+02 -0.73145671570E+02 -0.38740495649E+03  0.40132949575E+03  0.00000000000E+00 0. -1.
<mgrwt>
<rscale>  0 0.18166608E+03</rscale>
<asrwt>0</asrwt>
<pdfrwt beam="1">  1        1 0.66234806E-02 0.18724393E+03</pdfrwt>
<pdfrwt beam="2">  1       -1 0.13492686E+00 0.18724393E+03</pdfrwt>
<totfact> 0.55803774E+02</totfact>
</mgrwt>
</event>
<event>
 6    1  0.7800420E-006  0.3611951E+03  0.7546771E-02  0.1101021E+00
          2   -1    0    0  501    0  0.00000000000E+00  0.00000000000E+00  0.10417276799E+04  0.10417276799E+04  0.00000000000E+00 0. -1.
         -2   -1    0    0    0  501 -0.00000000000E+00 -0.00000000000E+00 -0.68375910203E+02  0.68375910203E+02  0.00000000000E+00 0.  1.
          5    1    1    2  502    0  0.11899415120E+02  0.33369001501E+01  0.91652395044E+03  0.91661931723E+03  0.47000000000E+01 0. -1.
         -5    1    1    2    0  502  0.50400522613E+01  0.64056133892E+02 -0.42405006727E+01  0.64565178401E+02  0.47000000000E+01 0.  1.
        -11    1    1    2    0    0 -0.10484835575E+02 -0.16598885465E+02  0.73626286056E+02  0.76198981451E+02  0.00000000000E+00 0. -1.
         11    1    1    2    0    0 -0.64546318071E+01 -0.50794148577E+02 -0.12557966148E+02  0.52720113004E+02  0.00000000000E+00 0.  1.
<mgrwt>
<rscale>  0 0.27045273E+03</rscale>
<asrwt>0</asrwt>
<pdfrwt beam="1">  1        2 0.16026579E+00 0.36119513E+03</pdfrwt>
<pdfrwt beam="2">  1       -2 0.10519372E-01 0.36119513E+03</pdfrwt>
<totfact> 0.15134354E+03</totfact>
</mgrwt>
</event>
<event>
 7    1  0.7800420E-006  0.1424862E+03  0.7546771E-02  0.1230498E+00
         -2   -1    0    0    0  501 -0.00000000000E+00  0.00000000000E+00  0.58994163765E+02  0.58994163765E+02  0.00000000000E+00 0.  1.
          2   -1    0    0  501    0  0.00000000000E+00 -0.00000000000E+00 -0.23465293084E+03  0.23465293084E+03  0.00000000000E+00 0. -1.
         23    2    1    2    0    0 -0.51528092346E+02  0.45002412145E+02 -0.11095440159E+03  0.18059123893E+03  0.12498781920E+03 0.  0.
          5    1    3    3  502    0  0.87010115605E+01  0.64802425717E+02 -0.94345124807E+02  0.11488322138E+03  0.47000000000E+01 0.  1.
         -5    1    3    3    0  502 -0.60229103906E+02 -0.19800013571E+02 -0.16609276778E+02  0.65708017546E+02  0.47000000000E+01 0.  1.
        -11    1    1    2    0    0  0.36532262457E+02 -0.51441921829E+02 -0.21150684602E+02  0.66544939559E+02  0.00000000000E+00 0.  1.
         11    1    1    2    0    0  0.14995829889E+02  0.64395096841E+01 -0.43553680888E+02  0.46510916116E+02  0.00000000000E+00 0. -1.
<mgrwt>
<rscale>  0 0.12797058E+03</rscale>
<asrwt>0</asrwt>
<pdfrwt beam="2">  1        2 0.36100450E-01 0.14248620E+03</pdfrwt>
<pdfrwt beam="1">  1       -2 0.90760253E-02 0.14248620E+03</pdfrwt>
<totfact> 0.10485212E+04</totfact>
</mgrwt>
</event>
<event>
 7    1  0.7800420E-006  0.1388148E+03  0.7546771E-02  0.1234424E+00
          2   -1    0    0  501    0  0.00000000000E+00  0.00000000000E+00  0.28613592787E+02  0.28613592787E+02  0.00000000000E+00 0. -1.
         -2   -1    0    0    0  501 -0.00000000000E+00 -0.00000000000E+00 -0.49418677808E+03  0.49418677808E+03  0.00000000000E+00 0.  1.
         23    2    1    2    0    0 -0.35587139811E+02  0.49135815798E+02 -0.33654657716E+03  0.36405103130E+03  0.12485504348E+03 0.  0.
          5    1    3    3  502    0  0.41645179438E+02 -0.50920678533E+01 -0.76579117768E+02  0.87445419569E+02  0.47000000000E+01 0.  1.
         -5    1    3    3    0  502 -0.77232319249E+02  0.54227883651E+02 -0.25996745939E+03  0.27660561173E+03  0.47000000000E+01 0.  1.
        -11    1    1    2    0    0 -0.17589989507E+02 -0.29605618201E+02 -0.62599252777E+02  0.71446251183E+02  0.00000000000E+00 0.  1.
         11    1    1    2    0    0  0.53177129318E+02 -0.19530197597E+02 -0.66427355356E+02  0.87303088378E+02  0.00000000000E+00 0. -1.
<mgrwt>
<rscale>  0 0.12541364E+03</rscale>
<asrwt>0</asrwt>
<pdfrwt beam="1">  1        2 0.44020910E-02 0.13881482E+03</pdfrwt>
<pdfrwt beam="2">  1       -2 0.76028739E-01 0.13881482E+03</pdfrwt>
<totfact> 0.28430896E+03</totfact>
</mgrwt>
</event>
<event>
 6    1  0.7800420E-006  0.1804770E+03  0.7546771E-02  0.1182801E+00
          2   -1    0    0  501    0  0.00000000000E+00  0.00000000000E+00  0.35875511886E+03  0.35875511886E+03  0.00000000000E+00 0. -1.
         -2   -1    0    0    0  501 -0.00000000000E+00 -0.00000000000E+00 -0.76404946635E+02  0.76404946635E+02  0.00000000000E+00 0.  1.
          5    1    1    2  502    0 -0.53577958763E+02  0.15894412295E+02  0.25895486909E+03  0.26495838207E+03  0.47000000000E+01 0. -1.
         -5    1    1    2    0  502 -0.32083716929E+02  0.26644554335E+01 -0.17145075146E+02  0.36776457368E+02  0.47000000000E+01 0.  1.
        -11    1    1    2    0    0 -0.43115703499E+01 -0.34995649524E+02  0.66248260455E+01  0.35877199509E+02  0.00000000000E+00 0.  1.
         11    1    1    2    0    0  0.89973246042E+02  0.16436781796E+02  0.33915552240E+02  0.97548026545E+02  0.00000000000E+00 0. -1.
<mgrwt>
<rscale>  0 0.16533598E+03</rscale>
<asrwt>0</asrwt>
<pdfrwt beam="1">  1        2 0.55193094E-01 0.18047697E+03</pdfrwt>
<pdfrwt beam="2">  1       -2 0.11754607E-01 0.18047697E+03</pdfrwt>
<totfact> 0.44912271E+03</totfact>
</mgrwt>
</event>
<event>
 7    1  0.7800420E-006  0.1396509E+03  0.7546771E-02  0.1224517E+00
         -2   -1    0    0    0  501 -0.00000000000E+00  0.00000000000E+00  0.44022522980E+02  0.44022522980E+02  0.00000000000E+00 0.  1.
          2   -1    0    0  501    0  0.00000000000E+00 -0.00000000000E+00 -0.43756443330E+03  0.43756443330E+03  0.00000000000E+00 0. -1.
         23    2    1    2    0    0  0.45436588777E+02 -0.42578995010E+02 -0.31690730646E+03  0.34631288466E+03  0.12499967512E+03 0.  0.
          5    1    3    3  502    0  0.62618068011E+02  0.17747644767E+02 -0.92116448944E+02  0.11288725128E+03  0.47000000000E+01 0.  1.
         -5    1    3    3    0  502 -0.17181479234E+02 -0.60326639777E+02 -0.22479085751E+03  0.23342563338E+03  0.47000000000E+01 0.  1.
        -11    1    1    2    0    0  0.17643073838E+01  0.43046345782E+02  0.24733623006E+01  0.43153426130E+02  0.00000000000E+00 0.  1.
         11    1    1    2    0    0 -0.47200896160E+02 -0.46735077223E+00 -0.79107966161E+02  0.92120645488E+02  0.00000000000E+00 0. -1.
<mgrwt>
<rscale>  0 0.13200037E+03</rscale>
<asrwt>0</asrwt>
<pdfrwt beam="2">  1        2 0.67317604E-01 0.13965090E+03</pdfrwt>
<pdfrwt beam="1">  1       -2 0.67726959E-02 0.13965090E+03</pdfrwt>
<totfact> 0.84701370E+03</totfact>
</mgrwt>
</event>
<event>
 7    1  0.7800420E-006  0.2380878E+03  0.7546771E-02  0.1123732E+00
         -1   -1    0    0    0  501 -0.00000000000E+00  0.00000000000E+00  0.41397266980E+03  0.41397266980E+03  0.00000000000E+00 0.  1.
          1   -1    0    0  501    0  0.00000000000E+00 -0.00000000000E+00 -0.19632339840E+03  0.19632339840E+03  0.00000000000E+00 0. -1.
         23    2    1    2    0    0  0.29266993416E+02  0.20051924937E+03 -0.68378301497E+02  0.24771229727E+03  0.12498505444E+03 0.  0.
          5    1    3    3  502    0  0.21853714372E+01  0.16517754423E+03  0.85798656678E+00  0.16526107560E+03  0.47000000000E+01 0.  1.
         -5    1    3    3    0  502  0.27081621979E+02  0.35341705144E+02 -0.69236288064E+02  0.82451221679E+02  0.47000000000E+01 0.  1.
        -11    1    1    2    0    0 -0.50112445620E+02 -0.19044369456E+03  0.27095272467E+03  0.33495587323E+03  0.00000000000E+00 0.  1.
         11    1    1    2    0    0  0.20845452204E+02 -0.10075554811E+02  0.15074848223E+02  0.27627897700E+02  0.00000000000E+00 0. -1.
<mgrwt>
<rscale>  0 0.23417927E+03</rscale>
<asrwt>0</asrwt>
<pdfrwt beam="2">  1        1 0.30203600E-01 0.23808778E+03</pdfrwt>
<pdfrwt beam="1">  1       -1 0.63688103E-01 0.23808778E+03</pdfrwt>
<totfact> 0.39083859E+02</totfact>
</mgrwt>
</event>
<event>
 7    1  0.7800420E-006  0.1302582E+03  0.7546771E-02  0.1242707E+00
          1   -1    0    0  501    0  0.00000000000E+00  0.00000000000E+00  0.50357194582E+03  0.50357194582E+03  0.00000000000E+00 0. -1.
         -1   -1    0    0    0  501 -0.00000000000E+00 -0.00000000000E+00 -0.27829284211E+02  0.27829284211E+02  0.00000000000E+00 0.  1.
         23    2    1    2    0    0  0.27307628896E+02  0.24377275656E+02  0.35427768067E+03  0.37746506565E+03  0.12500897008E+03 0.  0.
          5    1    3    3  502    0  0.55759927916E+02 -0.19444333840E+02  0.28200847129E+03  0.28816335569E+03  0.47000000000E+01 0. -1.
         -5    1    3    3    0  502 -0.28452299020E+02  0.43821609496E+02  0.72269209371E+02  0.89301709958E+02  0.47000000000E+01 0. -1.
        -11    1    1    2    0    0  0.16806172402E+02 -0.26101919278E+02  0.78153623077E+01  0.32013083401E+02  0.00000000000E+00 0.  1.
         11    1    1    2    0    0 -0.44113801299E+02  0.17246436224E+01  0.11364961864E+03  0.12192308099E+03  0.00000000000E+00 0. -1.
<mgrwt>
<rscale>  0 0.12023663E+03</rscale>
<asrwt>0</asrwt>
<pdfrwt beam="1">  1        1 0.77472600E-01 0.13025821E+03</pdfrwt>
<pdfrwt beam="2">  1       -1 0.42814287E-02 0.13025821E+03</pdfrwt>
<totfact> 0.94456965E+03</totfact>
</mgrwt>
</event>
<event>
 7    1  0.7800420E-006  0.1402210E+03  0.7546771E-02  0.1223735E+00
         -1   -1    0    0    0  501 -0.00000000000E+00  0.00000000000E+00  0.18083091770E+02  0.18083091770E+02  0.00000000000E+00 0.  1.
          1   -1    0    0  501    0  0.00000000000E+00 -0.00000000000E+00 -0.87995665737E+03  0.87995665737E+03  0.00000000000E+00 0. -1.
         23    2    1    2    0    0  0.29330208601E+02  0.56315420588E+02 -0.46453813506E+03  0.48523973999E+03  0.12502095268E+03 0.  0.
          5    1    3    3  502    0  0.73273504588E+02  0.59255390118E+02 -0.34815671627E+03  0.36071511864E+03  0.47000000000E+01 0. -1.
         -5    1    3    3    0  502 -0.43943295986E+02 -0.29399695303E+01 -0.11638141879E+03  0.12452462135E+03  0.47000000000E+01 0. -1.
        -11    1    1    2    0    0 -0.60407402251E+02 -0.44423987751E+02 -0.22161108771E+03  0.23395302761E+03  0.00000000000E+00 0.  1.
         11    1    1    2    0    0  0.31077193650E+02 -0.11891432837E+02 -0.17572434283E+03  0.17884698153E+03  0.00000000000E+00 0. -1.
<mgrwt>
<rscale>  0 0.13253993E+03</rscale>
<asrwt>0</asrwt>
<pdfrwt beam="2">  1        1 0.13537794E+00 0.14022099E+03</pdfrwt>
<pdfrwt beam="1">  1       -1 0.27820142E-02 0.14022099E+03</pdfrwt>
<totfact> 0.80833322E+03</totfact>
</mgrwt>
</event>
<event>
 7    1  0.7800420E-006  0.1334424E+03  0.7546771E-02  0.1235366E+00
          1   -1    0    0  501    0  0.00000000000E+00  0.00000000000E+00  0.31597264557E+02  0.31597264557E+02  0.00000000000E+00 0. -1.
         -1   -1    0    0    0  501 -0.00000000000E+00 -0.00000000000E+00 -0.43950386651E+03  0.43950386651E+03  0.00000000000E+00 0.  1.
         23    2    1    2    0    0  0.46461749832E+02 -0.47445044849E+01 -0.22349809512E+03  0.26030421122E+03  0.12500271731E+03 0.  0.
          5    1    3    3  502    0  0.44929594327E+02 -0.25144897963E+02 -0.23197481696E+03  0.23766644703E+03  0.47000000000E+01 0.  1.
         -5    1    3    3    0  502  0.15321555045E+01  0.20400393478E+02  0.84767218371E+01  0.22637764193E+02  0.47000000000E+01 0.  1.
        -11    1    1    2    0    0 -0.25517599120E+02  0.37654457383E+02 -0.15611678204E+03  0.16260828902E+03  0.00000000000E+00 0.  1.
         11    1    1    2    0    0 -0.20944150711E+02 -0.32909952898E+02 -0.28291724796E+02  0.48188630824E+02  0.00000000000E+00 0. -1.
<mgrwt>
<rscale>  0 0.12481018E+03</rscale>
<asrwt>0</asrwt>
<pdfrwt beam="1">  1        1 0.48611180E-02 0.13344244E+03</pdfrwt>
<pdfrwt beam="2">  1       -1 0.67615974E-01 0.13344244E+03</pdfrwt>
<totfact> 0.38128565E+03</totfact>
</mgrwt>
</event>
<event>
 7    1  0.7800420E-006  0.2039927E+03  0.7546771E-02  0.1148761E+00
          1   -1    0    0  501    0  0.00000000000E+00  0.00000000000E+00  0.19902920022E+03  0.19902920022E+03  0.00000000000E+00 0. -1.
         -1   -1    0    0    0  501 -0.00000000000E+00 -0.00000000000E+00 -0.38958112068E+03  0.38958112068E+03  0.00000000000E+00 0.  1.
         23    2    1    2    0    0  0.16467304744E+03  0.37612060874E+02  0.10978360924E+03  0.23165807175E+03  0.11437281876E+03 0.  0.
          5    1    3    3  502    0  0.15165031481E+03  0.25657379231E+02  0.39268074040E+02  0.15880866075E+03  0.47000000000E+01 0. -1.
         -5    1    3    3    0  502  0.13022732636E+02  0.11954681644E+02  0.70515535202E+02  0.72849411002E+02  0.47000000000E+01 0.  1.
        -11    1    1    2    0    0 -0.88865057938E+02  0.11028762409E+02 -0.84689248680E+02  0.12325137307E+03  0.00000000000E+00 0. -1.
         11    1    1    2    0    0 -0.75807989503E+02 -0.48640823284E+02 -0.21564628102E+03  0.23370087608E+03  0.00000000000E+00 0.  1.
<mgrwt>
<rscale>  0 0.20116318E+03</rscale>
<asrwt>0</asrwt>
<pdfrwt beam="1">  1        1 0.30619877E-01 0.20399270E+03</pdfrwt>
<pdfrwt beam="2">  1       -1 0.59935556E-01 0.20399270E+03</pdfrwt>
<totfact> 0.43258075E+02</totfact>
</mgrwt>
</event>
<event>
 7    1  0.7800420E-006  0.1382563E+03  0.7546771E-02  0.1226963E+00
          2   -1    0    0  501    0  0.00000000000E+00  0.00000000000E+00  0.13564140649E+03  0.13564140649E+03  0.00000000000E+00 0. -1.
         -2   -1    0    0    0  501 -0.00000000000E+00 -0.00000000000E+00 -0.11294965512E+03  0.11294965512E+03  0.00000000000E+00 0.  1.
         23    2    1    2    0    0 -0.40881160761E+02 -0.40168399522E+02  0.16407173678E+02  0.13922642055E+03  0.12581745191E+03 0.  0.
          5    1    3    3  502    0  0.16064107013E+02  0.37412922331E+02 -0.23983258671E+01  0.41056354666E+02  0.47000000000E+01 0. -1.
         -5    1    3    3    0  502 -0.56945267773E+02 -0.77581321854E+02  0.18805499545E+02  0.98170065883E+02  0.47000000000E+01 0. -1.
        -11    1    1    2    0    0  0.27083148338E+02  0.16087599249E+02 -0.42701088010E+02  0.53063082183E+02  0.00000000000E+00 0.  1.
         11    1    1    2    0    0  0.13798012423E+02  0.24080800273E+02  0.48985665698E+02  0.56301558881E+02  0.00000000000E+00 0. -1.
<mgrwt>
<rscale>  0 0.13033268E+03</rscale>
<asrwt>0</asrwt>
<pdfrwt beam="1">  1        2 0.20867909E-01 0.13825629E+03</pdfrwt>
<pdfrwt beam="2">  1       -2 0.17376870E-01 0.13825629E+03</pdfrwt>
<totfact> 0.67124822E+03</totfact>
</mgrwt>
</event>
<event>
 7    1  0.7800420E-006  0.1462679E+03  0.7546771E-02  0.1215879E+00
          1   -1    0    0  501    0  0.00000000000E+00  0.00000000000E+00  0.10134089599E+04  0.10134089599E+04  0.00000000000E+00 0. -1.
         -1   -1    0    0    0  501 -0.00000000000E+00 -0.00000000000E+00 -0.18941815455E+02  0.18941815455E+02  0.00000000000E+00 0.  1.
         23    2    1    2    0    0 -0.43418349214E+02 -0.62321817780E+02  0.71213875683E+03  0.72700475558E+03  0.12500057454E+03 0.  0.
          5    1    3    3  502    0 -0.50123453947E+02 -0.97011927609E+02  0.57596163902E+03  0.58624020193E+03  0.47000000000E+01 0.  1.
         -5    1    3    3    0  502  0.67051047339E+01  0.34690109829E+02  0.13617711781E+03  0.14076455365E+03  0.47000000000E+01 0.  1.
        -11    1    1    2    0    0  0.69596066331E+02  0.34744325634E+02  0.20244085826E+03  0.21687111773E+03  0.00000000000E+00 0. -1.
         11    1    1    2    0    0 -0.26177717118E+02  0.27577492146E+02  0.79887529402E+02  0.88474902094E+02  0.00000000000E+00 0.  1.
<mgrwt>
<rscale>  0 0.13812157E+03</rscale>
<asrwt>0</asrwt>
<pdfrwt beam="1">  1        1 0.15590903E+00 0.14626792E+03</pdfrwt>
<pdfrwt beam="2">  1       -1 0.29141262E-02 0.14626792E+03</pdfrwt>
<totfact> 0.60080263E+03</totfact>
</mgrwt>
</event>
<event>
 7    1  0.7800420E-006  0.1572015E+03  0.7546771E-02  0.1199951E+00
          3   -1    0    0  501    0  0.00000000000E+00  0.00000000000E+00  0.63203565389E+02  0.63203565389E+02  0.00000000000E+00 0. -1.
         -3   -1    0    0    0  501 -0.00000000000E+00 -0.00000000000E+00 -0.39668073330E+03  0.39668073330E+03  0.00000000000E+00 0.  1.
         23    2    1    2    0    0 -0.59821366535E+02  0.74215840106E+02 -0.85232559861E+02  0.17882087977E+03  0.12500292383E+03 0.  0.
          5    1    3    3  502    0 -0.21608527200E+01 -0.31980520694E+02 -0.29062861921E+01  0.32526289179E+02  0.47000000000E+01 0.  1.
         -5    1    3    3    0  502 -0.57660513815E+02  0.10619636080E+03 -0.82326273669E+02  0.14629459059E+03  0.47000000000E+01 0.  1.
        -11    1    1    2    0    0  0.34795854663E+02 -0.31693644320E+02 -0.26743681767E+02  0.54133752008E+02  0.00000000000E+00 0.  1.
         11    1    1    2    0    0  0.25025511872E+02 -0.42522195786E+02 -0.22150092628E+03  0.22692966691E+03  0.00000000000E+00 0. -1.
<mgrwt>
<rscale>  0 0.15042550E+03</rscale>
<asrwt>0</asrwt>
<pdfrwt beam="1">  1        3 0.97236252E-02 0.15720152E+03</pdfrwt>
<pdfrwt beam="2">  1       -3 0.61027806E-01 0.15720152E+03</pdfrwt>
<totfact> 0.48634975E+02</totfact>
</mgrwt>
</event>
<event>
 7    1  0.7800420E-006  0.1590448E+03  0.7546771E-02  0.1197008E+00
         -2   -1    0    0    0  501 -0.00000000000E+00  0.00000000000E+00  0.31255217798E+02  0.31255217798E+02  0.00000000000E+00 0.  1.
          2   -1    0    0  501    0  0.00000000000E+00 -0.00000000000E+00 -0.70444012060E+03  0.70444012060E+03  0.00000000000E+00 0. -1.
         23    2    1    2    0    0 -0.31044801233E+02  0.93301631562E+02 -0.40569488735E+03  0.43575632943E+03  0.12500505144E+03 0.  0.
          5    1    3    3  502    0 -0.14999888542E+02  0.37116606171E+02 -0.18854508480E+02  0.44499680897E+02  0.47000000000E+01 0.  1.
         -5    1    3    3    0  502 -0.16044912691E+02  0.56185025391E+02 -0.38684037887E+03  0.39125664853E+03  0.47000000000E+01 0.  1.
        -11    1    1    2    0    0  0.23964495959E+02 -0.66528012161E+02 -0.26242566436E+03  0.27178576634E+03  0.00000000000E+00 0. -1.
         11    1    1    2    0    0  0.70803052743E+01 -0.26773619401E+02 -0.50643510997E+01  0.28153242632E+02  0.00000000000E+00 0.  1.
<mgrwt>
<rscale>  0 0.15285464E+03</rscale>
<asrwt>0</asrwt>
<pdfrwt beam="2">  1        2 0.10837542E+00 0.15904476E+03</pdfrwt>
<pdfrwt beam="1">  1       -2 0.48084944E-02 0.15904476E+03</pdfrwt>
<totfact> 0.83857490E+03</totfact>
</mgrwt>
</event>
<event>
 7    1  0.7800420E-006  0.1453583E+03  0.7546771E-02  0.1216196E+00
          2   -1    0    0  501    0  0.00000000000E+00  0.00000000000E+00  0.74493913390E+03  0.74493913390E+03  0.00000000000E+00 0. -1.
         -2   -1    0    0    0  501 -0.00000000000E+00 -0.00000000000E+00 -0.24043796650E+02  0.24043796650E+02  0.00000000000E+00 0.  1.
         23    2    1    2    0    0  0.16103401612E+02  0.72418962274E+02  0.46759438957E+03  0.48966678648E+03  0.12500089195E+03 0.  0.
          5    1    3    3  502    0 -0.54332630598E+02  0.36273468857E+02  0.19043363069E+03  0.20138236514E+03  0.47000000000E+01 0.  1.
         -5    1    3    3    0  502  0.70436032210E+02  0.36145493417E+02  0.27716075888E+03  0.28828442135E+03  0.47000000000E+01 0.  1.
        -11    1    1    2    0    0  0.11813650958E+02 -0.31198273412E+02  0.16275093816E+02  0.37118368654E+02  0.00000000000E+00 0.  1.
         11    1    1    2    0    0 -0.27917052571E+02 -0.41220688862E+02  0.23702585387E+03  0.24219777541E+03  0.00000000000E+00 0. -1.
<mgrwt>
<rscale>  0 0.13789079E+03</rscale>
<asrwt>0</asrwt>
<pdfrwt beam="1">  1        2 0.11460600E+00 0.14535835E+03</pdfrwt>
<pdfrwt beam="2">  1       -2 0.36990462E-02 0.14535835E+03</pdfrwt>
<totfact> 0.11537201E+04</totfact>
</mgrwt>
</event>
<event>
 7    1  0.7800420E-006  0.1536809E+03  0.7546771E-02  0.1205108E+00
         -1   -1    0    0    0  501 -0.00000000000E+00  0.00000000000E+00  0.35427754908E+03  0.35427754908E+03  0.00000000000E+00 0.  1.
          1   -1    0    0  501    0  0.00000000000E+00 -0.00000000000E+00 -0.56138732997E+02  0.56138732997E+02  0.00000000000E+00 0. -1.
         23    2    1    2    0    0 -0.89085915352E+02  0.77946262726E+01  0.13806804425E+03  0.20659285916E+03  0.12498307126E+03 0.  0.
          5    1    3    3  502    0 -0.90303068102E+01 -0.46827387834E+02  0.80750197325E+02  0.93899068475E+02  0.47000000000E+01 0.  1.
         -5    1    3    3    0  502 -0.80055608541E+02  0.54622014107E+02  0.57317846925E+02  0.11269379069E+03  0.47000000000E+01 0.  1.
        -11    1    1    2    0    0  0.88831575183E+02  0.84810612115E+01  0.73133524352E+02  0.11537542864E+03  0.00000000000E+00 0. -1.
         11    1    1    2    0    0  0.25434016881E+00 -0.16275687484E+02  0.86937247478E+02  0.88447994274E+02  0.00000000000E+00 0.  1.
<mgrwt>
<rscale>  0 0.14628924E+03</rscale>
<asrwt>0</asrwt>
<pdfrwt beam="2">  1        1 0.86367284E-02 0.15368092E+03</pdfrwt>
<pdfrwt beam="1">  1       -1 0.54504237E-01 0.15368092E+03</pdfrwt>
<totfact> 0.26605497E+03</totfact>
</mgrwt>
</event>
<event>
 6    1  0.7800420E-006  0.1903081E+03  0.7546771E-02  0.1184101E+00
         -2   -1    0    0    0  501 -0.00000000000E+00  0.00000000000E+00  0.16642077275E+03  0.16642077275E+03  0.00000000000E+00 0.  1.
          2   -1    0    0  501    0  0.00000000000E+00 -0.00000000000E+00 -0.13620822519E+03  0.13620822519E+03  0.00000000000E+00 0. -1.
          5    1    1    2  502    0 -0.94756774249E+02  0.21774131191E+02 -0.11703638751E+02  0.98040931326E+02  0.47000000000E+01 0. -1.
         -5    1    1    2    0  502  0.87981832029E+02  0.27792639107E+02  0.33862737550E+01  0.92448852917E+02  0.47000000000E+01 0.  1.
        -11    1    1    2    0    0  0.67710473523E+01  0.22132844291E+02 -0.10359300664E+02  0.25357937395E+02  0.00000000000E+00 0. -1.
         11    1    1    2    0    0  0.38948677861E-02 -0.71699614589E+02  0.48889213215E+02  0.86781276299E+02  0.00000000000E+00 0.  1.
<mgrwt>
<rscale>  0 0.16413931E+03</rscale>
<asrwt>0</asrwt>
<pdfrwt beam="2">  1        2 0.20955112E-01 0.19030812E+03</pdfrwt>
<pdfrwt beam="1">  1       -2 0.25603196E-01 0.19030812E+03</pdfrwt>
<totfact> 0.35068656E+03</totfact>
</mgrwt>
</event>
<event>
 7    1  0.7800420E-006  0.1382369E+03  0.7546771E-02  0.1227473E+00
          2   -1    0    0  501    0  0.00000000000E+00  0.00000000000E+00  0.19101592702E+03  0.19101592702E+03  0.00000000000E+00 0. -1.
         -2   -1    0    0    0  501 -0.00000000000E+00 -0.00000000000E+00 -0.79700002165E+02  0.79700002165E+02  0.00000000000E+00 0.  1.
         23    2    1    2    0    0  0.31046819744E+02 -0.50203369624E+02  0.70586793647E+02  0.15521578753E+03  0.12500064769E+03 0.  0.
          5    1    3    3  502    0  0.76098988516E+02 -0.18327320196E+02  0.21760831762E+02  0.81379177421E+02  0.47000000000E+01 0.  1.
         -5    1    3    3    0  502 -0.45052168773E+02 -0.31876049429E+02  0.48825961885E+02  0.73836610108E+02  0.47000000000E+01 0.  1.
        -11    1    1    2    0    0 -0.60508032618E+02  0.37386900780E+02  0.43298653246E+02  0.83269296468E+02  0.00000000000E+00 0.  1.
         11    1    1    2    0    0  0.29461212875E+02  0.12816468844E+02 -0.25695220415E+01  0.32230845183E+02  0.00000000000E+00 0. -1.
<mgrwt>
<rscale>  0 0.12998852E+03</rscale>
<asrwt>0</asrwt>
<pdfrwt beam="1">  1        2 0.29387066E-01 0.13823692E+03</pdfrwt>
<pdfrwt beam="2">  1       -2 0.12261539E-01 0.13823692E+03</pdfrwt>
<totfact> 0.81184308E+03</totfact>
</mgrwt>
</event>
<event>
 7    1  0.7800420E-006  0.2633083E+03  0.7546771E-02  0.1107186E+00
         -2   -1    0    0    0  501 -0.00000000000E+00  0.00000000000E+00  0.29692132961E+02  0.29692132961E+02  0.00000000000E+00 0.  1.
          2   -1    0    0  501    0  0.00000000000E+00 -0.00000000000E+00 -0.22301232681E+04  0.22301232681E+04  0.00000000000E+00 0. -1.
         23    2    1    2    0    0 -0.14316901567E+03  0.18223191067E+03 -0.12087114415E+04  0.12370588557E+04  0.12500170888E+03 0.  0.
          5    1    3    3  502    0 -0.15683034569E+02  0.11860270548E+03 -0.49795037512E+03  0.51214180204E+03  0.47000000000E+01 0. -1.
         -5    1    3    3    0  502 -0.12748598110E+03  0.63629205190E+02 -0.71076106639E+03  0.72491705362E+03  0.47000000000E+01 0. -1.
        -11    1    1    2    0    0  0.97480869098E+02 -0.10611481010E+03 -0.77966935002E+03  0.79287273135E+03  0.00000000000E+00 0. -1.
         11    1    1    2    0    0  0.45688146571E+02 -0.76117100566E+02 -0.21205034363E+03  0.22988381407E+03  0.00000000000E+00 0.  1.
<mgrwt>
<rscale>  0 0.25992820E+03</rscale>
<asrwt>0</asrwt>
<pdfrwt beam="2">  1        2 0.34309599E+00 0.26330831E+03</pdfrwt>
<pdfrwt beam="1">  1       -2 0.45680191E-02 0.26330831E+03</pdfrwt>
<totfact> 0.12618721E+03</totfact>
</mgrwt>
</event>
<event>
 6    1  0.7800420E-006  0.1480203E+03  0.7546771E-02  0.1217400E+00
          2   -1    0    0  501    0  0.00000000000E+00  0.00000000000E+00  0.12759833377E+04  0.12759833377E+04  0.00000000000E+00 0. -1.
         -2   -1    0    0    0  501 -0.00000000000E+00 -0.00000000000E+00 -0.15719479984E+02  0.15719479984E+02  0.00000000000E+00 0.  1.
          5    1    1    2  502    0  0.76846787853E+02 -0.63691609648E+02  0.54129645045E+03  0.55044162925E+03  0.47000000000E+01 0. -1.
         -5    1    1    2    0  502 -0.26807298561E+02  0.31510643292E+02  0.43854352637E+03  0.44051568238E+03  0.47000000000E+01 0.  1.
        -11    1    1    2    0    0 -0.46658666567E+02  0.61738633708E+02  0.17814223207E+03  0.19422498528E+03  0.00000000000E+00 0.  1.
         11    1    1    2    0    0 -0.33808227246E+01 -0.29557667352E+02  0.10228164884E+03  0.10652052080E+03  0.00000000000E+00 0. -1.
<mgrwt>
<rscale>  0 0.13701674E+03</rscale>
<asrwt>0</asrwt>
<pdfrwt beam="1">  1        2 0.19630505E+00 0.14802031E+03</pdfrwt>
<pdfrwt beam="2">  1       -2 0.24183825E-02 0.14802031E+03</pdfrwt>
<totfact> 0.10291691E+04</totfact>
</mgrwt>
</event>
<event>
 7    1  0.7800420E-006  0.1347315E+03  0.7546771E-02  0.1232909E+00
         -1   -1    0    0    0  501 -0.00000000000E+00  0.00000000000E+00  0.12695884283E+03  0.12695884283E+03  0.00000000000E+00 0.  1.
          1   -1    0    0  501    0  0.00000000000E+00 -0.00000000000E+00 -0.11420885307E+03  0.11420885307E+03  0.00000000000E+00 0. -1.
         23    2    1    2    0    0  0.50752099224E+01 -0.49891842036E+02  0.21581972755E+02  0.13644907970E+03  0.12505045440E+03 0.  0.
          5    1    3    3  502    0 -0.23850371554E+02 -0.47252396127E+02 -0.41117416146E+02  0.67188995182E+02  0.47000000000E+01 0. -1.
         -5    1    3    3    0  502  0.28925581477E+02 -0.26394459087E+01  0.62699388902E+02  0.69260084516E+02  0.47000000000E+01 0. -1.
        -11    1    1    2    0    0 -0.32682546510E+02  0.44260189413E+02  0.25217530508E+02  0.60523029156E+02  0.00000000000E+00 0.  1.
         11    1    1    2    0    0  0.27607336588E+02  0.56316526227E+01 -0.34049513502E+02  0.44195587048E+02  0.00000000000E+00 0. -1.
<mgrwt>
<rscale>  0 0.12639219E+03</rscale>
<asrwt>0</asrwt>
<pdfrwt beam="2">  1        1 0.17570593E-01 0.13473147E+03</pdfrwt>
<pdfrwt beam="1">  1       -1 0.19532130E-01 0.13473147E+03</pdfrwt>
<totfact> 0.60246410E+03</totfact>
</mgrwt>
</event>
<event>
 7    1  0.7800420E-006  0.1656815E+03  0.7546771E-02  0.1190130E+00
         -2   -1    0    0    0  501 -0.00000000000E+00  0.00000000000E+00  0.44674474617E+02  0.44674474617E+02  0.00000000000E+00 0.  1.
          2   -1    0    0  501    0  0.00000000000E+00 -0.00000000000E+00 -0.53575240510E+03  0.53575240510E+03  0.00000000000E+00 0. -1.
         23    2    1    2    0    0  0.87288503494E+02 -0.64884902943E+02 -0.31306050273E+03  0.35419942192E+03  0.12498407359E+03 0.  0.
          5    1    3    3  502    0  0.21488751749E+02  0.42508586874E-02  0.53316325235E+01  0.22633664642E+02  0.47000000000E+01 0.  1.
         -5    1    3    3    0  502  0.65799751745E+02 -0.64889153801E+02 -0.31839213525E+03  0.33156575728E+03  0.47000000000E+01 0.  1.
        -11    1    1    2    0    0 -0.47926364271E+02  0.74940115832E+02 -0.78130586066E+02  0.11839487249E+03  0.00000000000E+00 0.  1.
         11    1    1    2    0    0 -0.39362139223E+02 -0.10055212890E+02 -0.99886841690E+02  0.10783258530E+03  0.00000000000E+00 0. -1.
<mgrwt>
<rscale>  0 0.15873702E+03</rscale>
<asrwt>0</asrwt>
<pdfrwt beam="2">  1        2 0.82423451E-01 0.16568148E+03</pdfrwt>
<pdfrwt beam="1">  1       -2 0.68729958E-02 0.16568148E+03</pdfrwt>
<totfact> 0.66986897E+03</totfact>
</mgrwt>
</event>
<event>
 7    1  0.7800420E-006  0.1316602E+03  0.7546771E-02  0.1233760E+00
         -1   -1    0    0    0  501 -0.00000000000E+00  0.00000000000E+00  0.59572737443E+03  0.59572737443E+03  0.00000000000E+00 0.  1.
          1   -1    0    0  501    0  0.00000000000E+00 -0.00000000000E+00 -0.29921549686E+02  0.29921549686E+02  0.00000000000E+00 0. -1.
         23    2    1    2    0    0  0.35708243356E+02  0.20848899942E+02  0.17086309096E+03  0.21570491014E+03  0.12499862853E+03 0.  0.
          5    1    3    3  502    0 -0.13002834334E+02 -0.42141527160E+01  0.15874715130E+03  0.15940382941E+03  0.47000000000E+01 0.  1.
         -5    1    3    3    0  502  0.48711077690E+02  0.25063052658E+02  0.12115939662E+02  0.56301080737E+02  0.47000000000E+01 0.  1.
        -11    1    1    2    0    0 -0.63933891069E+02 -0.38220861971E+02  0.23199155436E+03  0.24365643437E+03  0.00000000000E+00 0. -1.
         11    1    1    2    0    0  0.28225647713E+02  0.17371962029E+02  0.16295117942E+03  0.16628757960E+03  0.00000000000E+00 0.  1.
<mgrwt>
<rscale>  0 0.12584148E+03</rscale>
<asrwt>0</asrwt>
<pdfrwt beam="2">  1        1 0.46033158E-02 0.13166022E+03</pdfrwt>
<pdfrwt beam="1">  1       -1 0.91650357E-01 0.13166022E+03</pdfrwt>
<totfact> 0.22082455E+03</totfact>
</mgrwt>
</event>
<event>
 7    1  0.7800420E-006  0.1272909E+03  0.7546771E-02  0.1232120E+00
         -2   -1    0    0    0  501 -0.00000000000E+00  0.00000000000E+00  0.12836217366E+02  0.12836217366E+02  0.00000000000E+00 0.  1.
          2   -1    0    0  501    0  0.00000000000E+00 -0.00000000000E+00 -0.12913572421E+04  0.12913572421E+04  0.00000000000E+00 0. -1.
         23    2    1    2    0    0 -0.21822876849E+02  0.99933368063E+01 -0.76365916095E+03  0.77419524459E+03  0.12500743138E+03 0.  0.
          5    1    3    3  502    0 -0.69248352661E+02  0.25558878285E+02 -0.36690062111E+03  0.37428164044E+03  0.47000000000E+01 0. -1.
         -5    1    3    3    0  502  0.47425475813E+02 -0.15565541479E+02 -0.39675853985E+03  0.39991360414E+03  0.47000000000E+01 0. -1.
        -11    1    1    2    0    0 -0.36868813738E+02  0.33158845636E+02 -0.15158656927E+03  0.15949077231E+03  0.00000000000E+00 0.  1.
         11    1    1    2    0    0  0.58691690587E+02 -0.43152182442E+02 -0.36327529451E+03  0.37050744256E+03  0.00000000000E+00 0. -1.
<mgrwt>
<rscale>  0 0.12690620E+03</rscale>
<asrwt>0</asrwt>
<pdfrwt beam="2">  1        2 0.19867042E+00 0.12729086E+03</pdfrwt>
<pdfrwt beam="1">  1       -2 0.19748020E-02 0.12729086E+03</pdfrwt>
<totfact> 0.13455039E+04</totfact>
</mgrwt>
</event>
<event>
 7    1  0.7800420E-006  0.1703712E+03  0.7546771E-02  0.1184875E+00
         -1   -1    0    0    0  501 -0.00000000000E+00  0.00000000000E+00  0.61051015031E+02  0.61051015031E+02  0.00000000000E+00 0.  1.
          1   -1    0    0  501    0  0.00000000000E+00 -0.00000000000E+00 -0.51932535742E+03  0.51932535742E+03  0.00000000000E+00 0. -1.
         23    2    1    2    0    0  0.10220234191E+03  0.54357274304E+02 -0.37953433650E+03  0.41602002465E+03  0.12500526535E+03 0.  0.
          5    1    3    3  502    0  0.11902633123E+03  0.66344651838E+02 -0.25000120634E+03  0.28476582225E+03  0.47000000000E+01 0.  1.
         -5    1    3    3    0  502 -0.16823989321E+02 -0.11987377535E+02 -0.12953313016E+03  0.13125420239E+03  0.47000000000E+01 0.  1.
        -11    1    1    2    0    0 -0.70572126948E+02  0.40940135740E+01 -0.14988118361E+02  0.72262229008E+02  0.00000000000E+00 0.  1.
         11    1    1    2    0    0 -0.31630214960E+02 -0.58451287878E+02 -0.63751887528E+02  0.92094118793E+02  0.00000000000E+00 0. -1.
<mgrwt>
<rscale>  0 0.16343273E+03</rscale>
<asrwt>0</asrwt>
<pdfrwt beam="2">  1        1 0.79896208E-01 0.17037121E+03</pdfrwt>
<pdfrwt beam="1">  1       -1 0.93924639E-02 0.17037121E+03</pdfrwt>
<totfact> 0.28353378E+03</totfact>
</mgrwt>
</event>
<event>
 7    1  0.7800420E-006  0.1527246E+03  0.7546771E-02  0.1205520E+00
         -2   -1    0    0    0  501 -0.00000000000E+00  0.00000000000E+00  0.17951438991E+02  0.17951438991E+02  0.00000000000E+00 0.  1.
          2   -1    0    0  501    0  0.00000000000E+00 -0.00000000000E+00 -0.17037301954E+04  0.17037301954E+04  0.00000000000E+00 0. -1.
         23    2    1    2    0    0 -0.43441896436E+02  0.76234926229E+02 -0.14057438821E+04  0.14140157889E+04  0.12500330789E+03 0.  0.
          5    1    3    3  502    0  0.12059066354E+01  0.22430933213E+02 -0.11041383952E+04  0.11043768772E+04  0.47000000000E+01 0.  1.
         -5    1    3    3    0  502 -0.44647803072E+02  0.53803993016E+02 -0.30160548683E+03  0.30963891175E+03  0.47000000000E+01 0.  1.
        -11    1    1    2    0    0  0.70632870029E+02 -0.51329544500E+02 -0.16235552252E+03  0.18434489458E+03  0.00000000000E+00 0.  1.
         11    1    1    2    0    0 -0.27190973592E+02 -0.24905381729E+02 -0.11767935184E+03  0.12332095091E+03  0.00000000000E+00 0. -1.
<mgrwt>
<rscale>  0 0.14596566E+03</rscale>
<asrwt>0</asrwt>
<pdfrwt beam="2">  1        2 0.26211236E+00 0.15272455E+03</pdfrwt>
<pdfrwt beam="1">  1       -2 0.27617596E-02 0.15272455E+03</pdfrwt>
<totfact> 0.50522862E+03</totfact>
</mgrwt>
</event>
<event>
 7    1  0.7800420E-006  0.2068106E+03  0.7546771E-02  0.1147912E+00
         -2   -1    0    0    0  501 -0.00000000000E+00  0.00000000000E+00  0.89619071379E+02  0.89619071379E+02  0.00000000000E+00 0.  1.
          2   -1    0    0  501    0  0.00000000000E+00 -0.00000000000E+00 -0.44789317999E+03  0.44789317999E+03  0.00000000000E+00 0. -1.
         23    2    1    2    0    0  0.16032183729E+03 -0.37986781845E+02 -0.22926184570E+03  0.30875821932E+03  0.12499822796E+03 0.  0.
          5    1    3    3  502    0  0.10663026685E+03 -0.76422334892E+02 -0.10553076057E+03  0.16843164342E+03  0.47000000000E+01 0.  1.
         -5    1    3    3    0  502  0.53691570438E+02  0.38435553047E+02 -0.12373108514E+03  0.14032657590E+03  0.47000000000E+01 0.  1.
        -11    1    1    2    0    0 -0.15234562746E+03  0.31060150429E+02 -0.73017699764E+02  0.17177167296E+03  0.00000000000E+00 0.  1.
         11    1    1    2    0    0 -0.79762098298E+01  0.69266314153E+01 -0.55994563149E+02  0.56982359097E+02  0.00000000000E+00 0. -1.
<mgrwt>
<rscale>  0 0.20218048E+03</rscale>
<asrwt>0</asrwt>
<pdfrwt beam="2">  1        2 0.68906643E-01 0.20681065E+03</pdfrwt>
<pdfrwt beam="1">  1       -2 0.13787549E-01 0.20681065E+03</pdfrwt>
<totfact> 0.27421420E+03</totfact>
</mgrwt>
</event>
<event>
 7    1  0.1101202E-005  0.1849883E+03  0.7546771E-02  0.1168440E+00
          3   -1    0    0  501    0  0.00000000000E+00  0.00000000000E+00  0.17088889007E+03  0.17088889007E+03  0.00000000000E+00 0. -1.
         -3   -1    0    0    0  501 -0.00000000000E+00 -0.00000000000E+00 -0.20481526605E+03  0.20481526605E+03  0.00000000000E+00 0.  1.
         23    2    1    2    0    0 -0.13508277842E+03 -0.18637434628E+02  0.50508646692E+02  0.19175974872E+03  0.12500386731E+03 0.  0.
          5    1    3    3  502    0  0.24710635829E+01  0.26276742271E+02 -0.17283728122E+02  0.31896560903E+02  0.47000000000E+01 0.  1.
         -5    1    3    3    0  502 -0.13755384200E+03 -0.44914176899E+02  0.67792374814E+02  0.15986318782E+03  0.47000000000E+01 0.  1.
        -11    1    1    2    0    0  0.77056125981E+01  0.34192672084E+02 -0.16319259823E+02  0.38663077101E+02  0.00000000000E+00 0.  1.
         11    1    1    2    0    0  0.12737716582E+03 -0.15555237456E+02 -0.68115762846E+02  0.14528133030E+03  0.00000000000E+00 0. -1.
<mgrwt>
<rscale>  0 0.17934319E+03</rscale>
<asrwt>0</asrwt>
<pdfrwt beam="1">  1        3 0.26290598E-01 0.18498832E+03</pdfrwt>
<pdfrwt beam="2">  1       -3 0.31510041E-01 0.18498832E+03</pdfrwt>
<totfact> 0.32476691E+02</totfact>
</mgrwt>
</event>
<event>
 7    1  0.7800420E-006  0.1300752E+03  0.7546771E-02  0.1241703E+00
         -1   -1    0    0    0  501 -0.00000000000E+00  0.00000000000E+00  0.59027440392E+02  0.59027440392E+02  0.00000000000E+00 0.  1.
          1   -1    0    0  501    0  0.00000000000E+00 -0.00000000000E+00 -0.23794072905E+03  0.23794072905E+03  0.00000000000E+00 0. -1.
         23    2    1    2    0    0  0.34347369039E+02  0.10716799871E+02 -0.14376885286E+03  0.19387894212E+03  0.12499987834E+03 0.  0.
          5    1    3    3  502    0  0.22746552631E+01 -0.54253766123E+02 -0.41735717204E+02  0.68648417940E+02  0.47000000000E+01 0. -1.
         -5    1    3    3    0  502  0.32072713776E+02  0.64970565995E+02 -0.10203313566E+03  0.12523052418E+03  0.47000000000E+01 0. -1.
        -11    1    1    2    0    0 -0.23638853706E+02  0.31587678590E+01 -0.64573116198E+02  0.68836476917E+02  0.00000000000E+00 0. -1.
         11    1    1    2    0    0 -0.10708515333E+02 -0.13875567730E+02  0.29428680398E+02  0.34252750407E+02  0.00000000000E+00 0.  1.
<mgrwt>
<rscale>  0 0.12084875E+03</rscale>
<asrwt>0</asrwt>
<pdfrwt beam="2">  1        1 0.36606265E-01 0.13007521E+03</pdfrwt>
<pdfrwt beam="1">  1       -1 0.90811448E-02 0.13007521E+03</pdfrwt>
<totfact> 0.78708212E+03</totfact>
</mgrwt>
</event>
<event>
 7    1  0.7800420E-006  0.1664394E+03  0.7546771E-02  0.1188675E+00
          2   -1    0    0  501    0  0.00000000000E+00  0.00000000000E+00  0.29717687165E+02  0.29717687165E+02  0.00000000000E+00 0. -1.
         -2   -1    0    0    0  501 -0.00000000000E+00 -0.00000000000E+00 -0.80775654367E+03  0.80775654367E+03  0.00000000000E+00 0.  1.
         23    2    1    2    0    0 -0.93779354364E+02  0.57283499068E+02 -0.38227944125E+03  0.41694080335E+03  0.12500438284E+03 0.  0.
          5    1    3    3  502    0  0.14102425460E+02  0.50549612213E+02 -0.79171685775E+02  0.95101984876E+02  0.47000000000E+01 0.  1.
         -5    1    3    3    0  502 -0.10788177982E+03  0.67338868544E+01 -0.30310775547E+03  0.32183881847E+03  0.47000000000E+01 0.  1.
        -11    1    1    2    0    0  0.68900782114E+02 -0.65987742495E+01 -0.31155914448E+03  0.31915507533E+03  0.00000000000E+00 0.  1.
         11    1    1    2    0    0  0.24878572250E+02 -0.50684724818E+02 -0.84200270779E+02  0.10137835216E+03  0.00000000000E+00 0. -1.
<mgrwt>
<rscale>  0 0.16001929E+03</rscale>
<asrwt>0</asrwt>
<pdfrwt beam="1">  1        2 0.45719516E-02 0.16643937E+03</pdfrwt>
<pdfrwt beam="2">  1       -2 0.12427025E+00 0.16643937E+03</pdfrwt>
<totfact> 0.88549824E+02</totfact>
</mgrwt>
</event>
<event>
 7    1  0.7800420E-006  0.1303349E+03  0.7546771E-02  0.1241478E+00
         -1   -1    0    0    0  501 -0.00000000000E+00  0.00000000000E+00  0.12502051420E+02  0.12502051420E+02  0.00000000000E+00 0.  1.
          1   -1    0    0  501    0  0.00000000000E+00 -0.00000000000E+00 -0.10722428326E+04  0.10722428326E+04  0.00000000000E+00 0. -1.
         23    2    1    2    0    0  0.26539995582E+02  0.25650390172E+02 -0.70989924280E+03  0.72176459145E+03  0.12499950660E+03 0.  0.
          5    1    3    3  502    0 -0.19203337077E+02  0.35303334448E+02 -0.75769251156E+02  0.85896233903E+02  0.47000000000E+01 0. -1.
         -5    1    3    3    0  502  0.45743332659E+02 -0.96529442757E+01 -0.63412999165E+03  0.63586835754E+03  0.47000000000E+01 0. -1.
        -11    1    1    2    0    0 -0.18001780286E+02 -0.49980945115E+02 -0.31600199019E+03  0.32043629128E+03  0.00000000000E+00 0. -1.
         11    1    1    2    0    0 -0.85382152952E+01  0.24330554943E+02 -0.33839548178E+02  0.42544001282E+02  0.00000000000E+00 0.  1.
<mgrwt>
<rscale>  0 0.12098666E+03</rscale>
<asrwt>0</asrwt>
<pdfrwt beam="2">  1        1 0.16496049E+00 0.13033492E+03</pdfrwt>
<pdfrwt beam="1">  1       -1 0.19233919E-02 0.13033492E+03</pdfrwt>
<totfact> 0.98916446E+03</totfact>
</mgrwt>
</event>
<event>
 7    1  0.7800420E-006  0.1636780E+03  0.7546771E-02  0.1193078E+00
         -4   -1    0    0    0  501 -0.00000000000E+00  0.00000000000E+00  0.13430770599E+03  0.13430770599E+03  0.00000000000E+00 0.  1.
          4   -1    0    0  501    0  0.00000000000E+00 -0.00000000000E+00 -0.16802174242E+03  0.16802174242E+03  0.00000000000E+00 0. -1.
         23    2    1    2    0    0 -0.10276929251E+03  0.24467625967E+02 -0.31180405121E+02  0.16662143609E+03  0.12502117060E+03 0.  0.
          5    1    3    3  502    0 -0.12202474566E+03  0.48486071941E+02 -0.32859233502E+02  0.13543543462E+03  0.47000000000E+01 0.  1.
         -5    1    3    3    0  502  0.19255453146E+02 -0.24018445974E+02  0.16788283810E+01  0.31186001468E+02  0.47000000000E+01 0.  1.
        -11    1    1    2    0    0  0.41421865168E-01 -0.29721501669E+02 -0.12747775765E+02  0.32339993262E+02  0.00000000000E+00 0. -1.
         11    1    1    2    0    0  0.10272787065E+03  0.52538757013E+01  0.10214144453E+02  0.10336801906E+03  0.00000000000E+00 0.  1.
<mgrwt>
<rscale>  0 0.15617991E+03</rscale>
<asrwt>0</asrwt>
<pdfrwt beam="2">  1        4 0.25849499E-01 0.16367799E+03</pdfrwt>
<pdfrwt beam="1">  1       -4 0.20662724E-01 0.16367799E+03</pdfrwt>
<totfact> 0.51438432E+02</totfact>
</mgrwt>
</event>
<event>
 7    1  0.7800420E-006  0.1314537E+03  0.7546771E-02  0.1238883E+00
          2   -1    0    0  501    0  0.00000000000E+00  0.00000000000E+00  0.22394955994E+02  0.22394955994E+02  0.00000000000E+00 0. -1.
         -2   -1    0    0    0  501 -0.00000000000E+00 -0.00000000000E+00 -0.64190506414E+03  0.64190506414E+03  0.00000000000E+00 0.  1.
         23    2    1    2    0    0  0.40625995537E+02 -0.16588562214E+01 -0.26067694011E+03  0.29194613956E+03  0.12500743170E+03 0.  0.
          5    1    3    3  502    0  0.12984461720E+02 -0.56410071416E+02 -0.18782243603E+03  0.19659615937E+03  0.47000000000E+01 0. -1.
         -5    1    3    3    0  502  0.27641533817E+02  0.54751215195E+02 -0.72854504079E+02  0.95349980187E+02  0.47000000000E+01 0. -1.
        -11    1    1    2    0    0  0.16468068835E+02 -0.51766206963E+01 -0.12583700837E+02  0.21362214766E+02  0.00000000000E+00 0. -1.
         11    1    1    2    0    0 -0.57094064372E+02  0.68354769177E+01 -0.34624946720E+03  0.35099166581E+03  0.00000000000E+00 0.  1.
<mgrwt>
<rscale>  0 0.12259088E+03</rscale>
<asrwt>0</asrwt>
<pdfrwt beam="1">  1        2 0.34453779E-02 0.13145372E+03</pdfrwt>
<pdfrwt beam="2">  1       -2 0.98754624E-01 0.13145372E+03</pdfrwt>
<totfact> 0.21897460E+03</totfact>
</mgrwt>
</event>
<event>
 7    1  0.7800420E-006  0.2023138E+03  0.7546771E-02  0.1151894E+00
          1   -1    0    0  501    0  0.00000000000E+00  0.00000000000E+00  0.92279614274E+03  0.92279614274E+03  0.00000000000E+00 0. -1.
         -1   -1    0    0    0  501 -0.00000000000E+00 -0.00000000000E+00 -0.41233814072E+02  0.41233814072E+02  0.00000000000E+00 0.  1.
         23    2    1    2    0    0  0.15455097423E+03  0.37625437675E+02  0.53220129720E+03  0.56935849600E+03  0.12501679502E+03 0.  0.
          5    1    3    3  502    0  0.15679760148E+02 -0.39742539568E+02  0.10110478974E+03  0.10986169868E+03  0.47000000000E+01 0.  1.
         -5    1    3    3    0  502  0.13887121408E+03  0.77367977243E+02  0.43109650746E+03  0.45949679732E+03  0.47000000000E+01 0.  1.
        -11    1    1    2    0    0 -0.73371368720E+02  0.27015841682E+02  0.12441671073E+03  0.14694465407E+03  0.00000000000E+00 0.  1.
         11    1    1    2    0    0 -0.81179605505E+02 -0.64641279357E+02  0.22494432074E+03  0.24772680674E+03  0.00000000000E+00 0. -1.
<mgrwt>
<rscale>  0 0.19746626E+03</rscale>
<asrwt>0</asrwt>
<pdfrwt beam="1">  1        1 0.14196862E+00 0.20231381E+03</pdfrwt>
<pdfrwt beam="2">  1       -1 0.63436644E-02 0.20231381E+03</pdfrwt>
<totfact> 0.22397667E+03</totfact>
</mgrwt>
</event>
<event>
 7    1  0.7800420E-006  0.2275600E+03  0.7546771E-02  0.1131664E+00
          1   -1    0    0  501    0  0.00000000000E+00  0.00000000000E+00  0.54670061005E+03  0.54670061005E+03  0.00000000000E+00 0. -1.
         -1   -1    0    0    0  501 -0.00000000000E+00 -0.00000000000E+00 -0.90026330096E+02  0.90026330096E+02  0.00000000000E+00 0.  1.
         23    2    1    2    0    0  0.56367436248E+02  0.18160221065E+03  0.29059629237E+03  0.36909318335E+03  0.12500768807E+03 0.  0.
          5    1    3    3  502    0  0.47548696653E+02  0.72738911849E+01  0.35540215759E+02  0.59991540925E+02  0.47000000000E+01 0. -1.
         -5    1    3    3    0  502  0.88187395948E+01  0.17432831947E+03  0.25505607661E+03  0.30910164243E+03  0.47000000000E+01 0. -1.
        -11    1    1    2    0    0 -0.74910871017E+02 -0.13313685857E+03  0.95963050694E+02  0.18040501325E+03  0.00000000000E+00 0.  1.
         11    1    1    2    0    0  0.18543434769E+02 -0.48465352080E+02  0.70114936894E+02  0.87228743547E+02  0.00000000000E+00 0. -1.
<mgrwt>
<rscale>  0 0.22300275E+03</rscale>
<asrwt>0</asrwt>
<pdfrwt beam="1">  1        1 0.84107784E-01 0.22756004E+03</pdfrwt>
<pdfrwt beam="2">  1       -1 0.13850205E-01 0.22756004E+03</pdfrwt>
<totfact> 0.14575162E+03</totfact>
</mgrwt>
</event>
<event>
 7    1  0.7800420E-006  0.2065518E+03  0.7546771E-02  0.1148353E+00
         -1   -1    0    0    0  501 -0.00000000000E+00  0.00000000000E+00  0.72956364441E+02  0.72956364441E+02  0.00000000000E+00 0.  1.
          1   -1    0    0  501    0  0.00000000000E+00 -0.00000000000E+00 -0.54684876007E+03  0.54684876007E+03  0.00000000000E+00 0. -1.
         23    2    1    2    0    0 -0.15421257694E+03  0.57092790081E+02 -0.29822363631E+03  0.36276849765E+03  0.12499015989E+03 0.  0.
          5    1    3    3  502    0  0.59202647318E+01  0.23990077317E+02 -0.11248292130E+03  0.11526088204E+03  0.47000000000E+01 0.  1.
         -5    1    3    3    0  502 -0.16013284167E+03  0.33102712763E+02 -0.18574071500E+03  0.24750761561E+03  0.47000000000E+01 0.  1.
        -11    1    1    2    0    0  0.88355630586E+02 -0.17792910922E+01 -0.41412392426E+02  0.97595438313E+02  0.00000000000E+00 0.  1.
         11    1    1    2    0    0  0.65856946353E+02 -0.55313498988E+02 -0.13425636689E+03  0.15944118854E+03  0.00000000000E+00 0. -1.
<mgrwt>
<rscale>  0 0.20165193E+03</rscale>
<asrwt>0</asrwt>
<pdfrwt beam="2">  1        1 0.84130577E-01 0.20655180E+03</pdfrwt>
<pdfrwt beam="1">  1       -1 0.11224056E-01 0.20655180E+03</pdfrwt>
<totfact> 0.20213062E+03</totfact>
</mgrwt>
</event>
<event>
 7    1  0.7800420E-006  0.1275411E+03  0.7546771E-02  0.1242442E+00
         -2   -1    0    0    0  501 -0.00000000000E+00  0.00000000000E+00  0.61151603774E+02  0.61151603774E+02  0.00000000000E+00 0.  1.
          2   -1    0    0  501    0  0.00000000000E+00 -0.00000000000E+00 -0.21424022663E+03  0.21424022663E+03  0.00000000000E+00 0. -1.
         23    2    1    2    0    0  0.36813778962E+01  0.44497545166E+02 -0.89341403385E+02  0.15571968816E+03  0.11947029276E+03 0.  0.
          5    1    3    3  502    0  0.51520216272E+02  0.53615365280E+01 -0.76357308144E+02  0.92388350270E+02  0.47000000000E+01 0. -1.
         -5    1    3    3    0  502 -0.47838838376E+02  0.39136008638E+02 -0.12984095241E+02  0.63331337887E+02  0.47000000000E+01 0.  1.
        -11    1    1    2    0    0  0.29886298734E+02 -0.21336447232E+02 -0.69383721028E+02  0.78501818936E+02  0.00000000000E+00 0.  1.
         11    1    1    2    0    0 -0.33567676630E+02 -0.23161097934E+02  0.56365015565E+01  0.41170323313E+02  0.00000000000E+00 0. -1.
<mgrwt>
<rscale>  0 0.12039792E+03</rscale>
<asrwt>0</asrwt>
<pdfrwt beam="2">  1        2 0.32960035E-01 0.12754111E+03</pdfrwt>
<pdfrwt beam="1">  1       -2 0.94079391E-02 0.12754111E+03</pdfrwt>
<totfact> 0.10834775E+04</totfact>
</mgrwt>
</event>
<event>
 7    1  0.7800420E-006  0.1426912E+03  0.7546771E-02  0.1220146E+00
         -1   -1    0    0    0  501 -0.00000000000E+00  0.00000000000E+00  0.36139641489E+02  0.36139641489E+02  0.00000000000E+00 0.  1.
          1   -1    0    0  501    0  0.00000000000E+00 -0.00000000000E+00 -0.45908505143E+03  0.45908505143E+03  0.00000000000E+00 0. -1.
         23    2    1    2    0    0 -0.10714589473E+02 -0.67986553627E+02 -0.24862810845E+03  0.28666481295E+03  0.12499521899E+03 0.  0.
          5    1    3    3  502    0 -0.17253891319E+02 -0.49608831531E+02 -0.25883568743E+03  0.26415286487E+03  0.47000000000E+01 0.  1.
         -5    1    3    3    0  502  0.65393018461E+01 -0.18377722096E+02  0.10207578974E+02  0.22511948085E+02  0.47000000000E+01 0.  1.
        -11    1    1    2    0    0  0.33788177474E+02  0.66522695287E+01 -0.11543103222E+03  0.12045836138E+03  0.00000000000E+00 0. -1.
         11    1    1    2    0    0 -0.23073588000E+02  0.61334284098E+02 -0.58886269264E+02  0.88101518585E+02  0.00000000000E+00 0.  1.
<mgrwt>
<rscale>  0 0.13505204E+03</rscale>
<asrwt>0</asrwt>
<pdfrwt beam="2">  1        1 0.70628472E-01 0.14269120E+03</pdfrwt>
<pdfrwt beam="1">  1       -1 0.55599447E-02 0.14269120E+03</pdfrwt>
<totfact> 0.72788934E+03</totfact>
</mgrwt>
</event>
<event>
 7    1  0.7800420E-006  0.1627915E+03  0.7546771E-02  0.1193295E+00
          2   -1    0    0  501    0  0.00000000000E+00  0.00000000000E+00  0.52725496798E+02  0.52725496798E+02  0.00000000000E+00 0. -1.
         -2   -1    0    0    0  501 -0.00000000000E+00 -0.00000000000E+00 -0.43128206783E+03  0.43128206783E+03  0.00000000000E+00 0.  1.
         23    2    1    2    0    0  0.97068886306E+02 -0.38326967970E+02 -0.18086922496E+03  0.24334078106E+03  0.12493892119E+03 0.  0.
          5    1    3    3  502    0  0.98733244656E+02  0.93775829350E+01 -0.16545536198E+03  0.19296051272E+03  0.47000000000E+01 0.  1.
         -5    1    3    3    0  502 -0.16643583504E+01 -0.47704550905E+02 -0.15413862978E+02  0.50380268337E+02  0.47000000000E+01 0.  1.
        -11    1    1    2    0    0 -0.23072454739E+02  0.16778341958E+02 -0.14385770553E+03  0.14665909575E+03  0.00000000000E+00 0.  1.
         11    1    1    2    0    0 -0.73996431567E+02  0.21548626012E+02 -0.53829640546E+02  0.94007687818E+02  0.00000000000E+00 0. -1.
<mgrwt>
<rscale>  0 0.15599456E+03</rscale>
<asrwt>0</asrwt>
<pdfrwt beam="1">  1        2 0.81116146E-02 0.16279146E+03</pdfrwt>
<pdfrwt beam="2">  1       -2 0.66351090E-01 0.16279146E+03</pdfrwt>
<totfact> 0.17435789E+03</totfact>
</mgrwt>
</event>
<event>
 7    1  0.7800420E-006  0.1378518E+03  0.7546771E-02  0.1225093E+00
         -1   -1    0    0    0  501 -0.00000000000E+00  0.00000000000E+00  0.29524892998E+02  0.29524892998E+02  0.00000000000E+00 0.  1.
          1   -1    0    0  501    0  0.00000000000E+00 -0.00000000000E+00 -0.72806738397E+03  0.72806738397E+03  0.00000000000E+00 0. -1.
         23    2    1    2    0    0 -0.15215621246E+02  0.56098077581E+02 -0.56547789115E+03  0.58203810463E+03  0.12499840169E+03 0.  0.
          5    1    3    3  502    0  0.39489261469E+02  0.69213419532E+02 -0.37337444848E+03  0.38181208466E+03  0.47000000000E+01 0. -1.
         -5    1    3    3    0  502 -0.54704882715E+02 -0.13115341951E+02 -0.19210344266E+03  0.20022601996E+03  0.47000000000E+01 0. -1.
        -11    1    1    2    0    0 -0.59289626118E+01 -0.46136603223E+02 -0.14283669584E+03  0.15022004005E+03  0.00000000000E+00 0. -1.
         11    1    1    2    0    0  0.21144583858E+02 -0.99614743577E+01  0.97720960209E+01  0.25334132283E+02  0.00000000000E+00 0.  1.
<mgrwt>
<rscale>  0 0.13160499E+03</rscale>
<asrwt>0</asrwt>
<pdfrwt beam="2">  1        1 0.11201036E+00 0.13785177E+03</pdfrwt>
<pdfrwt beam="1">  1       -1 0.45422916E-02 0.13785177E+03</pdfrwt>
<totfact> 0.52447834E+03</totfact>
</mgrwt>
</event>
<event>
 7    1  0.7800420E-006  0.1937083E+03  0.7546771E-02  0.1159651E+00
         -2   -1    0    0    0  501 -0.00000000000E+00  0.00000000000E+00  0.52283952050E+02  0.52283952050E+02  0.00000000000E+00 0.  1.
          2   -1    0    0  501    0  0.00000000000E+00 -0.00000000000E+00 -0.73036782531E+03  0.73036782531E+03  0.00000000000E+00 0. -1.
         23    2    1    2    0    0  0.13479382053E+03  0.61063141405E+02 -0.48617314615E+03  0.52334237698E+03  0.12499933687E+03 0.  0.
          5    1    3    3  502    0  0.28476601660E+02 -0.32634991551E+02 -0.19064226259E+03  0.19555695283E+03  0.47000000000E+01 0.  1.
         -5    1    3    3    0  502  0.10631721887E+03  0.93698132956E+02 -0.29553088356E+03  0.32778542415E+03  0.47000000000E+01 0.  1.
        -11    1    1    2    0    0 -0.21363051370E+02  0.12719813435E+02 -0.79802583308E+02  0.83586039027E+02  0.00000000000E+00 0. -1.
         11    1    1    2    0    0 -0.11343076916E+03 -0.73782954840E+02 -0.11210814380E+03  0.17572336135E+03  0.00000000000E+00 0.  1.
<mgrwt>
<rscale>  0 0.18868666E+03</rscale>
<asrwt>0</asrwt>
<pdfrwt beam="2">  1        2 0.11236427E+00 0.19370833E+03</pdfrwt>
<pdfrwt beam="1">  1       -2 0.80436856E-02 0.19370833E+03</pdfrwt>
<totfact> 0.36847227E+03</totfact>
</mgrwt>
</event>
<event>
 6    1  0.7800420E-006  0.1460321E+03  0.7546771E-02  0.1222990E+00
         -1   -1    0    0    0  501 -0.00000000000E+00  0.00000000000E+00  0.11128544692E+02  0.11128544692E+02  0.00000000000E+00 0.  1.
          1   -1    0    0  501    0  0.00000000000E+00 -0.00000000000E+00 -0.16440738496E+04  0.16440738496E+04  0.00000000000E+00 0. -1.
          5    1    1    2  502    0 -0.43324497905E+02 -0.35469449105E+02 -0.98598237088E+03  0.98758210779E+03  0.47000000000E+01 0. -1.
         -5    1    1    2    0  502  0.93372151907E+01  0.61987776910E+02 -0.29034772462E+03  0.29707500613E+03  0.47000000000E+01 0.  1.
        -11    1    1    2    0    0  0.62117581440E+02 -0.27453461982E+02 -0.19476645435E+03  0.20626744348E+03  0.00000000000E+00 0.  1.
         11    1    1    2    0    0 -0.28130298725E+02  0.93513417702E+00 -0.16184875510E+03  0.16427783694E+03  0.00000000000E+00 0. -1.
<mgrwt>
<rscale>  0 0.13305595E+03</rscale>
<asrwt>0</asrwt>
<pdfrwt beam="2">  1        1 0.25293434E+00 0.14603215E+03</pdfrwt>
<pdfrwt beam="1">  1       -1 0.17120845E-02 0.14603215E+03</pdfrwt>
<totfact> 0.48871475E+03</totfact>
</mgrwt>
</event>
<event>
 7    1  0.7800420E-006  0.1311819E+03  0.7546771E-02  0.1253304E+00
          3   -1    0    0  501    0  0.00000000000E+00  0.00000000000E+00  0.38194307012E+03  0.38194307012E+03  0.00000000000E+00 0. -1.
         -3   -1    0    0    0  501 -0.00000000000E+00 -0.00000000000E+00 -0.40896208123E+02  0.40896208123E+02  0.00000000000E+00 0.  1.
         23    2    1    2    0    0 -0.23574488426E+02 -0.32067564892E+02  0.31880450532E+03  0.34473903233E+03  0.12499841029E+03 0.  0.
          5    1    3    3  502    0 -0.45441844008E+02  0.36859935406E+02  0.14536255058E+03  0.15676727061E+03  0.47000000000E+01 0.  1.
         -5    1    3    3    0  502  0.21867355582E+02 -0.68927500298E+02  0.17344195474E+03  0.18797176172E+03  0.47000000000E+01 0.  1.
        -11    1    1    2    0    0  0.34015987629E+02  0.32098015341E+02 -0.67786271245E+01  0.47258012960E+02  0.00000000000E+00 0.  1.
         11    1    1    2    0    0 -0.10441499203E+02 -0.30450448226E-01  0.29020983794E+02  0.30842232948E+02  0.00000000000E+00 0. -1.
<mgrwt>
<rscale>  0 0.11401885E+03</rscale>
<asrwt>0</asrwt>
<pdfrwt beam="1">  1        3 0.58760470E-01 0.13118189E+03</pdfrwt>
<pdfrwt beam="2">  1       -3 0.62917246E-02 0.13118189E+03</pdfrwt>
<totfact> 0.10401517E+03</totfact>
</mgrwt>
</event>
<event>
 7    1  0.7800420E-006  0.1287482E+03  0.7546771E-02  0.1242918E+00
          1   -1    0    0  501    0  0.00000000000E+00  0.00000000000E+00  0.83673895910E+02  0.83673895910E+02  0.00000000000E+00 0. -1.
         -1   -1    0    0    0  501 -0.00000000000E+00 -0.00000000000E+00 -0.16763131225E+03  0.16763131225E+03  0.00000000000E+00 0.  1.
         23    2    1    2    0    0  0.27806796361E+02  0.23656743474E+02 -0.10417203643E+02  0.12916891507E+03  0.12346348065E+03 0.  0.
          5    1    3    3  502    0 -0.41107088377E+02 -0.36402938760E+01  0.23275657892E+02  0.47611875668E+02  0.47000000000E+01 0. -1.
         -5    1    3    3    0  502  0.68913884738E+02  0.27297037350E+02 -0.33692861534E+02  0.81557039403E+02  0.47000000000E+01 0.  1.
        -11    1    1    2    0    0 -0.60519900101E+02 -0.23134996024E+02 -0.48207442602E+02  0.80757933799E+02  0.00000000000E+00 0. -1.
         11    1    1    2    0    0  0.32713103739E+02 -0.52174745065E+00 -0.25332770091E+02  0.41378359285E+02  0.00000000000E+00 0.  1.
<mgrwt>
<rscale>  0 0.12010837E+03</rscale>
<asrwt>0</asrwt>
<pdfrwt beam="1">  1        1 0.12872907E-01 0.12874817E+03</pdfrwt>
<pdfrwt beam="2">  1       -1 0.25789433E-01 0.12874817E+03</pdfrwt>
<totfact> 0.57196433E+03</totfact>
</mgrwt>
</event>
<event>
 7    1  0.7800420E-006  0.1253775E+03  0.7546771E-02  0.1249690E+00
         -3   -1    0    0    0  501 -0.00000000000E+00  0.00000000000E+00  0.23434563268E+02  0.23434563268E+02  0.00000000000E+00 0.  1.
          3   -1    0    0  501    0  0.00000000000E+00 -0.00000000000E+00 -0.52078040948E+03  0.52078040948E+03  0.00000000000E+00 0. -1.
         23    2    1    2    0    0 -0.92571971614E+01 -0.30450696219E+01 -0.33258770300E+03  0.35543509983E+03  0.12499824742E+03 0.  0.
          5    1    3    3  502    0 -0.50461874989E+02 -0.43569538631E+02 -0.16125194637E+03  0.17455367579E+03  0.47000000000E+01 0. -1.
         -5    1    3    3    0  502  0.41204677828E+02  0.40524469009E+02 -0.17133575663E+03  0.18088142404E+03  0.47000000000E+01 0. -1.
        -11    1    1    2    0    0 -0.22091162917E+02 -0.12536762710E+02 -0.58555453088E+01  0.26066785554E+02  0.00000000000E+00 0.  1.
         11    1    1    2    0    0  0.31348360078E+02  0.15581832332E+02 -0.15890259790E+03  0.16271308736E+03  0.00000000000E+00 0. -1.
<mgrwt>
<rscale>  0 0.11609002E+03</rscale>
<asrwt>0</asrwt>
<pdfrwt beam="2">  1        3 0.80120050E-01 0.12537755E+03</pdfrwt>
<pdfrwt beam="1">  1       -3 0.36053180E-02 0.12537755E+03</pdfrwt>
<totfact> 0.12927568E+03</totfact>
</mgrwt>
</event>
<event>
 7    1  0.7800420E-006  0.1993017E+03  0.7546771E-02  0.1155000E+00
          2   -1    0    0  501    0  0.00000000000E+00  0.00000000000E+00  0.95178235607E+03  0.95178235607E+03  0.00000000000E+00 0.  1.
         -2   -1    0    0    0  501 -0.00000000000E+00 -0.00000000000E+00 -0.56986695113E+02  0.56986695113E+02  0.00000000000E+00 0. -1.
         23    2    1    2    0    0 -0.55499747474E+02  0.14497016968E+03  0.75828953743E+03  0.78404349504E+03  0.12499842986E+03 0.  0.
          5    1    3    3  502    0 -0.85099798628E+02  0.12850547692E+03  0.49282855093E+03  0.51638910130E+03  0.47000000000E+01 0. -1.
         -5    1    3    3    0  502  0.29600051155E+02  0.16464692761E+02  0.26546098650E+03  0.26765439374E+03  0.47000000000E+01 0. -1.
        -11    1    1    2    0    0 -0.16899149580E+02 -0.56153966876E+02  0.21719552271E+02  0.62534695995E+02  0.00000000000E+00 0. -1.
         11    1    1    2    0    0  0.72398897054E+02 -0.88816202806E+02  0.11478657126E+03  0.16219086015E+03  0.00000000000E+00 0.  1.
<mgrwt>
<rscale>  0 0.19388851E+03</rscale>
<asrwt>0</asrwt>
<pdfrwt beam="1">  1        2 0.14642804E+00 0.19930173E+03</pdfrwt>
<pdfrwt beam="2">  1       -2 0.87671846E-02 0.19930173E+03</pdfrwt>
<totfact> 0.22920052E+03</totfact>
</mgrwt>
</event>
<event>
 7    1  0.7800420E-006  0.2138395E+03  0.7546771E-02  0.1142391E+00
          1   -1    0    0  501    0  0.00000000000E+00  0.00000000000E+00  0.20273305435E+04  0.20273305435E+04  0.00000000000E+00 0. -1.
         -1   -1    0    0    0  501 -0.00000000000E+00 -0.00000000000E+00 -0.23508856004E+02  0.23508856004E+02  0.00000000000E+00 0.  1.
         23    2    1    2    0    0  0.11253784606E+03 -0.13204221949E+03  0.14021322027E+04  0.14183448317E+04  0.12500973251E+03 0.  0.
          5    1    3    3  502    0  0.19529066059E+02  0.83023768547E+01  0.37390437931E+02  0.43248684734E+02  0.47000000000E+01 0.  1.
         -5    1    3    3    0  502  0.93008779998E+02 -0.14034459634E+03  0.13647417647E+04  0.13750961469E+04  0.47000000000E+01 0.  1.
        -11    1    1    2    0    0 -0.92246524585E+02  0.68875592921E+02  0.25887088643E+03  0.28331502685E+03  0.00000000000E+00 0.  1.
         11    1    1    2    0    0 -0.20291321472E+02  0.63166626566E+02  0.34281859838E+03  0.34917954098E+03  0.00000000000E+00 0. -1.
<mgrwt>
<rscale>  0 0.20896151E+03</rscale>
<asrwt>0</asrwt>
<pdfrwt beam="1">  1        1 0.31189687E+00 0.21383954E+03</pdfrwt>
<pdfrwt beam="2">  1       -1 0.36167486E-02 0.21383954E+03</pdfrwt>
<totfact> 0.93079232E+02</totfact>
</mgrwt>
</event>
<event>
 6    1  0.7800420E-006  0.1518172E+03  0.7546771E-02  0.1205340E+00
          3   -1    0    0  501    0  0.00000000000E+00  0.00000000000E+00  0.78176137711E+03  0.78176137711E+03  0.00000000000E+00 0. -1.
         -3   -1    0    0    0  501 -0.00000000000E+00 -0.00000000000E+00 -0.27199005577E+02  0.27199005577E+02  0.00000000000E+00 0.  1.
          5    1    1    2  502    0 -0.10732293326E+03  0.21391703321E+02  0.36299514478E+03  0.37916141959E+03  0.47000000000E+01 0. -1.
         -5    1    1    2    0  502  0.35124012138E+02 -0.23046991435E+02  0.14385974722E+03  0.14994191180E+03  0.47000000000E+01 0.  1.
        -11    1    1    2    0    0  0.78258921922E+02  0.40263722842E+02  0.14093981295E+03  0.16616153921E+03  0.00000000000E+00 0.  1.
         11    1    1    2    0    0 -0.60600007989E+01 -0.38608434728E+02  0.10676766658E+03  0.11369551209E+03  0.00000000000E+00 0. -1.
<mgrwt>
<rscale>  0 0.14610734E+03</rscale>
<asrwt>0</asrwt>
<pdfrwt beam="1">  1        3 0.12027096E+00 0.15181717E+03</pdfrwt>
<pdfrwt beam="2">  1       -3 0.41844630E-02 0.15181717E+03</pdfrwt>
<totfact> 0.42108242E+02</totfact>
</mgrwt>
</event>
<event>
 7    1  0.7800420E-006  0.1870823E+03  0.7546771E-02  0.1165990E+00
         -1   -1    0    0    0  501 -0.00000000000E+00  0.00000000000E+00  0.92636922348E+02  0.92636922348E+02  0.00000000000E+00 0.  1.
          1   -1    0    0  501    0  0.00000000000E+00 -0.00000000000E+00 -0.41569189745E+03  0.41569189745E+03  0.00000000000E+00 0. -1.
         23    2    1    2    0    0  0.10495206685E+03 -0.91419042771E+02 -0.59639412759E+02  0.19635845687E+03  0.12500962487E+03 0.  0.
          5    1    3    3  502    0  0.10457101885E+03 -0.11838364318E+03 -0.59863426638E+02  0.16898374125E+03  0.47000000000E+01 0. -1.
         -5    1    3    3    0  502  0.38104799974E+00  0.26964600413E+02  0.22401387889E+00  0.27374715619E+02  0.47000000000E+01 0. -1.
        -11    1    1    2    0    0 -0.62264464282E+02  0.85965816050E+02 -0.11094957567E+03  0.15354736528E+03  0.00000000000E+00 0.  1.
         11    1    1    2    0    0 -0.42687602569E+02  0.54532267213E+01 -0.15246598667E+03  0.15842299766E+03  0.00000000000E+00 0. -1.
<mgrwt>
<rscale>  0 0.18188565E+03</rscale>
<asrwt>0</asrwt>
<pdfrwt beam="2">  1        1 0.63952599E-01 0.18708229E+03</pdfrwt>
<pdfrwt beam="1">  1       -1 0.14251834E-01 0.18708229E+03</pdfrwt>
<totfact> 0.19893040E+03</totfact>
</mgrwt>
</event>
<event>
 7    1  0.7800420E-006  0.2223953E+03  0.7546771E-02  0.1135337E+00
         -2   -1    0    0    0  501 -0.00000000000E+00  0.00000000000E+00  0.70183261812E+02  0.70183261812E+02  0.00000000000E+00 0.  1.
          2   -1    0    0  501    0  0.00000000000E+00 -0.00000000000E+00 -0.78260820813E+03  0.78260820813E+03  0.00000000000E+00 0. -1.
         23    2    1    2    0    0  0.63420908284E+02 -0.17266379197E+03 -0.54172128852E+03  0.58559510858E+03  0.12499872035E+03 0.  0.
          5    1    3    3  502    0  0.83900941348E+02 -0.51394100050E+02 -0.26594441340E+03  0.28360049806E+03  0.47000000000E+01 0. -1.
         -5    1    3    3    0  502 -0.20480033064E+02 -0.12126969192E+03 -0.27577687512E+03  0.30199461052E+03  0.47000000000E+01 0. -1.
        -11    1    1    2    0    0 -0.18538196002E+02 -0.70036134767E+01 -0.22684619096E+02  0.30121541399E+02  0.00000000000E+00 0. -1.
         11    1    1    2    0    0 -0.44882712282E+02  0.17966740545E+03 -0.14801903870E+03  0.23707481996E+03  0.00000000000E+00 0.  1.
<mgrwt>
<rscale>  0 0.21806095E+03</rscale>
<asrwt>0</asrwt>
<pdfrwt beam="2">  1        2 0.12040127E+00 0.22239532E+03</pdfrwt>
<pdfrwt beam="1">  1       -2 0.10797424E-01 0.22239532E+03</pdfrwt>
<totfact> 0.21318770E+03</totfact>
</mgrwt>
</event>
<event>
 7    1  0.7800420E-006  0.1421616E+03  0.7546771E-02  0.1232751E+00
          2   -1    0    0  501    0  0.00000000000E+00  0.00000000000E+00  0.11962889865E+03  0.11962889865E+03  0.00000000000E+00 0. -1.
         -2   -1    0    0    0  501 -0.00000000000E+00 -0.00000000000E+00 -0.12178304618E+03  0.12178304618E+03  0.00000000000E+00 0.  1.
         23    2    1    2    0    0 -0.67296252067E+02 -0.72484590333E+01  0.32445359433E+02  0.14581707586E+03  0.12501436942E+03 0.  0.
          5    1    3    3  502    0 -0.73046294925E+01 -0.21758162406E+02 -0.42551333461E+02  0.48574491481E+02  0.47000000000E+01 0. -1.
         -5    1    3    3    0  502 -0.59991622574E+02  0.14509703373E+02  0.74996692894E+02  0.97242584376E+02  0.47000000000E+01 0. -1.
        -11    1    1    2    0    0  0.15025968017E+02  0.75919389369E+01 -0.39653989405E+02  0.43079648645E+02  0.00000000000E+00 0.  1.
         11    1    1    2    0    0  0.52270284050E+02 -0.34347990362E+00  0.50544824505E+01  0.52515220326E+02  0.00000000000E+00 0. -1.
<mgrwt>
<rscale>  0 0.12649485E+03</rscale>
<asrwt>0</asrwt>
<pdfrwt beam="1">  1        2 0.18404446E-01 0.14216159E+03</pdfrwt>
<pdfrwt beam="2">  1       -2 0.18735853E-01 0.14216159E+03</pdfrwt>
<totfact> 0.68388893E+03</totfact>
</mgrwt>
</event>
<event>
 7    1  0.7800420E-006  0.1286329E+03  0.7546771E-02  0.1236118E+00
         -1   -1    0    0    0  501 -0.00000000000E+00  0.00000000000E+00  0.13115335715E+02  0.13115335715E+02  0.00000000000E+00 0.  1.
          1   -1    0    0  501    0  0.00000000000E+00 -0.00000000000E+00 -0.11416866216E+04  0.11416866216E+04  0.00000000000E+00 0. -1.
         23    2    1    2    0    0  0.17123449223E+02 -0.25071205065E+02 -0.70296091443E+03  0.71463310524E+03  0.12499860018E+03 0.  0.
          5    1    3    3  502    0  0.14351016427E+01 -0.51552158859E+02 -0.65747448351E+03  0.65951078161E+03  0.47000000000E+01 0. -1.
         -5    1    3    3    0  502  0.15688347580E+02  0.26480953794E+02 -0.45486430926E+02  0.55122323627E+02  0.47000000000E+01 0. -1.
        -11    1    1    2    0    0 -0.52923897344E+02  0.44211279371E+02 -0.31180173767E+03  0.31933665582E+03  0.00000000000E+00 0. -1.
         11    1    1    2    0    0  0.35800448121E+02 -0.19140074306E+02 -0.11380863382E+03  0.12083219629E+03  0.00000000000E+00 0.  1.
<mgrwt>
<rscale>  0 0.12433102E+03</rscale>
<asrwt>0</asrwt>
<pdfrwt beam="2">  1        1 0.17564401E+00 0.12863292E+03</pdfrwt>
<pdfrwt beam="1">  1       -1 0.20177449E-02 0.12863292E+03</pdfrwt>
<totfact> 0.82465650E+03</totfact>
</mgrwt>
</event>
<event>
 7    1  0.7800420E-006  0.1575701E+03  0.7546771E-02  0.1200563E+00
         -1   -1    0    0    0  501 -0.00000000000E+00  0.00000000000E+00  0.45973847780E+02  0.45973847780E+02  0.00000000000E+00 0.  1.
          1   -1    0    0  501    0  0.00000000000E+00 -0.00000000000E+00 -0.44851103703E+03  0.44851103703E+03  0.00000000000E+00 0. -1.
         23    2    1    2    0    0  0.43948676640E+02 -0.85271927132E+02 -0.23524652797E+03  0.28314180302E+03  0.12500225583E+03 0.  0.
          5    1    3    3  502    0  0.60068445661E+02 -0.10614640695E+03 -0.22180421366E+03  0.25316887065E+03  0.47000000000E+01 0. -1.
         -5    1    3    3    0  502 -0.16119769022E+02  0.20874479815E+02 -0.13442314313E+02  0.29972932372E+02  0.47000000000E+01 0. -1.
        -11    1    1    2    0    0 -0.61351677043E+02  0.26580520534E+02 -0.10083645084E+03  0.12098984323E+03  0.00000000000E+00 0. -1.
         11    1    1    2    0    0  0.17403000404E+02  0.58691406598E+02 -0.66454210448E+02  0.90353238557E+02  0.00000000000E+00 0.  1.
<mgrwt>
<rscale>  0 0.14992674E+03</rscale>
<asrwt>0</asrwt>
<pdfrwt beam="2">  1        1 0.69001693E-01 0.15757015E+03</pdfrwt>
<pdfrwt beam="1">  1       -1 0.70729001E-02 0.15757015E+03</pdfrwt>
<totfact> 0.52619553E+03</totfact>
</mgrwt>
</event>
<event>
 7    1  0.7800420E-006  0.1823195E+03  0.7546771E-02  0.1171331E+00
         -1   -1    0    0    0  501 -0.00000000000E+00  0.00000000000E+00  0.31819818326E+02  0.31819818326E+02  0.00000000000E+00 0.  1.
          1   -1    0    0  501    0  0.00000000000E+00 -0.00000000000E+00 -0.96545654545E+03  0.96545654545E+03  0.00000000000E+00 0. -1.
         23    2    1    2    0    0  0.28034916437E+02  0.12971750813E+03 -0.60469498266E+03  0.63158247053E+03  0.12501122578E+03 0.  0.
          5    1    3    3  502    0 -0.33206383864E+02  0.83341903643E+02 -0.19470083063E+03  0.21442723773E+03  0.47000000000E+01 0.  1.
         -5    1    3    3    0  502  0.61241300301E+02  0.46375604485E+02 -0.40999415203E+03  0.41715523280E+03  0.47000000000E+01 0.  1.
        -11    1    1    2    0    0  0.22231496773E+02 -0.97543833593E+02 -0.20146762605E+03  0.22494053274E+03  0.00000000000E+00 0.  1.
         11    1    1    2    0    0 -0.50266413209E+02 -0.32173674534E+02 -0.12747411841E+03  0.14075336051E+03  0.00000000000E+00 0. -1.
<mgrwt>
<rscale>  0 0.17640252E+03</rscale>
<asrwt>0</asrwt>
<pdfrwt beam="2">  1        1 0.14853177E+00 0.18231949E+03</pdfrwt>
<pdfrwt beam="1">  1       -1 0.48953567E-02 0.18231949E+03</pdfrwt>
<totfact> 0.30587222E+03</totfact>
</mgrwt>
</event>
<event>
 7    1  0.7800420E-006  0.1361911E+03  0.7546771E-02  0.1230439E+00
          2   -1    0    0  501    0  0.00000000000E+00  0.00000000000E+00  0.13150912434E+04  0.13150912434E+04  0.00000000000E+00 0. -1.
         -2   -1    0    0    0  501 -0.00000000000E+00 -0.00000000000E+00 -0.11488554713E+02  0.11488554713E+02  0.00000000000E+00 0.  1.
         23    2    1    2    0    0 -0.49032840929E+02 -0.22755562810E+02  0.83821251591E+03  0.84920447534E+03  0.12500393586E+03 0.  0.
          5    1    3    3  502    0 -0.90769232741E+02 -0.22380179325E+02  0.61356599059E+03  0.62066516001E+03  0.47000000000E+01 0. -1.
         -5    1    3    3    0  502  0.41736391812E+02 -0.37538348475E+00  0.22464652532E+03  0.22853931534E+03  0.47000000000E+01 0. -1.
        -11    1    1    2    0    0 -0.19125618048E+02 -0.11348037474E+02  0.45731271919E+02  0.50851907059E+02  0.00000000000E+00 0.  1.
         11    1    1    2    0    0  0.68158458977E+02  0.34103600284E+02  0.41965890087E+03  0.42652341572E+03  0.00000000000E+00 0. -1.
<mgrwt>
<rscale>  0 0.12800958E+03</rscale>
<asrwt>0</asrwt>
<pdfrwt beam="1">  1        2 0.20232161E+00 0.13619111E+03</pdfrwt>
<pdfrwt beam="2">  1       -2 0.17674710E-02 0.13619111E+03</pdfrwt>
<totfact> 0.15401407E+04</totfact>
</mgrwt>
</event>
<event>
 7    1  0.7800420E-006  0.1459154E+03  0.7546771E-02  0.1215637E+00
         -1   -1    0    0    0  501 -0.00000000000E+00  0.00000000000E+00  0.86838958116E+02  0.86838958116E+02  0.00000000000E+00 0.  1.
          1   -1    0    0  501    0  0.00000000000E+00 -0.00000000000E+00 -0.21159698229E+03  0.21159698229E+03  0.00000000000E+00 0. -1.
         23    2    1    2    0    0  0.44271945665E+02 -0.60835972005E+02 -0.10321529540E+03  0.17873081407E+03  0.12502114233E+03 0.  0.
          5    1    3    3  502    0  0.52389452651E+01 -0.73590788325E+02 -0.11413081529E+03  0.13598155637E+03  0.47000000000E+01 0.  1.
         -5    1    3    3    0  502  0.39033000400E+02  0.12754816320E+02  0.10915519889E+02  0.42749257702E+02  0.47000000000E+01 0.  1.
        -11    1    1    2    0    0  0.22256888962E+02  0.24192810771E+01  0.11543803620E+02  0.25188914809E+02  0.00000000000E+00 0.  1.
         11    1    1    2    0    0 -0.66528834628E+02  0.58416690928E+02 -0.33086532396E+02  0.94516211530E+02  0.00000000000E+00 0. -1.
<mgrwt>
<rscale>  0 0.13829827E+03</rscale>
<asrwt>0</asrwt>
<pdfrwt beam="2">  1        1 0.32553381E-01 0.14591541E+03</pdfrwt>
<pdfrwt beam="1">  1       -1 0.13359840E-01 0.14591541E+03</pdfrwt>
<totfact> 0.50689429E+03</totfact>
</mgrwt>
</event>
<event>
 7    1  0.7800420E-006  0.1298828E+03  0.7546771E-02  0.1243623E+00
         -2   -1    0    0    0  501 -0.00000000000E+00  0.00000000000E+00  0.25727860231E+02  0.25727860231E+02  0.00000000000E+00 0. -1.
          2   -1    0    0  501    0  0.00000000000E+00 -0.00000000000E+00 -0.48709286267E+03  0.48709286267E+03  0.00000000000E+00 0.  1.
         23    2    1    2    0    0  0.33256870509E+02 -0.11777026506E+02 -0.28251971680E+03  0.31094523924E+03  0.12499933453E+03 0.  0.
          5    1    3    3  502    0  0.48536117194E+02 -0.29679566835E+02 -0.28116993392E+03  0.28690634901E+03  0.47000000000E+01 0. -1.
         -5    1    3    3    0  502 -0.15279246685E+02  0.17902540329E+02 -0.13497828758E+01  0.24038890226E+02  0.47000000000E+01 0. -1.
        -11    1    1    2    0    0  0.27894717048E+02  0.74058911735E+01 -0.85119290125E+02  0.89879118902E+02  0.00000000000E+00 0. -1.
         11    1    1    2    0    0 -0.61151587557E+02  0.43711353320E+01 -0.93725995517E+02  0.11199636476E+03  0.00000000000E+00 0.  1.
<mgrwt>
<rscale>  0 0.11968145E+03</rscale>
<asrwt>0</asrwt>
<pdfrwt beam="2">  1        2 0.74937362E-01 0.12988284E+03</pdfrwt>
<pdfrwt beam="1">  1       -2 0.39581324E-02 0.12988284E+03</pdfrwt>
<totfact> 0.16826335E+04</totfact>
</mgrwt>
</event>
<event>
 7    1  0.7800420E-006  0.1330727E+03  0.7546771E-02  0.1233041E+00
          2   -1    0    0  501    0  0.00000000000E+00  0.00000000000E+00  0.12062868607E+04  0.12062868607E+04  0.00000000000E+00 0. -1.
         -2   -1    0    0    0  501 -0.00000000000E+00 -0.00000000000E+00 -0.17244346141E+02  0.17244346141E+02  0.00000000000E+00 0.  1.
         23    2    1    2    0    0 -0.32956343930E+02 -0.31592621520E+02  0.97235857447E+03  0.98142219841E+03  0.12499647933E+03 0.  0.
          5    1    3    3  502    0  0.14566060858E+02 -0.16962358744E+02  0.29843812083E+02  0.37585035089E+02  0.47000000000E+01 0.  1.
         -5    1    3    3    0  502 -0.47522404788E+02 -0.14630262776E+02  0.94251476239E+03  0.94383716332E+03  0.47000000000E+01 0.  1.
        -11    1    1    2    0    0  0.37258363000E+01  0.61901333000E+02  0.95975345726E+02  0.11426689753E+03  0.00000000000E+00 0.  1.
         11    1    1    2    0    0  0.29230507630E+02 -0.30308711480E+02  0.12070859440E+03  0.12784211094E+03  0.00000000000E+00 0. -1.
<mgrwt>
<rscale>  0 0.12630673E+03</rscale>
<asrwt>0</asrwt>
<pdfrwt beam="1">  1        2 0.18558253E+00 0.13307267E+03</pdfrwt>
<pdfrwt beam="2">  1       -2 0.26529773E-02 0.13307267E+03</pdfrwt>
<totfact> 0.97642449E+03</totfact>
</mgrwt>
</event>
<event>
 7    1  0.7800420E-006  0.1526699E+03  0.7546771E-02  0.1205694E+00
          2   -1    0    0  501    0  0.00000000000E+00  0.00000000000E+00  0.48646850923E+03  0.48646850923E+03  0.00000000000E+00 0. -1.
         -2   -1    0    0    0  501 -0.00000000000E+00 -0.00000000000E+00 -0.50280091313E+02  0.50280091313E+02  0.00000000000E+00 0.  1.
         23    2    1    2    0    0  0.74126103029E+02  0.46749708970E+02  0.35367575585E+03  0.38522023333E+03  0.12501149329E+03 0.  0.
          5    1    3    3  502    0  0.30552602176E+02  0.77868652063E+02  0.29016150804E+03  0.30201453479E+03  0.47000000000E+01 0. -1.
         -5    1    3    3    0  502  0.43573500853E+02 -0.31118943093E+02  0.63514247805E+02  0.83205698543E+02  0.47000000000E+01 0. -1.
        -11    1    1    2    0    0 -0.19495759080E+00 -0.52815002560E+02  0.37253273804E+02  0.64631794908E+02  0.00000000000E+00 0.  1.
         11    1    1    2    0    0 -0.73931145438E+02  0.60652935900E+01  0.45259388268E+02  0.86896572306E+02  0.00000000000E+00 0. -1.
<mgrwt>
<rscale>  0 0.14582936E+03</rscale>
<asrwt>0</asrwt>
<pdfrwt beam="1">  1        2 0.74841306E-01 0.15266987E+03</pdfrwt>
<pdfrwt beam="2">  1       -2 0.77353990E-02 0.15266987E+03</pdfrwt>
<totfact> 0.61864600E+03</totfact>
</mgrwt>
</event>
<event>
 6    1  0.7800420E-006  0.3265115E+03  0.7546771E-02  0.1112306E+00
          2   -1    0    0  501    0  0.00000000000E+00  0.00000000000E+00  0.43792987354E+03  0.43792987354E+03  0.00000000000E+00 0. -1.
         -2   -1    0    0    0  501 -0.00000000000E+00 -0.00000000000E+00 -0.15052852922E+03  0.15052852922E+03  0.00000000000E+00 0.  1.
          5    1    1    2  502    0 -0.53502690625E+02  0.90634288250E+02  0.34176185976E+03  0.35763161339E+03  0.47000000000E+01 0. -1.
         -5    1    1    2    0  502  0.38149231235E+02 -0.99969688706E+02 -0.10349810923E+02  0.10760349014E+03  0.47000000000E+01 0.  1.
        -11    1    1    2    0    0  0.10666872647E+01 -0.48774776008E+02  0.25936560518E+00  0.48787128086E+02  0.00000000000E+00 0.  1.
         11    1    1    2    0    0  0.14286772126E+02  0.58110176464E+02 -0.44270070116E+02  0.74436171144E+02  0.00000000000E+00 0. -1.
<mgrwt>
<rscale>  0 0.25158730E+03</rscale>
<asrwt>0</asrwt>
<pdfrwt beam="1">  1        2 0.67373826E-01 0.32651149E+03</pdfrwt>
<pdfrwt beam="2">  1       -2 0.23158235E-01 0.32651149E+03</pdfrwt>
<totfact> 0.11784374E+03</totfact>
</mgrwt>
</event>
<event>
 7    1  0.7800420E-006  0.1322320E+03  0.7546771E-02  0.1244765E+00
         -2   -1    0    0    0  501 -0.00000000000E+00  0.00000000000E+00  0.42766770179E+02  0.42766770179E+02  0.00000000000E+00 0.  1.
          2   -1    0    0  501    0  0.00000000000E+00 -0.00000000000E+00 -0.32012652862E+03  0.32012652862E+03  0.00000000000E+00 0. -1.
         23    2    1    2    0    0  0.17325187635E+02 -0.39521405093E+02 -0.22674686170E+03  0.26248702539E+03  0.12499278228E+03 0.  0.
          5    1    3    3  502    0 -0.37537102282E+01  0.33859918474E+02 -0.15319951841E+02  0.37648045686E+02  0.47000000000E+01 0. -1.
         -5    1    3    3    0  502  0.21078897863E+02 -0.73381323567E+02 -0.21142690985E+03  0.22483897970E+03  0.47000000000E+01 0. -1.
        -11    1    1    2    0    0 -0.41653723461E+02  0.45466610921E+02 -0.35309230904E+02  0.71056225440E+02  0.00000000000E+00 0.  1.
         11    1    1    2    0    0  0.24328535826E+02 -0.59452058279E+01 -0.15303665845E+02  0.29350047974E+02  0.00000000000E+00 0. -1.
<mgrwt>
<rscale>  0 0.11899477E+03</rscale>
<asrwt>0</asrwt>
<pdfrwt beam="2">  1        2 0.49250235E-01 0.13223199E+03</pdfrwt>
<pdfrwt beam="1">  1       -2 0.65795031E-02 0.13223199E+03</pdfrwt>
<totfact> 0.12305097E+04</totfact>
</mgrwt>
</event>
<event>
 7    1  0.7800420E-006  0.2535279E+03  0.7546771E-02  0.1113426E+00
         -2   -1    0    0    0  501 -0.00000000000E+00  0.00000000000E+00  0.23084381563E+02  0.23084381563E+02  0.00000000000E+00 0.  1.
          2   -1    0    0  501    0  0.00000000000E+00 -0.00000000000E+00 -0.26361169340E+04  0.26361169340E+04  0.00000000000E+00 0. -1.
         23    2    1    2    0    0  0.41559307660E+02  0.21662033143E+03 -0.14236614647E+04  0.14460595955E+04  0.12499937552E+03 0.  0.
          5    1    3    3  502    0  0.10075697858E+02 -0.15199164741E+02 -0.80957911624E+02  0.83119238150E+02  0.47000000000E+01 0.  1.
         -5    1    3    3    0  502  0.31483609802E+02  0.23181949617E+03 -0.13427035530E+04  0.13629403574E+04  0.47000000000E+01 0.  1.
        -11    1    1    2    0    0 -0.18863786815E+02 -0.20140770571E+03 -0.11275480646E+04  0.11455503238E+04  0.00000000000E+00 0. -1.
         11    1    1    2    0    0 -0.22695520845E+02 -0.15212625714E+02 -0.61823023179E+02  0.67591396217E+02  0.00000000000E+00 0.  1.
<mgrwt>
<rscale>  0 0.24980873E+03</rscale>
<asrwt>0</asrwt>
<pdfrwt beam="2">  1        2 0.40555656E+00 0.25352788E+03</pdfrwt>
<pdfrwt beam="1">  1       -2 0.35514424E-02 0.25352788E+03</pdfrwt>
<totfact> 0.11116615E+03</totfact>
</mgrwt>
</event>
<event>
 7    1  0.7800420E-006  0.1727227E+03  0.7546771E-02  0.1180804E+00
         -1   -1    0    0    0  501 -0.00000000000E+00  0.00000000000E+00  0.35383104017E+02  0.35383104017E+02  0.00000000000E+00 0.  1.
          1   -1    0    0  501    0  0.00000000000E+00 -0.00000000000E+00 -0.82434670342E+03  0.82434670342E+03  0.00000000000E+00 0. -1.
         23    2    1    2    0    0  0.91970487730E+02  0.75828001264E+02 -0.55199789595E+03  0.57838985216E+03  0.12499875024E+03 0.  0.
          5    1    3    3  502    0  0.48304483181E+02  0.75794459646E+02 -0.15707545465E+03  0.18103290215E+03  0.47000000000E+01 0. -1.
         -5    1    3    3    0  502  0.43666004549E+02  0.33541618506E-01 -0.39492244130E+03  0.39735695001E+03  0.47000000000E+01 0. -1.
        -11    1    1    2    0    0 -0.57944876145E+02  0.10444763561E+02 -0.89014934722E+02  0.10672563123E+03  0.00000000000E+00 0.  1.
         11    1    1    2    0    0 -0.34025611585E+02 -0.86272764825E+02 -0.14795076873E+03  0.17461432405E+03  0.00000000000E+00 0. -1.
<mgrwt>
<rscale>  0 0.16719634E+03</rscale>
<asrwt>0</asrwt>
<pdfrwt beam="2">  1        1 0.12682257E+00 0.17272274E+03</pdfrwt>
<pdfrwt beam="1">  1       -1 0.54435545E-02 0.17272274E+03</pdfrwt>
<totfact> 0.33588953E+03</totfact>
</mgrwt>
</event>
<event>
 7    1  0.7800420E-006  0.1958816E+03  0.7546771E-02  0.1157785E+00
         -2   -1    0    0    0  501 -0.00000000000E+00  0.00000000000E+00  0.33460974063E+02  0.33460974063E+02  0.00000000000E+00 0.  1.
          2   -1    0    0  501    0  0.00000000000E+00 -0.00000000000E+00 -0.10817060892E+04  0.10817060892E+04  0.00000000000E+00 0. -1.
         23    2    1    2    0    0 -0.13519401133E+03  0.66799556838E+02 -0.66746505403E+03  0.69561425714E+03  0.12501997797E+03 0.  0.
          5    1    3    3  502    0 -0.11918801034E+02 -0.15894594282E+02 -0.12316519494E+02  0.23842873106E+02  0.47000000000E+01 0. -1.
         -5    1    3    3    0  502 -0.12327521029E+03  0.82694151120E+02 -0.65514853454E+03  0.67177138403E+03  0.47000000000E+01 0. -1.
        -11    1    1    2    0    0  0.45395578059E+02 -0.69683228910E+02 -0.22274169101E+03  0.23776116548E+03  0.00000000000E+00 0. -1.
         11    1    1    2    0    0  0.89798433268E+02  0.28836720719E+01 -0.15803837007E+03  0.18179164061E+03  0.00000000000E+00 0.  1.
<mgrwt>
<rscale>  0 0.19075233E+03</rscale>
<asrwt>0</asrwt>
<pdfrwt beam="2">  1        2 0.16641629E+00 0.19588159E+03</pdfrwt>
<pdfrwt beam="1">  1       -2 0.51478431E-02 0.19588159E+03</pdfrwt>
<totfact> 0.43465050E+03</totfact>
</mgrwt>
</event>
<event>
 7    1  0.7800420E-006  0.1488940E+03  0.7546771E-02  0.1211003E+00
         -1   -1    0    0    0  501 -0.00000000000E+00  0.00000000000E+00  0.11295674971E+02  0.11295674971E+02  0.00000000000E+00 0.  1.
          1   -1    0    0  501    0  0.00000000000E+00 -0.00000000000E+00 -0.16393328359E+04  0.16393328359E+04  0.00000000000E+00 0. -1.
         23    2    1    2    0    0  0.78009405588E+02  0.21427192446E+02 -0.96289224023E+03  0.97433612409E+03  0.12499929793E+03 0.  0.
          5    1    3    3  502    0  0.51387930314E+02 -0.49414611477E+02 -0.53914584932E+03  0.54385922815E+03  0.47000000000E+01 0.  1.
         -5    1    3    3    0  502  0.26621475274E+02  0.70841803924E+02 -0.42374639091E+03  0.43047689594E+03  0.47000000000E+01 0.  1.
        -11    1    1    2    0    0  0.94227975482E+01 -0.31821473509E+02 -0.14513654799E+03  0.14888254717E+03  0.00000000000E+00 0.  1.
         11    1    1    2    0    0 -0.87432203137E+02  0.10394281063E+02 -0.52000837271E+03  0.52740983960E+03  0.00000000000E+00 0. -1.
<mgrwt>
<rscale>  0 0.14174285E+03</rscale>
<asrwt>0</asrwt>
<pdfrwt beam="2">  1        1 0.25220505E+00 0.14889398E+03</pdfrwt>
<pdfrwt beam="1">  1       -1 0.17377961E-02 0.14889398E+03</pdfrwt>
<totfact> 0.48192812E+03</totfact>
</mgrwt>
</event>
<event>
 7    1  0.7800420E-006  0.1586553E+03  0.7546771E-02  0.1198161E+00
          2   -1    0    0  501    0  0.00000000000E+00  0.00000000000E+00  0.20185356499E+03  0.20185356499E+03  0.00000000000E+00 0. -1.
         -2   -1    0    0    0  501 -0.00000000000E+00 -0.00000000000E+00 -0.11277276246E+03  0.11277276246E+03  0.00000000000E+00 0.  1.
         23    2    1    2    0    0 -0.97602294956E+02 -0.45125957438E+01  0.87778356402E+02  0.18131887865E+03  0.12499969760E+03 0.  0.
          5    1    3    3  502    0 -0.56562163258E+01  0.29412616726E+02 -0.19413805377E+02  0.36001120052E+02  0.47000000000E+01 0.  1.
         -5    1    3    3    0  502 -0.91946078631E+02 -0.33925212470E+02  0.10719216178E+03  0.14531775860E+03  0.47000000000E+01 0.  1.
        -11    1    1    2    0    0  0.61736912294E+01  0.33779174403E+02 -0.12035347272E+02  0.36386765049E+02  0.00000000000E+00 0. -1.
         11    1    1    2    0    0  0.91428603727E+02 -0.29266578659E+02  0.13337793408E+02  0.96920683751E+02  0.00000000000E+00 0.  1.
<mgrwt>
<rscale>  0 0.15189704E+03</rscale>
<asrwt>0</asrwt>
<pdfrwt beam="1">  1        2 0.31054395E-01 0.15865527E+03</pdfrwt>
<pdfrwt beam="2">  1       -2 0.17349656E-01 0.15865527E+03</pdfrwt>
<totfact> 0.43764722E+03</totfact>
</mgrwt>
</event>
<event>
 7    1  0.7800420E-006  0.1711306E+03  0.7546771E-02  0.1183302E+00
         -1   -1    0    0    0  501 -0.00000000000E+00  0.00000000000E+00  0.33157353617E+03  0.33157353617E+03  0.00000000000E+00 0.  1.
          1   -1    0    0  501    0  0.00000000000E+00 -0.00000000000E+00 -0.78801403101E+02  0.78801403101E+02  0.00000000000E+00 0. -1.
         23    2    1    2    0    0  0.70434446347E+02  0.93230917432E+02  0.10069463051E+03  0.19855749770E+03  0.12503062057E+03 0.  0.
          5    1    3    3  502    0 -0.23020427541E+02  0.57080371903E+02  0.70702559256E+02  0.93856543864E+02  0.47000000000E+01 0.  1.
         -5    1    3    3    0  502  0.93454873888E+02  0.36150545529E+02  0.29992071249E+02  0.10470095383E+03  0.47000000000E+01 0.  1.
        -11    1    1    2    0    0 -0.14974182888E+02  0.17031469956E+02  0.34951396280E+02  0.41664099942E+02  0.00000000000E+00 0.  1.
         11    1    1    2    0    0 -0.55460263459E+02 -0.11026238739E+03  0.11712610628E+03  0.17015334163E+03  0.00000000000E+00 0. -1.
<mgrwt>
<rscale>  0 0.16487348E+03</rscale>
<asrwt>0</asrwt>
<pdfrwt beam="2">  1        1 0.12123293E-01 0.17113057E+03</pdfrwt>
<pdfrwt beam="1">  1       -1 0.51011312E-01 0.17113057E+03</pdfrwt>
<totfact> 0.19242648E+03</totfact>
</mgrwt>
</event>
<event>
 7    1  0.7800420E-006  0.1489889E+03  0.7546771E-02  0.1214334E+00
         -1   -1    0    0    0  501 -0.00000000000E+00  0.00000000000E+00  0.31673658810E+03  0.31673658810E+03  0.00000000000E+00 0.  1.
          1   -1    0    0  501    0  0.00000000000E+00 -0.00000000000E+00 -0.74569559697E+02  0.74569559697E+02  0.00000000000E+00 0. -1.
         23    2    1    2    0    0 -0.39015475196E+02  0.71066437930E+02  0.32053652047E+02  0.15239791276E+03  0.12500016520E+03 0.  0.
          5    1    3    3  502    0 -0.21847019235E+02 -0.28971865643E+02  0.35155334464E+02  0.50740997128E+02  0.47000000000E+01 0. -1.
         -5    1    3    3    0  502 -0.17168455961E+02  0.10003830357E+03 -0.31016824175E+01  0.10165691563E+03  0.47000000000E+01 0. -1.
        -11    1    1    2    0    0  0.36868782295E+02 -0.15208603042E+02  0.15632800895E+03  0.16133522584E+03  0.00000000000E+00 0.  1.
         11    1    1    2    0    0  0.21466929003E+01 -0.55857834888E+02  0.53785367405E+02  0.77573009196E+02  0.00000000000E+00 0. -1.
<mgrwt>
<rscale>  0 0.13925576E+03</rscale>
<asrwt>0</asrwt>
<pdfrwt beam="2">  1        1 0.11472240E-01 0.14898888E+03</pdfrwt>
<pdfrwt beam="1">  1       -1 0.48728705E-01 0.14898888E+03</pdfrwt>
<totfact> 0.22383864E+03</totfact>
</mgrwt>
</event>
<event>
 7    1  0.7800420E-006  0.2330904E+03  0.7546771E-02  0.1128172E+00
         -1   -1    0    0    0  501 -0.00000000000E+00  0.00000000000E+00  0.34649510843E+03  0.34649510843E+03  0.00000000000E+00 0.  1.
          1   -1    0    0  501    0  0.00000000000E+00 -0.00000000000E+00 -0.16668904616E+03  0.16668904616E+03  0.00000000000E+00 0. -1.
         23    2    1    2    0    0  0.10795397214E+03  0.16448077523E+03 -0.23276386747E+01  0.23310198676E+03  0.12499253100E+03 0.  0.
          5    1    3    3  502    0  0.10361412440E+03  0.17994708478E+03  0.15960073974E+02  0.20831143526E+03  0.47000000000E+01 0.  1.
         -5    1    3    3    0  502  0.43398477375E+01 -0.15466309553E+02 -0.18287712649E+02  0.24790551496E+02  0.47000000000E+01 0.  1.
        -11    1    1    2    0    0 -0.46142057521E+02 -0.36263412409E+02  0.99438063207E+02  0.11546450955E+03  0.00000000000E+00 0.  1.
         11    1    1    2    0    0 -0.61811914621E+02 -0.12821736282E+03  0.82695637734E+02  0.16461765828E+03  0.00000000000E+00 0. -1.
<mgrwt>
<rscale>  0 0.22783663E+03</rscale>
<asrwt>0</asrwt>
<pdfrwt beam="2">  1        1 0.25644469E-01 0.23309037E+03</pdfrwt>
<pdfrwt beam="1">  1       -1 0.53306940E-01 0.23309037E+03</pdfrwt>
<totfact> 0.67587410E+02</totfact>
</mgrwt>
</event>
<event>
 7    1  0.7800420E-006  0.1319969E+03  0.7546771E-02  0.1237872E+00
          1   -1    0    0  501    0  0.00000000000E+00  0.00000000000E+00  0.17993891089E+03  0.17993891089E+03  0.00000000000E+00 0. -1.
         -1   -1    0    0    0  501 -0.00000000000E+00 -0.00000000000E+00 -0.77640938537E+02  0.77640938537E+02  0.00000000000E+00 0.  1.
         23    2    1    2    0    0 -0.20735178135E+01  0.42658385464E+02  0.81700001408E+02  0.15523551845E+03  0.12489651169E+03 0.  0.
          5    1    3    3  502    0  0.22437458604E+02 -0.37997495132E+02  0.44917531606E+02  0.63142092383E+02  0.47000000000E+01 0.  1.
         -5    1    3    3    0  502 -0.24510976418E+02  0.80655880597E+02  0.36782469802E+02  0.92093426065E+02  0.47000000000E+01 0.  1.
        -11    1    1    2    0    0  0.16110442119E+02 -0.25800325908E+02  0.54237254536E+02  0.62184266031E+02  0.00000000000E+00 0. -1.
         11    1    1    2    0    0 -0.14036924306E+02 -0.16858059556E+02 -0.33639283591E+02  0.40160064946E+02  0.00000000000E+00 0.  1.
<mgrwt>
<rscale>  0 0.12322362E+03</rscale>
<asrwt>0</asrwt>
<pdfrwt beam="1">  1        1 0.27682909E-01 0.13199688E+03</pdfrwt>
<pdfrwt beam="2">  1       -1 0.11944760E-01 0.13199688E+03</pdfrwt>
<totfact> 0.73291055E+03</totfact>
</mgrwt>
</event>
<event>
 7    1  0.7800420E-006  0.1279561E+03  0.7546771E-02  0.1244529E+00
         -2   -1    0    0    0  501 -0.00000000000E+00  0.00000000000E+00  0.32284033835E+02  0.32284033835E+02  0.00000000000E+00 0. -1.
          2   -1    0    0  501    0  0.00000000000E+00 -0.00000000000E+00 -0.51464514975E+03  0.51464514975E+03  0.00000000000E+00 0.  1.
         23    2    1    2    0    0  0.22833336949E+02 -0.15130205423E+02 -0.40115734936E+03  0.42107005345E+03  0.12498994591E+03 0.  0.
          5    1    3    3  502    0  0.62192959924E+02 -0.40113057096E+02 -0.30789359157E+03  0.31669792444E+03  0.47000000000E+01 0. -1.
         -5    1    3    3    0  502 -0.39359622975E+02  0.24982851673E+02 -0.93263757790E+02  0.10437212902E+03  0.47000000000E+01 0. -1.
        -11    1    1    2    0    0 -0.22811880652E+02 -0.34131252778E+02 -0.15820850198E+02  0.43995722702E+02  0.00000000000E+00 0. -1.
         11    1    1    2    0    0 -0.21456296843E-01  0.49261458201E+02 -0.65382916360E+02  0.81863407431E+02  0.00000000000E+00 0.  1.
<mgrwt>
<rscale>  0 0.11913594E+03</rscale>
<asrwt>0</asrwt>
<pdfrwt beam="2">  1        2 0.79176169E-01 0.12795613E+03</pdfrwt>
<pdfrwt beam="1">  1       -2 0.49667749E-02 0.12795613E+03</pdfrwt>
<totfact> 0.11279472E+04</totfact>
</mgrwt>
</event>
<event>
 7    1  0.7800420E-006  0.1442135E+03  0.7546771E-02  0.1217560E+00
          1   -1    0    0  501    0  0.00000000000E+00  0.00000000000E+00  0.13256412674E+04  0.13256412674E+04  0.00000000000E+00 0. -1.
         -1   -1    0    0    0  501 -0.00000000000E+00 -0.00000000000E+00 -0.18051317730E+02  0.18051317730E+02  0.00000000000E+00 0.  1.
         23    2    1    2    0    0 -0.66966424357E+02  0.26238523467E+02  0.10604041714E+04  0.10701656616E+04  0.12499829727E+03 0.  0.
          5    1    3    3  502    0 -0.79466884053E+02  0.44798769284E+02  0.10171160002E+04  0.10212095589E+04  0.47000000000E+01 0. -1.
         -5    1    3    3    0  502  0.12500459697E+02 -0.18560245817E+02  0.43288171228E+02  0.48956102640E+02  0.47000000000E+01 0. -1.
        -11    1    1    2    0    0  0.63356348592E+02 -0.55572980561E+02  0.15128298889E+03  0.17317310935E+03  0.00000000000E+00 0. -1.
         11    1    1    2    0    0  0.36100757643E+01  0.29334457094E+02  0.95902789330E+02  0.10035381418E+03  0.00000000000E+00 0.  1.
<mgrwt>
<rscale>  0 0.13690161E+03</rscale>
<asrwt>0</asrwt>
<pdfrwt beam="1">  1        1 0.20394473E+00 0.14421351E+03</pdfrwt>
<pdfrwt beam="2">  1       -1 0.27771268E-02 0.14421351E+03</pdfrwt>
<totfact> 0.39120279E+03</totfact>
</mgrwt>
</event>
<event>
 7    1  0.1166107E-005  0.1554872E+03  0.7546771E-02  0.1202128E+00
          1   -1    0    0  501    0  0.00000000000E+00  0.00000000000E+00  0.25339996751E+03  0.25339996751E+03  0.00000000000E+00 0. -1.
         -1   -1    0    0    0  501 -0.00000000000E+00 -0.00000000000E+00 -0.80970865879E+02  0.80970865879E+02  0.00000000000E+00 0.  1.
         23    2    1    2    0    0 -0.91997069423E+02 -0.93773910788E+01  0.79524081404E+02  0.17464351284E+03  0.12499952323E+03 0.  0.
          5    1    3    3  502    0  0.34211453469E+01  0.23132740388E+02 -0.21310849136E+02  0.31985468642E+02  0.47000000000E+01 0. -1.
         -5    1    3    3    0  502 -0.95418214770E+02 -0.32510131467E+02  0.10083493054E+03  0.14265804420E+03  0.47000000000E+01 0. -1.
        -11    1    1    2    0    0 -0.21184397908E+01 -0.21340603416E+02 -0.32803162134E+01  0.21694921428E+02  0.00000000000E+00 0.  1.
         11    1    1    2    0    0  0.94115509214E+02  0.30717994495E+02  0.96185336435E+02  0.13803239912E+03  0.00000000000E+00 0. -1.
<mgrwt>
<rscale>  0 0.14866110E+03</rscale>
<asrwt>0</asrwt>
<pdfrwt beam="1">  1        1 0.38984610E-01 0.15548722E+03</pdfrwt>
<pdfrwt beam="2">  1       -1 0.12457056E-01 0.15548722E+03</pdfrwt>
<totfact> 0.45336895E+03</totfact>
</mgrwt>
</event>
<event>
 7    1  0.7800420E-006  0.1309141E+03  0.7546771E-02  0.1239364E+00
         -2   -1    0    0    0  501 -0.00000000000E+00  0.00000000000E+00  0.38536417317E+02  0.38536417317E+02  0.00000000000E+00 0.  1.
          2   -1    0    0  501    0  0.00000000000E+00 -0.00000000000E+00 -0.39797902166E+03  0.39797902166E+03  0.00000000000E+00 0. -1.
         23    2    1    2    0    0  0.28375478292E+02 -0.26666198218E+02 -0.27984041691E+03  0.30894845512E+03  0.12498893987E+03 0.  0.
          5    1    3    3  502    0 -0.44150074338E+02 -0.36403748686E+02 -0.11509443932E+03  0.12862069019E+03  0.47000000000E+01 0. -1.
         -5    1    3    3    0  502  0.72525552630E+02  0.97375504679E+01 -0.16474597759E+03  0.18032776493E+03  0.47000000000E+01 0. -1.
        -11    1    1    2    0    0  0.19689096168E+02 -0.10985682543E+02  0.51354771058E+01  0.23123988712E+02  0.00000000000E+00 0.  1.
         11    1    1    2    0    0 -0.48064574459E+02  0.37651880761E+02 -0.84737664538E+02  0.10444299514E+03  0.00000000000E+00 0. -1.
<mgrwt>
<rscale>  0 0.12229133E+03</rscale>
<asrwt>0</asrwt>
<pdfrwt beam="2">  1        2 0.61227540E-01 0.13091405E+03</pdfrwt>
<pdfrwt beam="1">  1       -2 0.59286798E-02 0.13091405E+03</pdfrwt>
<totfact> 0.11429372E+04</totfact>
</mgrwt>
</event>
<event>
 7    1  0.7800420E-006  0.2012669E+03  0.7546771E-02  0.1152845E+00
          2   -1    0    0  501    0  0.00000000000E+00  0.00000000000E+00  0.39475720089E+03  0.39475720089E+03  0.00000000000E+00 0. -1.
         -2   -1    0    0    0  501 -0.00000000000E+00 -0.00000000000E+00 -0.96117661265E+02  0.96117661265E+02  0.00000000000E+00 0.  1.
         23    2    1    2    0    0  0.25637724034E+02  0.15566986016E+03  0.19917317016E+03  0.28315778626E+03  0.12497192465E+03 0.  0.
          5    1    3    3  502    0 -0.19947168246E+02  0.10928959708E+03  0.53160338678E+02  0.12324859902E+03  0.47000000000E+01 0. -1.
         -5    1    3    3    0  502  0.45584892280E+02  0.46380263077E+02  0.14601283148E+03  0.15990918724E+03  0.47000000000E+01 0. -1.
        -11    1    1    2    0    0 -0.86618248460E+01 -0.17157348012E+02 -0.17224558336E+02  0.25808665411E+02  0.00000000000E+00 0.  1.
         11    1    1    2    0    0 -0.16975899188E+02 -0.13851251215E+03  0.11669092780E+03  0.18190841048E+03  0.00000000000E+00 0. -1.
<mgrwt>
<rscale>  0 0.19636220E+03</rscale>
<asrwt>0</asrwt>
<pdfrwt beam="1">  1        2 0.60731876E-01 0.20126694E+03</pdfrwt>
<pdfrwt beam="2">  1       -2 0.14787333E-01 0.20126694E+03</pdfrwt>
<totfact> 0.28027128E+03</totfact>
</mgrwt>
</event>
<event>
 7    1  0.7800420E-006  0.1698122E+03  0.7546771E-02  0.1184623E+00
          1   -1    0    0  501    0  0.00000000000E+00  0.00000000000E+00  0.63872476016E+02  0.63872476016E+02  0.00000000000E+00 0. -1.
         -1   -1    0    0    0  501 -0.00000000000E+00 -0.00000000000E+00 -0.42928859472E+03  0.42928859472E+03  0.00000000000E+00 0.  1.
         23    2    1    2    0    0 -0.73872277199E+02  0.88048843953E+02 -0.12215991471E+03  0.20918706132E+03  0.12500587827E+03 0.  0.
          5    1    3    3  502    0 -0.10031050035E+03  0.28341114531E+02 -0.74749026638E+02  0.12835467360E+03  0.47000000000E+01 0.  1.
         -5    1    3    3    0  502  0.26438223148E+02  0.59707729422E+02 -0.47410888073E+02  0.80832387716E+02  0.47000000000E+01 0.  1.
        -11    1    1    2    0    0  0.14058978620E+02 -0.85486563478E+02 -0.14182215210E+03  0.16619004255E+03  0.00000000000E+00 0. -1.
         11    1    1    2    0    0  0.59813298579E+02 -0.25622804743E+01 -0.10143405189E+03  0.11778396686E+03  0.00000000000E+00 0.  1.
<mgrwt>
<rscale>  0 0.16366271E+03</rscale>
<asrwt>0</asrwt>
<pdfrwt beam="1">  1        1 0.98265349E-02 0.16981220E+03</pdfrwt>
<pdfrwt beam="2">  1       -1 0.66044399E-01 0.16981220E+03</pdfrwt>
<totfact> 0.15579595E+03</totfact>
</mgrwt>
</event>
<event>
 7    1  0.7800420E-006  0.1293412E+03  0.7546771E-02  0.1243103E+00
         -1   -1    0    0    0  501 -0.00000000000E+00  0.00000000000E+00  0.12334986483E+02  0.12334986483E+02  0.00000000000E+00 0.  1.
          1   -1    0    0  501    0  0.00000000000E+00 -0.00000000000E+00 -0.11906004773E+04  0.11906004773E+04  0.00000000000E+00 0. -1.
         23    2    1    2    0    0  0.24155185904E+02  0.22765714410E+02 -0.88528921529E+03  0.89468773456E+03  0.12500958731E+03 0.  0.
          5    1    3    3  502    0  0.41271295436E+02 -0.10069752629E+02 -0.10309861160E+03  0.11160704933E+03  0.47000000000E+01 0.  1.
         -5    1    3    3    0  502 -0.17116109532E+02  0.32835467039E+02 -0.78219060368E+03  0.78308068524E+03  0.47000000000E+01 0.  1.
        -11    1    1    2    0    0  0.31397004355E+02 -0.67643482582E+00 -0.59978858375E+02  0.67702975552E+02  0.00000000000E+00 0.  1.
         11    1    1    2    0    0 -0.55552190259E+02 -0.22089279584E+02 -0.23299741711E+03  0.24054475363E+03  0.00000000000E+00 0. -1.
<mgrwt>
<rscale>  0 0.11999614E+03</rscale>
<asrwt>0</asrwt>
<pdfrwt beam="2">  1        1 0.18316930E+00 0.12934121E+03</pdfrwt>
<pdfrwt beam="1">  1       -1 0.18976903E-02 0.12934121E+03</pdfrwt>
<totfact> 0.83378045E+03</totfact>
</mgrwt>
</event>
<event>
 7    1  0.7800420E-006  0.2727246E+03  0.7546771E-02  0.1101724E+00
         -1   -1    0    0    0  501 -0.00000000000E+00  0.00000000000E+00  0.45844946875E+03  0.45844946875E+03  0.00000000000E+00 0.  1.
          1   -1    0    0  501    0  0.00000000000E+00 -0.00000000000E+00 -0.15417608203E+03  0.15417608203E+03  0.00000000000E+00 0. -1.
         23    2    1    2    0    0 -0.71842872197E+02  0.23149534652E+03  0.15541531169E+03  0.31389904009E+03  0.12500877776E+03 0.  0.
          5    1    3    3  502    0 -0.67278562930E+02  0.57889307877E+02  0.94673973955E+02  0.12985695338E+03  0.47000000000E+01 0. -1.
         -5    1    3    3    0  502 -0.45643092674E+01  0.17360603864E+03  0.60741337732E+02  0.18404208671E+03  0.47000000000E+01 0. -1.
        -11    1    1    2    0    0  0.39104396682E+02 -0.98636212478E+02  0.11755445904E+03  0.15835816080E+03  0.00000000000E+00 0.  1.
         11    1    1    2    0    0  0.32738475515E+02 -0.13285913404E+03  0.31303615996E+02  0.14036834989E+03  0.00000000000E+00 0. -1.
<mgrwt>
<rscale>  0 0.26922560E+03</rscale>
<asrwt>0</asrwt>
<pdfrwt beam="2">  1        1 0.23719397E-01 0.27272456E+03</pdfrwt>
<pdfrwt beam="1">  1       -1 0.70530687E-01 0.27272456E+03</pdfrwt>
<totfact> 0.43383779E+02</totfact>
</mgrwt>
</event>
<event>
 7    1  0.7800420E-006  0.1151915E+03  0.7546771E-02  0.1260831E+00
         -1   -1    0    0    0  501 -0.00000000000E+00  0.00000000000E+00  0.25981187015E+02  0.25981187015E+02  0.00000000000E+00 0.  1.
          1   -1    0    0  501    0  0.00000000000E+00 -0.00000000000E+00 -0.43783390377E+03  0.43783390377E+03  0.00000000000E+00 0. -1.
         23    2    1    2    0    0  0.23169943735E+02  0.21226873960E+02 -0.26231149859E+03  0.28648979649E+03  0.11082262733E+03 0.  0.
          5    1    3    3  502    0  0.51200569336E+02  0.35120599012E+02 -0.23956636195E+03  0.24752593107E+03  0.47000000000E+01 0. -1.
         -5    1    3    3    0  502 -0.28030625600E+02 -0.13893725053E+02 -0.22745136647E+02  0.38963865420E+02  0.47000000000E+01 0.  1.
        -11    1    1    2    0    0  0.22637652853E+02 -0.33254134086E+02 -0.34790324567E+02  0.53185218285E+02  0.00000000000E+00 0. -1.
         11    1    1    2    0    0 -0.45807596588E+02  0.12027260127E+02 -0.11475089359E+03  0.12414007601E+03  0.00000000000E+00 0.  1.
<mgrwt>
<rscale>  0 0.10985912E+03</rscale>
<asrwt>0</asrwt>
<pdfrwt beam="2">  1        1 0.67359060E-01 0.11519150E+03</pdfrwt>
<pdfrwt beam="1">  1       -1 0.39971058E-02 0.11519150E+03</pdfrwt>
<totfact> 0.12387572E+04</totfact>
</mgrwt>
</event>
<event>
 7    1  0.7800420E-006  0.1326554E+03  0.7546771E-02  0.1235251E+00
          1   -1    0    0  501    0  0.00000000000E+00  0.00000000000E+00  0.74636976095E+02  0.74636976095E+02  0.00000000000E+00 0. -1.
         -1   -1    0    0    0  501 -0.00000000000E+00 -0.00000000000E+00 -0.19180665073E+03  0.19180665073E+03  0.00000000000E+00 0.  1.
         23    2    1    2    0    0  0.44336467757E+02 -0.26320303407E+01 -0.46613828813E+02  0.14060695043E+03  0.12499926206E+03 0.  0.
          5    1    3    3  502    0  0.65002040842E+02 -0.43553357369E+02 -0.50489536145E+01  0.78547706423E+02  0.47000000000E+01 0.  1.
         -5    1    3    3    0  502 -0.20665573085E+02  0.40921327028E+02 -0.41564875198E+02  0.62059244009E+02  0.47000000000E+01 0.  1.
        -11    1    1    2    0    0 -0.62395223764E+02 -0.17855732539E+02 -0.19216256311E+02  0.67684973515E+02  0.00000000000E+00 0.  1.
         11    1    1    2    0    0  0.18058756007E+02  0.20487762880E+02 -0.51339589507E+02  0.58151702873E+02  0.00000000000E+00 0. -1.
<mgrwt>
<rscale>  0 0.12488384E+03</rscale>
<asrwt>0</asrwt>
<pdfrwt beam="1">  1        1 0.11482612E-01 0.13265544E+03</pdfrwt>
<pdfrwt beam="2">  1       -1 0.29508715E-01 0.13265544E+03</pdfrwt>
<totfact> 0.53226944E+03</totfact>
</mgrwt>
</event>
<event>
 7    1  0.7800420E-006  0.1548854E+03  0.7546771E-02  0.1201814E+00
         -2   -1    0    0    0  501 -0.00000000000E+00  0.00000000000E+00  0.53569126653E+02  0.53569126653E+02  0.00000000000E+00 0.  1.
          2   -1    0    0  501    0  0.00000000000E+00 -0.00000000000E+00 -0.39891252384E+03  0.39891252384E+03  0.00000000000E+00 0. -1.
         23    2    1    2    0    0 -0.26275472308E+02  0.87595219236E+02 -0.22784441179E+03  0.27550422505E+03  0.12500471655E+03 0.  0.
          5    1    3    3  502    0  0.97036391639E+01  0.10032200081E+03 -0.21027136933E+03  0.23322693502E+03  0.47000000000E+01 0.  1.
         -5    1    3    3    0  502 -0.35979111472E+02 -0.12726781569E+02 -0.17573042469E+02  0.42277290039E+02  0.47000000000E+01 0.  1.
        -11    1    1    2    0    0 -0.27634151858E+02 -0.67785717485E+02 -0.79729029357E+02  0.10823709145E+03  0.00000000000E+00 0.  1.
         11    1    1    2    0    0  0.53909624166E+02 -0.19809501751E+02 -0.37769956030E+02  0.68740333981E+02  0.00000000000E+00 0. -1.
<mgrwt>
<rscale>  0 0.14891355E+03</rscale>
<asrwt>0</asrwt>
<pdfrwt beam="2">  1        2 0.61371160E-01 0.15488545E+03</pdfrwt>
<pdfrwt beam="1">  1       -2 0.82414038E-02 0.15488545E+03</pdfrwt>
<totfact> 0.69606016E+03</totfact>
</mgrwt>
</event>
<event>
 7    1  0.7800420E-006  0.1323400E+03  0.7546771E-02  0.1237328E+00
          2   -1    0    0  501    0  0.00000000000E+00  0.00000000000E+00  0.37529183425E+03  0.37529183425E+03  0.00000000000E+00 0. -1.
         -2   -1    0    0    0  501 -0.00000000000E+00 -0.00000000000E+00 -0.38068911377E+02  0.38068911377E+02  0.00000000000E+00 0.  1.
         23    2    1    2    0    0 -0.10502290151E+02  0.41984006464E+02  0.23654650793E+03  0.27105003147E+03  0.12506364080E+03 0.  0.
          5    1    3    3  502    0  0.25169043609E+02  0.37885336020E+02  0.17388858947E+02  0.48920771223E+02  0.47000000000E+01 0.  1.
         -5    1    3    3    0  502 -0.35671333760E+02  0.40986704436E+01  0.21915764898E+03  0.22212926025E+03  0.47000000000E+01 0.  1.
        -11    1    1    2    0    0  0.20378815555E-01 -0.48645106036E+02  0.11409170298E+03  0.12402928463E+03  0.00000000000E+00 0. -1.
         11    1    1    2    0    0  0.10481911335E+02  0.66610995718E+01 -0.13415288031E+02  0.18281429531E+02  0.00000000000E+00 0.  1.
<mgrwt>
<rscale>  0 0.12356561E+03</rscale>
<asrwt>0</asrwt>
<pdfrwt beam="1">  1        2 0.57737203E-01 0.13233998E+03</pdfrwt>
<pdfrwt beam="2">  1       -2 0.58567559E-02 0.13233998E+03</pdfrwt>
<totfact> 0.12403978E+04</totfact>
</mgrwt>
</event>
<event>
 7    1  0.7800420E-006  0.1418903E+03  0.7546771E-02  0.1222808E+00
         -1   -1    0    0    0  501 -0.00000000000E+00  0.00000000000E+00  0.72244742202E+02  0.72244742202E+02  0.00000000000E+00 0.  1.
          1   -1    0    0  501    0  0.00000000000E+00 -0.00000000000E+00 -0.37759887929E+03  0.37759887929E+03  0.00000000000E+00 0. -1.
         23    2    1    2    0    0 -0.48763653670E+02 -0.46128788110E+02 -0.30860222358E+03  0.33965891788E+03  0.12500835605E+03 0.  0.
          5    1    3    3  502    0 -0.86971382615E+02 -0.27036064614E+02 -0.15192102399E+03  0.17719214913E+03  0.47000000000E+01 0.  1.
         -5    1    3    3    0  502  0.38207728945E+02 -0.19092723497E+02 -0.15668119959E+03  0.16246676875E+03  0.47000000000E+01 0.  1.
        -11    1    1    2    0    0  0.16646736507E+02  0.18236525728E+02  0.44524169998E+02  0.50912536972E+02  0.00000000000E+00 0.  1.
         11    1    1    2    0    0  0.32116917163E+02  0.27892262383E+02 -0.41276083505E+02  0.59272166642E+02  0.00000000000E+00 0. -1.
<mgrwt>
<rscale>  0 0.13318263E+03</rscale>
<asrwt>0</asrwt>
<pdfrwt beam="2">  1        1 0.58092135E-01 0.14189027E+03</pdfrwt>
<pdfrwt beam="1">  1       -1 0.11114576E-01 0.14189027E+03</pdfrwt>
<totfact> 0.32763199E+03</totfact>
</mgrwt>
</event>
<event>
 7    1  0.7800420E-006  0.1391846E+03  0.7546771E-02  0.1225887E+00
         -1   -1    0    0    0  501 -0.00000000000E+00  0.00000000000E+00  0.14065185185E+03  0.14065185185E+03  0.00000000000E+00 0. -1.
          1   -1    0    0  501    0  0.00000000000E+00 -0.00000000000E+00 -0.12010677089E+03  0.12010677089E+03  0.00000000000E+00 0.  1.
         23    2    1    2    0    0  0.32617244650E+01 -0.61114246780E+02 -0.26426671760E+02  0.14167118639E+03  0.12500706407E+03 0.  0.
          5    1    3    3  502    0  0.28546362567E+02  0.23565991428E+02 -0.36992629774E+02  0.52543271933E+02  0.47000000000E+01 0.  1.
         -5    1    3    3    0  502 -0.25284638102E+02 -0.84680238207E+02  0.10565958014E+02  0.89127914458E+02  0.47000000000E+01 0.  1.
        -11    1    1    2    0    0 -0.38004119221E+02  0.64145094464E+02  0.31935357937E+02  0.81109637578E+02  0.00000000000E+00 0. -1.
         11    1    1    2    0    0  0.34742394756E+02 -0.30308476844E+01  0.15036394782E+02  0.37977798766E+02  0.00000000000E+00 0.  1.
<mgrwt>
<rscale>  0 0.13106297E+03</rscale>
<asrwt>0</asrwt>
<pdfrwt beam="2">  1        1 0.18477965E-01 0.13918461E+03</pdfrwt>
<pdfrwt beam="1">  1       -1 0.21638746E-01 0.13918461E+03</pdfrwt>
<totfact> 0.47996248E+03</totfact>
</mgrwt>
</event>
<event>
 7    1  0.7800420E-006  0.1483268E+03  0.7546771E-02  0.1211812E+00
          2   -1    0    0  501    0  0.00000000000E+00  0.00000000000E+00  0.37852739350E+03  0.37852739350E+03  0.00000000000E+00 0. -1.
         -2   -1    0    0    0  501 -0.00000000000E+00 -0.00000000000E+00 -0.53873296609E+02  0.53873296609E+02  0.00000000000E+00 0.  1.
         23    2    1    2    0    0 -0.28022751210E+02  0.74757332076E+02  0.24707341807E+03  0.28817721861E+03  0.12500760826E+03 0.  0.
          5    1    3    3  502    0  0.15781979709E+02  0.15938836419E+02 -0.67810777756E+01  0.23899590074E+02  0.47000000000E+01 0.  1.
         -5    1    3    3    0  502 -0.43804730919E+02  0.58818495657E+02  0.25385449584E+03  0.26427762853E+03  0.47000000000E+01 0.  1.
        -11    1    1    2    0    0 -0.29407361608E+02 -0.88098096648E+01  0.61486423780E+01  0.31308329022E+02  0.00000000000E+00 0.  1.
         11    1    1    2    0    0  0.57430112818E+02 -0.65947522411E+02  0.71432036444E+02  0.11291514248E+03  0.00000000000E+00 0. -1.
<mgrwt>
<rscale>  0 0.14113348E+03</rscale>
<asrwt>0</asrwt>
<pdfrwt beam="1">  1        2 0.58234982E-01 0.14832679E+03</pdfrwt>
<pdfrwt beam="2">  1       -2 0.82881997E-02 0.14832679E+03</pdfrwt>
<totfact> 0.72788392E+03</totfact>
</mgrwt>
</event>
<event>
 7    1  0.7800420E-006  0.1331830E+03  0.7546771E-02  0.1234983E+00
          2   -1    0    0  501    0  0.00000000000E+00  0.00000000000E+00  0.30342648641E+03  0.30342648641E+03  0.00000000000E+00 0. -1.
         -2   -1    0    0    0  501 -0.00000000000E+00 -0.00000000000E+00 -0.46416428440E+02  0.46416428440E+02  0.00000000000E+00 0.  1.
         23    2    1    2    0    0 -0.17350166579E+02 -0.42932412335E+02  0.15725482338E+03  0.20607470895E+03  0.12487387991E+03 0.  0.
          5    1    3    3  502    0  0.15382974203E+02 -0.79340737904E+02  0.11822505763E+03  0.14328587801E+03  0.47000000000E+01 0.  1.
         -5    1    3    3    0  502 -0.32733140782E+02  0.36408325569E+02  0.39029765747E+02  0.62788830938E+02  0.47000000000E+01 0.  1.
        -11    1    1    2    0    0  0.34543195545E+02 -0.15463520760E+02  0.18189151284E+02  0.41990451977E+02  0.00000000000E+00 0.  1.
         11    1    1    2    0    0 -0.17193028965E+02  0.58395933095E+02  0.81566083306E+02  0.10177775392E+03  0.00000000000E+00 0. -1.
<mgrwt>
<rscale>  0 0.12505519E+03</rscale>
<asrwt>0</asrwt>
<pdfrwt beam="1">  1        2 0.46680997E-01 0.13318298E+03</pdfrwt>
<pdfrwt beam="2">  1       -2 0.71409892E-02 0.13318298E+03</pdfrwt>
<totfact> 0.11498257E+04</totfact>
</mgrwt>
</event>
<event>
 7    1  0.7800420E-006  0.1260840E+03  0.7546771E-02  0.1248529E+00
         -2   -1    0    0    0  501 -0.00000000000E+00  0.00000000000E+00  0.27417388268E+03  0.27417388268E+03  0.00000000000E+00 0. -1.
          2   -1    0    0  501    0  0.00000000000E+00 -0.00000000000E+00 -0.48554802294E+02  0.48554802294E+02  0.00000000000E+00 0.  1.
         23    2    1    2    0    0 -0.10503190331E+02  0.12608632887E+02  0.77590284526E+02  0.14804538213E+03  0.12501155262E+03 0.  0.
          5    1    3    3  502    0 -0.17065101338E+02  0.65718530887E+02  0.62107716487E+02  0.92139033166E+02  0.47000000000E+01 0. -1.
         -5    1    3    3    0  502  0.65619110069E+01 -0.53109898000E+02  0.15482568039E+02  0.55906348966E+02  0.47000000000E+01 0. -1.
        -11    1    1    2    0    0  0.40088821786E+02  0.20697953449E+02  0.96771876654E+02  0.10677225773E+03  0.00000000000E+00 0.  1.
         11    1    1    2    0    0 -0.29585631455E+02 -0.33306586336E+02  0.51256919205E+02  0.67911045113E+02  0.00000000000E+00 0. -1.
<mgrwt>
<rscale>  0 0.11676651E+03</rscale>
<asrwt>0</asrwt>
<pdfrwt beam="2">  1        2 0.74699697E-02 0.12608403E+03</pdfrwt>
<pdfrwt beam="1">  1       -2 0.42180596E-01 0.12608403E+03</pdfrwt>
<totfact> 0.47211032E+03</totfact>
</mgrwt>
</event>
<event>
 7    1  0.7800420E-006  0.1439559E+03  0.7546771E-02  0.1218458E+00
         -1   -1    0    0    0  501 -0.00000000000E+00  0.00000000000E+00  0.20008700501E+02  0.20008700501E+02  0.00000000000E+00 0.  1.
          1   -1    0    0  501    0  0.00000000000E+00 -0.00000000000E+00 -0.85165379478E+03  0.85165379478E+03  0.00000000000E+00 0. -1.
         23    2    1    2    0    0  0.64355631123E+02 -0.30903332095E+02 -0.50846397319E+03  0.52844953613E+03  0.12500654791E+03 0.  0.
          5    1    3    3  502    0  0.40730648486E+02  0.30096971377E+02 -0.78664213749E+02  0.93674766810E+02  0.47000000000E+01 0.  1.
         -5    1    3    3    0  502  0.23624982637E+02 -0.61000303472E+02 -0.42979975944E+03  0.43477476932E+03  0.47000000000E+01 0.  1.
        -11    1    1    2    0    0 -0.70323799480E+01 -0.29893861042E+02 -0.11103757390E+03  0.11520607672E+03  0.00000000000E+00 0. -1.
         11    1    1    2    0    0 -0.57323251175E+02  0.60797193137E+02 -0.21214354720E+03  0.22800688243E+03  0.00000000000E+00 0.  1.
<mgrwt>
<rscale>  0 0.13625536E+03</rscale>
<asrwt>0</asrwt>
<pdfrwt beam="2">  1        1 0.13102369E+00 0.14395590E+03</pdfrwt>
<pdfrwt beam="1">  1       -1 0.30782610E-02 0.14395590E+03</pdfrwt>
<totfact> 0.73515934E+03</totfact>
</mgrwt>
</event>
<event>
 7    1  0.7800420E-006  0.1349549E+03  0.7546771E-02  0.1232048E+00
          1   -1    0    0  501    0  0.00000000000E+00  0.00000000000E+00  0.18532743729E+03  0.18532743729E+03  0.00000000000E+00 0. -1.
         -1   -1    0    0    0  501 -0.00000000000E+00 -0.00000000000E+00 -0.10673747693E+03  0.10673747693E+03  0.00000000000E+00 0.  1.
         23    2    1    2    0    0  0.57204079967E+01  0.50568180079E+02  0.11800443952E+03  0.17927035937E+03  0.12499180012E+03 0.  0.
          5    1    3    3  502    0  0.15272795304E+00 -0.20615523995E+02 -0.16563852189E+02  0.26860274659E+02  0.47000000000E+01 0. -1.
         -5    1    3    3    0  502  0.55676800437E+01  0.71183704074E+02  0.13456829171E+03  0.15241008471E+03  0.47000000000E+01 0. -1.
        -11    1    1    2    0    0  0.13163070177E+02 -0.30232611125E+02 -0.66368323109E+02  0.74108241810E+02  0.00000000000E+00 0.  1.
         11    1    1    2    0    0 -0.18883478174E+02 -0.20335568955E+02  0.26953843948E+02  0.38686313035E+02  0.00000000000E+00 0. -1.
<mgrwt>
<rscale>  0 0.12695322E+03</rscale>
<asrwt>0</asrwt>
<pdfrwt beam="1">  1        1 0.28511914E-01 0.13495486E+03</pdfrwt>
<pdfrwt beam="2">  1       -1 0.16421150E-01 0.13495486E+03</pdfrwt>
<totfact> 0.43073714E+03</totfact>
</mgrwt>
</event>
<event>
 7    1  0.7800420E-006  0.1252322E+03  0.7546771E-02  0.1250285E+00
         -1   -1    0    0    0  501 -0.00000000000E+00  0.00000000000E+00  0.30295326567E+03  0.30295326567E+03  0.00000000000E+00 0.  1.
          1   -1    0    0  501    0  0.00000000000E+00 -0.00000000000E+00 -0.45809403299E+02  0.45809403299E+02  0.00000000000E+00 0. -1.
         23    2    1    2    0    0  0.26485540263E+01  0.71589123553E+01  0.77668918774E+02  0.14736204432E+03  0.12499938519E+03 0.  0.
          5    1    3    3  502    0  0.20513853111E+02  0.11223598261E+01  0.10871269898E+03  0.11073670927E+03  0.47000000000E+01 0. -1.
         -5    1    3    3    0  502 -0.17865299085E+02  0.60365525292E+01 -0.31043780204E+02  0.36625335045E+02  0.47000000000E+01 0. -1.
        -11    1    1    2    0    0 -0.10638919298E+02 -0.46317718745E+02  0.67860289822E+02  0.82846464066E+02  0.00000000000E+00 0. -1.
         11    1    1    2    0    0  0.79903652716E+01  0.39158806389E+02  0.11161465377E+03  0.11855416058E+03  0.00000000000E+00 0.  1.
<mgrwt>
<rscale>  0 0.11574550E+03</rscale>
<asrwt>0</asrwt>
<pdfrwt beam="2">  1        1 0.70476007E-02 0.12523223E+03</pdfrwt>
<pdfrwt beam="1">  1       -1 0.46608194E-01 0.12523223E+03</pdfrwt>
<totfact> 0.46008384E+03</totfact>
</mgrwt>
</event>
<event>
 7    1  0.7800420E-006  0.1323194E+03  0.7546771E-02  0.1238528E+00
         -1   -1    0    0    0  501 -0.00000000000E+00  0.00000000000E+00  0.75273841896E+02  0.75273841896E+02  0.00000000000E+00 0.  1.
          1   -1    0    0  501    0  0.00000000000E+00 -0.00000000000E+00 -0.18038326699E+03  0.18038326699E+03  0.00000000000E+00 0. -1.
         23    2    1    2    0    0 -0.43299853185E+02  0.28824172281E+01 -0.78760067944E+02  0.15398562961E+03  0.12500096083E+03 0.  0.
          5    1    3    3  502    0 -0.36015461550E+02 -0.12153033651E+02  0.26968347716E+02  0.46842197601E+02  0.47000000000E+01 0. -1.
         -5    1    3    3    0  502 -0.72843916348E+01  0.15035450879E+02 -0.10572841566E+03  0.10714343201E+03  0.47000000000E+01 0. -1.
        -11    1    1    2    0    0  0.30128747457E+02 -0.33234887130E+02  0.16268465548E+02  0.47717524214E+02  0.00000000000E+00 0.  1.
         11    1    1    2    0    0  0.13171105728E+02  0.30352469902E+02 -0.42617822701E+02  0.53953955064E+02  0.00000000000E+00 0. -1.
<mgrwt>
<rscale>  0 0.12281264E+03</rscale>
<asrwt>0</asrwt>
<pdfrwt beam="2">  1        1 0.27751272E-01 0.13231941E+03</pdfrwt>
<pdfrwt beam="1">  1       -1 0.11580591E-01 0.13231941E+03</pdfrwt>
<totfact> 0.76647707E+03</totfact>
</mgrwt>
</event>
<event>
 7    1  0.7800420E-006  0.1442375E+03  0.7546771E-02  0.1218180E+00
          1   -1    0    0  501    0  0.00000000000E+00  0.00000000000E+00  0.20449789439E+03  0.20449789439E+03  0.00000000000E+00 0. -1.
         -1   -1    0    0    0  501 -0.00000000000E+00 -0.00000000000E+00 -0.86233083089E+02  0.86233083089E+02  0.00000000000E+00 0.  1.
         23    2    1    2    0    0  0.59963112596E+02  0.39810772712E+02  0.95453343800E+02  0.17296180736E+03  0.12499589380E+03 0.  0.
          5    1    3    3  502    0 -0.33581624552E+02  0.80311105357E+01  0.57070078079E+02  0.66867840222E+02  0.47000000000E+01 0. -1.
         -5    1    3    3    0  502  0.93544737148E+02  0.31779662176E+02  0.38383265721E+02  0.10609396714E+03  0.47000000000E+01 0. -1.
        -11    1    1    2    0    0 -0.62635734607E+02 -0.53151125626E+02  0.43540958444E+02  0.92973611671E+02  0.00000000000E+00 0. -1.
         11    1    1    2    0    0  0.26726220107E+01  0.13340352914E+02 -0.20729490938E+02  0.24795558450E+02  0.00000000000E+00 0.  1.
<mgrwt>
<rscale>  0 0.13645534E+03</rscale>
<asrwt>0</asrwt>
<pdfrwt beam="1">  1        1 0.31461214E-01 0.14423746E+03</pdfrwt>
<pdfrwt beam="2">  1       -1 0.13266628E-01 0.14423746E+03</pdfrwt>
<totfact> 0.53429613E+03</totfact>
</mgrwt>
</event>
<event>
 7    1  0.7800420E-006  0.2258235E+03  0.7546771E-02  0.1132864E+00
          2   -1    0    0  501    0  0.00000000000E+00  0.00000000000E+00  0.86409344959E+03  0.86409344959E+03  0.00000000000E+00 0. -1.
         -2   -1    0    0    0  501 -0.00000000000E+00 -0.00000000000E+00 -0.54706803776E+02  0.54706803776E+02  0.00000000000E+00 0.  1.
         23    2    1    2    0    0  0.15457330460E+03 -0.10713306392E+03  0.44227170048E+03  0.49658888981E+03  0.12500347418E+03 0.  0.
          5    1    3    3  502    0  0.80628660362E+02  0.13947859461E+02  0.13181902653E+03  0.15522200041E+03  0.47000000000E+01 0.  1.
         -5    1    3    3    0  502  0.73944644239E+02 -0.12108092338E+03  0.31045267395E+03  0.34136688940E+03  0.47000000000E+01 0.  1.
        -11    1    1    2    0    0 -0.11126360987E+03  0.75450201739E+02  0.33172763385E+03  0.35793232165E+03  0.00000000000E+00 0. -1.
         11    1    1    2    0    0 -0.43309694735E+02  0.31682862179E+02  0.35387311479E+02  0.64279041900E+02  0.00000000000E+00 0.  1.
<mgrwt>
<rscale>  0 0.22137287E+03</rscale>
<asrwt>0</asrwt>
<pdfrwt beam="1">  1        2 0.13293744E+00 0.22582353E+03</pdfrwt>
<pdfrwt beam="2">  1       -2 0.84164320E-02 0.22582353E+03</pdfrwt>
<totfact> 0.27861270E+03</totfact>
</mgrwt>
</event>
<event>
 7    1  0.7800420E-006  0.1483848E+03  0.7546771E-02  0.1211941E+00
         -2   -1    0    0    0  501 -0.00000000000E+00  0.00000000000E+00  0.32190795274E+02  0.32190795274E+02  0.00000000000E+00 0. -1.
          2   -1    0    0  501    0  0.00000000000E+00 -0.00000000000E+00 -0.56429179379E+03  0.56429179379E+03  0.00000000000E+00 0.  1.
         23    2    1    2    0    0  0.74184305369E+02 -0.29818804997E+02 -0.28634887294E+03  0.32251158030E+03  0.12500228038E+03 0.  0.
          5    1    3    3  502    0  0.18143596687E+02  0.46131874565E+02 -0.13705679550E+03  0.14582179242E+03  0.47000000000E+01 0. -1.
         -5    1    3    3    0  502  0.56040708682E+02 -0.75950679562E+02 -0.14929207744E+03  0.17668978788E+03  0.47000000000E+01 0. -1.
        -11    1    1    2    0    0 -0.57935485964E+01  0.32060361998E+02 -0.16472425402E+03  0.16791519252E+03  0.00000000000E+00 0.  1.
         11    1    1    2    0    0 -0.68390756773E+02 -0.22415570010E+01 -0.81027871558E+02  0.10605581624E+03  0.00000000000E+00 0. -1.
<mgrwt>
<rscale>  0 0.14103633E+03</rscale>
<asrwt>0</asrwt>
<pdfrwt beam="2">  1        2 0.86814122E-01 0.14838478E+03</pdfrwt>
<pdfrwt beam="1">  1       -2 0.49524300E-02 0.14838478E+03</pdfrwt>
<totfact> 0.10330114E+04</totfact>
</mgrwt>
</event>
<event>
 7    1  0.7800420E-006  0.1109489E+03  0.7546771E-02  0.1268314E+00
          1   -1    0    0  501    0  0.00000000000E+00  0.00000000000E+00  0.23811399246E+03  0.23811399246E+03  0.00000000000E+00 0. -1.
         -1   -1    0    0    0  501 -0.00000000000E+00 -0.00000000000E+00 -0.87097890701E+02  0.87097890701E+02  0.00000000000E+00 0.  1.
         23    2    1    2    0    0 -0.10182564470E+01  0.82201083234E+01  0.19402330373E+03  0.22350547601E+03  0.11063927145E+03 0.  0.
          5    1    3    3  502    0  0.30808767272E+02  0.22850810816E+02  0.15698020700E+02  0.41711599702E+02  0.47000000000E+01 0.  1.
         -5    1    3    3    0  502 -0.31827023719E+02 -0.14630702493E+02  0.17832528303E+03  0.18179387631E+03  0.47000000000E+01 0. -1.
        -11    1    1    2    0    0 -0.91259656034E+01 -0.40941178568E+02 -0.51491320976E+02  0.66414000682E+02  0.00000000000E+00 0.  1.
         11    1    1    2    0    0  0.10144222050E+02  0.32721070245E+02  0.84841189986E+01  0.35292406466E+02  0.00000000000E+00 0. -1.
<mgrwt>
<rscale>  0 0.10592169E+03</rscale>
<asrwt>0</asrwt>
<pdfrwt beam="1">  1        1 0.36632922E-01 0.11094889E+03</pdfrwt>
<pdfrwt beam="2">  1       -1 0.13399676E-01 0.11094889E+03</pdfrwt>
<totfact> 0.42904480E+03</totfact>
</mgrwt>
</event>
<event>
 7    1  0.7800420E-006  0.1298420E+03  0.7546771E-02  0.1241689E+00
          3   -1    0    0  501    0  0.00000000000E+00  0.00000000000E+00  0.21347462435E+03  0.21347462435E+03  0.00000000000E+00 0. -1.
         -3   -1    0    0    0  501 -0.00000000000E+00 -0.00000000000E+00 -0.72618971055E+02  0.72618971055E+02  0.00000000000E+00 0.  1.
         23    2    1    2    0    0  0.17331136792E+02  0.30543793987E+02  0.13670449283E+03  0.18853930095E+03  0.12500263193E+03 0.  0.
          5    1    3    3  502    0  0.35286468091E+02  0.74231409986E+02  0.84187749215E+02  0.11775017697E+03  0.47000000000E+01 0. -1.
         -5    1    3    3    0  502 -0.17955331299E+02 -0.43687615998E+02  0.52516743612E+02  0.70789123976E+02  0.47000000000E+01 0. -1.
        -11    1    1    2    0    0  0.42802103962E+01  0.21407742573E+02 -0.25811960442E+02  0.33806344744E+02  0.00000000000E+00 0.  1.
         11    1    1    2    0    0 -0.21611347188E+02 -0.51951536560E+02  0.29963120913E+02  0.63747949717E+02  0.00000000000E+00 0. -1.
<mgrwt>
<rscale>  0 0.12085779E+03</rscale>
<asrwt>0</asrwt>
<pdfrwt beam="1">  1        3 0.32842250E-01 0.12984202E+03</pdfrwt>
<pdfrwt beam="2">  1       -3 0.11172150E-01 0.12984202E+03</pdfrwt>
<totfact> 0.12686066E+03</totfact>
</mgrwt>
</event>
<event>
 7    1  0.7800420E-006  0.1878117E+03  0.7546771E-02  0.1164941E+00
         -3   -1    0    0    0  501 -0.00000000000E+00  0.00000000000E+00  0.15963118139E+03  0.15963118139E+03  0.00000000000E+00 0.  1.
          3   -1    0    0  501    0  0.00000000000E+00 -0.00000000000E+00 -0.21543376161E+03  0.21543376161E+03  0.00000000000E+00 0. -1.
         23    2    1    2    0    0 -0.95483529425E+02 -0.10262258434E+03 -0.79907246980E+02  0.20410388457E+03  0.12499891348E+03 0.  0.
          5    1    3    3  502    0 -0.17530636498E+02 -0.14506610532E+02  0.33406962428E+02  0.40692506728E+02  0.47000000000E+01 0.  1.
         -5    1    3    3    0  502 -0.77952892927E+02 -0.88115973806E+02 -0.11331420941E+03  0.16341137785E+03  0.47000000000E+01 0.  1.
        -11    1    1    2    0    0  0.48441288515E+02  0.68450940343E+02  0.59563076804E+02  0.10285839677E+03  0.00000000000E+00 0.  1.
         11    1    1    2    0    0  0.47042240910E+02  0.34171643995E+02 -0.35458410044E+02  0.68102661666E+02  0.00000000000E+00 0. -1.
<mgrwt>
<rscale>  0 0.18298950E+03</rscale>
<asrwt>0</asrwt>
<pdfrwt beam="2">  1        3 0.33143656E-01 0.18781168E+03</pdfrwt>
<pdfrwt beam="1">  1       -3 0.24558643E-01 0.18781168E+03</pdfrwt>
<totfact> 0.33500516E+02</totfact>
</mgrwt>
</event>
<event>
 7    1  0.7800420E-006  0.1276547E+03  0.7546771E-02  0.1244975E+00
         -1   -1    0    0    0  501 -0.00000000000E+00  0.00000000000E+00  0.84388284776E+03  0.84388284776E+03  0.00000000000E+00 0.  1.
          1   -1    0    0  501    0  0.00000000000E+00 -0.00000000000E+00 -0.14876315506E+02  0.14876315506E+02  0.00000000000E+00 0. -1.
         23    2    1    2    0    0 -0.20859712746E+02 -0.15416975747E+02  0.44584004172E+03  0.46375540342E+03  0.12499168228E+03 0.  0.
          5    1    3    3  502    0 -0.24867940228E+02 -0.59996021243E+02  0.13739245765E+03  0.15204181805E+03  0.47000000000E+01 0. -1.
         -5    1    3    3    0  502  0.40082274814E+01  0.44579045496E+02  0.30844758407E+03  0.31171358537E+03  0.47000000000E+01 0. -1.
        -11    1    1    2    0    0  0.67560224780E+01 -0.39078800747E+02  0.16294903361E+03  0.16770564708E+03  0.00000000000E+00 0. -1.
         11    1    1    2    0    0  0.14103690268E+02  0.54495776494E+02  0.22021745692E+03  0.22729811277E+03  0.00000000000E+00 0.  1.
<mgrwt>
<rscale>  0 0.11886896E+03</rscale>
<asrwt>0</asrwt>
<pdfrwt beam="2">  1        1 0.22886646E-02 0.12765474E+03</pdfrwt>
<pdfrwt beam="1">  1       -1 0.12982809E+00 0.12765474E+03</pdfrwt>
<totfact> 0.26249516E+03</totfact>
</mgrwt>
</event>
<event>
 7    1  0.7800420E-006  0.1529083E+03  0.7546771E-02  0.1204716E+00
          1   -1    0    0  501    0  0.00000000000E+00  0.00000000000E+00  0.16352474027E+03  0.16352474027E+03  0.00000000000E+00 0. -1.
         -1   -1    0    0    0  501 -0.00000000000E+00 -0.00000000000E+00 -0.14633993943E+03  0.14633993943E+03  0.00000000000E+00 0.  1.
         23    2    1    2    0    0 -0.84292780481E+02  0.25519867879E+02  0.72628860720E+02  0.16928056945E+03  0.12499769312E+03 0.  0.
          5    1    3    3  502    0 -0.38234953753E+02  0.68057828785E+02  0.72156293164E+02  0.10640676854E+03  0.47000000000E+01 0. -1.
         -5    1    3    3    0  502 -0.46057826728E+02 -0.42537960906E+02  0.47256755619E+00  0.62873800911E+02  0.47000000000E+01 0. -1.
        -11    1    1    2    0    0  0.37346393154E+02  0.17182201590E+02 -0.64492272070E+02  0.76480286936E+02  0.00000000000E+00 0.  1.
         11    1    1    2    0    0  0.46946387327E+02 -0.42702069469E+02  0.90482121861E+01  0.64103823316E+02  0.00000000000E+00 0. -1.
<mgrwt>
<rscale>  0 0.14659863E+03</rscale>
<asrwt>0</asrwt>
<pdfrwt beam="1">  1        1 0.25157653E-01 0.15290834E+03</pdfrwt>
<pdfrwt beam="2">  1       -1 0.22513837E-01 0.15290834E+03</pdfrwt>
<totfact> 0.30582469E+03</totfact>
</mgrwt>
</event>
<event>
 7    1  0.7800420E-006  0.2036844E+03  0.7546771E-02  0.1150419E+00
         -1   -1    0    0    0  501 -0.00000000000E+00  0.00000000000E+00  0.89148399148E+02  0.89148399148E+02  0.00000000000E+00 0.  1.
          1   -1    0    0  501    0  0.00000000000E+00 -0.00000000000E+00 -0.74354162990E+03  0.74354162990E+03  0.00000000000E+00 0. -1.
         23    2    1    2    0    0 -0.10694589507E+03 -0.13015073363E+03 -0.60725392936E+03  0.64050345897E+03  0.11450200131E+03 0.  0.
          5    1    3    3  502    0 -0.86084022954E+02 -0.15080808362E+03 -0.52900115524E+03  0.55679246524E+03  0.47000000000E+01 0. -1.
         -5    1    3    3    0  502 -0.20861872111E+02  0.20657349991E+02 -0.78252774112E+02  0.83710993739E+02  0.47000000000E+01 0.  1.
        -11    1    1    2    0    0  0.23421939307E+01  0.31420203589E+02 -0.36112970341E+02  0.47925584950E+02  0.00000000000E+00 0. -1.
         11    1    1    2    0    0  0.10460370113E+03  0.98730530042E+02 -0.11026331060E+02  0.14426098513E+03  0.00000000000E+00 0.  1.
<mgrwt>
<rscale>  0 0.19919607E+03</rscale>
<asrwt>0</asrwt>
<pdfrwt beam="2">  1        1 0.11439102E+00 0.20368443E+03</pdfrwt>
<pdfrwt beam="1">  1       -1 0.13715138E-01 0.20368443E+03</pdfrwt>
<totfact> 0.95817657E+02</totfact>
</mgrwt>
</event>
<event>
 7    1  0.7800420E-006  0.1587403E+03  0.7546771E-02  0.1197744E+00
         -1   -1    0    0    0  501 -0.00000000000E+00  0.00000000000E+00  0.35141639835E+02  0.35141639835E+02  0.00000000000E+00 0.  1.
          1   -1    0    0  501    0  0.00000000000E+00 -0.00000000000E+00 -0.61621769701E+03  0.61621769701E+03  0.00000000000E+00 0. -1.
         23    2    1    2    0    0 -0.75140770733E+02  0.62678444503E+02 -0.34466462621E+03  0.37946303714E+03  0.12499507656E+03 0.  0.
          5    1    3    3  502    0 -0.91495640887E+02  0.88726610080E+02 -0.27192750096E+03  0.30035066076E+03  0.47000000000E+01 0. -1.
         -5    1    3    3    0  502  0.16354870154E+02 -0.26048165577E+02 -0.72737125249E+02  0.79112376384E+02  0.47000000000E+01 0. -1.
        -11    1    1    2    0    0 -0.16247841143E+02 -0.11857648139E+02 -0.99132307153E+01  0.22424725292E+02  0.00000000000E+00 0.  1.
         11    1    1    2    0    0  0.91388611876E+02 -0.50820796364E+02 -0.22649820024E+03  0.24947157441E+03  0.00000000000E+00 0. -1.
<mgrwt>
<rscale>  0 0.15224278E+03</rscale>
<asrwt>0</asrwt>
<pdfrwt beam="2">  1        1 0.94802715E-01 0.15874033E+03</pdfrwt>
<pdfrwt beam="1">  1       -1 0.54064066E-02 0.15874033E+03</pdfrwt>
<totfact> 0.51627097E+03</totfact>
</mgrwt>
</event>
<event>
 7    1  0.9263884E-006  0.1605199E+03  0.7546771E-02  0.1195836E+00
         -1   -1    0    0    0  501 -0.00000000000E+00  0.00000000000E+00  0.14302281098E+03  0.14302281098E+03  0.00000000000E+00 0.  1.
          1   -1    0    0  501    0  0.00000000000E+00 -0.00000000000E+00 -0.15321450512E+03  0.15321450512E+03  0.00000000000E+00 0. -1.
         23    2    1    2    0    0  0.73935295883E+02 -0.68378856354E+02 -0.11618150249E+01  0.16052410871E+03  0.12499817475E+03 0.  0.
          5    1    3    3  502    0  0.84398612420E+00 -0.12826429714E+02  0.52382098449E+02  0.54140593363E+02  0.47000000000E+01 0. -1.
         -5    1    3    3    0  502  0.73091309759E+02 -0.55552426640E+02 -0.53543913474E+02  0.10638351535E+03  0.47000000000E+01 0. -1.
        -11    1    1    2    0    0 -0.35974026896E+02 -0.10733744288E+02  0.20941412889E+02  0.42987052136E+02  0.00000000000E+00 0.  1.
         11    1    1    2    0    0 -0.37961268987E+02  0.79112600642E+02 -0.29971292010E+02  0.92726155254E+02  0.00000000000E+00 0. -1.
<mgrwt>
<rscale>  0 0.15383719E+03</rscale>
<asrwt>0</asrwt>
<pdfrwt beam="2">  1        1 0.23571462E-01 0.16051990E+03</pdfrwt>
<pdfrwt beam="1">  1       -1 0.22003509E-01 0.16051990E+03</pdfrwt>
<totfact> 0.34547004E+03</totfact>
</mgrwt>
</event>
<event>
 7    1  0.7800420E-006  0.1294055E+03  0.7546771E-02  0.1242187E+00
          1   -1    0    0  501    0  0.00000000000E+00  0.00000000000E+00  0.17140634493E+03  0.17140634493E+03  0.00000000000E+00 0. -1.
         -1   -1    0    0    0  501 -0.00000000000E+00 -0.00000000000E+00 -0.78384271491E+02  0.78384271491E+02  0.00000000000E+00 0.  1.
         23    2    1    2    0    0  0.16340644654E+02  0.29204773103E+02  0.78210629328E+02  0.15120410592E+03  0.12500337462E+03 0.  0.
          5    1    3    3  502    0  0.52403092312E+01  0.28516433835E+02  0.11175627605E+03  0.11555173333E+03  0.47000000000E+01 0. -1.
         -5    1    3    3    0  502  0.11100335422E+02  0.68833926823E+00 -0.33545646719E+02  0.35652372589E+02  0.47000000000E+01 0. -1.
        -11    1    1    2    0    0 -0.47545725450E+02  0.10849490205E+01 -0.98858327532E+01  0.48574713712E+02  0.00000000000E+00 0. -1.
         11    1    1    2    0    0  0.31205080797E+02 -0.30289722123E+02  0.24697276866E+02  0.50011796793E+02  0.00000000000E+00 0.  1.
<mgrwt>
<rscale>  0 0.12055341E+03</rscale>
<asrwt>0</asrwt>
<pdfrwt beam="1">  1        1 0.26370207E-01 0.12940548E+03</pdfrwt>
<pdfrwt beam="2">  1       -1 0.12059119E-01 0.12940548E+03</pdfrwt>
<totfact> 0.76626203E+03</totfact>
</mgrwt>
</event>
<event>
 7    1  0.7800420E-006  0.2533959E+03  0.7546771E-02  0.1113996E+00
         -3   -1    0    0    0  501 -0.00000000000E+00  0.00000000000E+00  0.11357848965E+03  0.11357848965E+03  0.00000000000E+00 0.  1.
          3   -1    0    0  501    0  0.00000000000E+00 -0.00000000000E+00 -0.67535365396E+03  0.67535365396E+03  0.00000000000E+00 0. -1.
         23    2    1    2    0    0 -0.10552797469E+03  0.19352007591E+03 -0.47349086698E+03  0.53703173460E+03  0.12499323834E+03 0.  0.
          5    1    3    3  502    0 -0.32219008353E+02 -0.11503013323E+02 -0.83346271197E+02  0.90216820700E+02  0.47000000000E+01 0. -1.
         -5    1    3    3    0  502 -0.73308966336E+02  0.20502308924E+03 -0.39014459578E+03  0.44681491390E+03  0.47000000000E+01 0. -1.
        -11    1    1    2    0    0  0.62213898297E+02 -0.88808131462E+02 -0.86272893086E+02  0.13856574409E+03  0.00000000000E+00 0. -1.
         11    1    1    2    0    0  0.43314076392E+02 -0.10471194445E+03 -0.20114042366E+01  0.11333466492E+03  0.00000000000E+00 0.  1.
<mgrwt>
<rscale>  0 0.24890997E+03</rscale>
<asrwt>0</asrwt>
<pdfrwt beam="2">  1        3 0.10390056E+00 0.25339590E+03</pdfrwt>
<pdfrwt beam="1">  1       -3 0.17473614E-01 0.25339590E+03</pdfrwt>
<totfact> 0.58749945E+01</totfact>
</mgrwt>
</event>
<event>
 7    1  0.7800420E-006  0.1343742E+03  0.7546771E-02  0.1237500E+00
         -1   -1    0    0    0  501 -0.00000000000E+00  0.00000000000E+00  0.17128565083E+03  0.17128565083E+03  0.00000000000E+00 0.  1.
          1   -1    0    0  501    0  0.00000000000E+00 -0.00000000000E+00 -0.79059220118E+02  0.79059220118E+02  0.00000000000E+00 0. -1.
         23    2    1    2    0    0  0.25627476410E+02  0.42097828043E+02  0.35222657738E+02  0.13891381468E+03  0.12500967010E+03 0.  0.
          5    1    3    3  502    0  0.68199325835E+02  0.23141507737E+02  0.52224907808E+02  0.89085399591E+02  0.47000000000E+01 0. -1.
         -5    1    3    3    0  502 -0.42571849425E+02  0.18956320307E+02 -0.17002250070E+02  0.49828415091E+02  0.47000000000E+01 0. -1.
        -11    1    1    2    0    0 -0.46048728257E+00 -0.38974896900E+02 -0.96171838283E+01  0.40146542338E+02  0.00000000000E+00 0. -1.
         11    1    1    2    0    0 -0.25166989127E+02 -0.31229311431E+01  0.66620956801E+02  0.71284513927E+02  0.00000000000E+00 0.  1.
<mgrwt>
<rscale>  0 0.12345761E+03</rscale>
<asrwt>0</asrwt>
<pdfrwt beam="2">  1        1 0.12162957E-01 0.13437415E+03</pdfrwt>
<pdfrwt beam="1">  1       -1 0.26351638E-01 0.13437415E+03</pdfrwt>
<totfact> 0.59627162E+03</totfact>
</mgrwt>
</event>
<event>
 7    1  0.7800420E-006  0.1334331E+03  0.7546771E-02  0.1229943E+00
          1   -1    0    0  501    0  0.00000000000E+00  0.00000000000E+00  0.17697518729E+03  0.17697518729E+03  0.00000000000E+00 0. -1.
         -1   -1    0    0    0  501 -0.00000000000E+00 -0.00000000000E+00 -0.96785452016E+02  0.96785452016E+02  0.00000000000E+00 0.  1.
         23    2    1    2    0    0  0.44025327349E+02 -0.15488643534E+02  0.87127357616E+02  0.15935986434E+03  0.12500504946E+03 0.  0.
          5    1    3    3  502    0  0.47156359576E+02  0.21243242848E+02 -0.12166113742E+02  0.53339496986E+02  0.47000000000E+01 0. -1.
         -5    1    3    3    0  502 -0.31310322263E+01 -0.36731886382E+02  0.99293471357E+02  0.10602036736E+03  0.47000000000E+01 0. -1.
        -11    1    1    2    0    0 -0.38822917079E+02 -0.11487106143E+02  0.41963776502E+02  0.58310642565E+02  0.00000000000E+00 0. -1.
         11    1    1    2    0    0 -0.52024102700E+01  0.26975749677E+02 -0.48901398846E+02  0.56090132397E+02  0.00000000000E+00 0.  1.
<mgrwt>
<rscale>  0 0.12833789E+03</rscale>
<asrwt>0</asrwt>
<pdfrwt beam="1">  1        1 0.27226952E-01 0.13343309E+03</pdfrwt>
<pdfrwt beam="2">  1       -1 0.14890070E-01 0.13343309E+03</pdfrwt>
<totfact> 0.53174634E+03</totfact>
</mgrwt>
</event>
<event>
 7    1  0.7800420E-006  0.1416238E+03  0.7546771E-02  0.1219770E+00
         -2   -1    0    0    0  501 -0.00000000000E+00  0.00000000000E+00  0.17910297760E+02  0.17910297760E+02  0.00000000000E+00 0. -1.
          2   -1    0    0  501    0  0.00000000000E+00 -0.00000000000E+00 -0.11007309226E+04  0.11007309226E+04  0.00000000000E+00 0.  1.
         23    2    1    2    0    0  0.34399637304E+02  0.56998618428E+02 -0.79567250631E+03  0.80817821843E+03  0.12500047159E+03 0.  0.
          5    1    3    3  502    0  0.17511852372E+02 -0.36948365495E+02 -0.34754224392E+03  0.34997078163E+03  0.47000000000E+01 0. -1.
         -5    1    3    3    0  502  0.16887784932E+02  0.93946983923E+02 -0.44813026239E+03  0.45820743680E+03  0.47000000000E+01 0. -1.
        -11    1    1    2    0    0  0.58422091879E+01 -0.57238114789E+02 -0.74974089754E+02  0.94506334853E+02  0.00000000000E+00 0. -1.
         11    1    1    2    0    0 -0.40241846492E+02  0.23949636149E+00 -0.21217402875E+03  0.21595666705E+03  0.00000000000E+00 0.  1.
<mgrwt>
<rscale>  0 0.13531895E+03</rscale>
<asrwt>0</asrwt>
<pdfrwt beam="2">  1        2 0.16934325E+00 0.14162378E+03</pdfrwt>
<pdfrwt beam="1">  1       -2 0.27554299E-02 0.14162378E+03</pdfrwt>
<totfact> 0.10622879E+04</totfact>
</mgrwt>
</event>
<event>
 7    1  0.7800420E-006  0.1856269E+03  0.7546771E-02  0.1167635E+00
          4   -1    0    0  501    0  0.00000000000E+00  0.00000000000E+00  0.36233512938E+02  0.36233512938E+02  0.00000000000E+00 0. -1.
         -4   -1    0    0    0  501 -0.00000000000E+00 -0.00000000000E+00 -0.88077763713E+03  0.88077763713E+03  0.00000000000E+00 0.  1.
         23    2    1    2    0    0 -0.32464602476E+02  0.13333816812E+03 -0.35692097619E+03  0.40230577450E+03  0.12499734182E+03 0.  0.
          5    1    3    3  502    0 -0.15966294167E+02 -0.20416332974E+02 -0.90161032307E+02  0.93930032195E+02  0.47000000000E+01 0.  1.
         -5    1    3    3    0  502 -0.16498308308E+02  0.15375450109E+03 -0.26675994388E+03  0.30837574231E+03  0.47000000000E+01 0.  1.
        -11    1    1    2    0    0  0.57859904691E+02 -0.11844266670E+03 -0.43342063075E+03  0.45302304249E+03  0.00000000000E+00 0.  1.
         11    1    1    2    0    0 -0.25395302216E+02 -0.14895501418E+02 -0.54202517255E+02  0.61682333077E+02  0.00000000000E+00 0. -1.
<mgrwt>
<rscale>  0 0.18017417E+03</rscale>
<asrwt>0</asrwt>
<pdfrwt beam="1">  1        4 0.55743856E-02 0.18562692E+03</pdfrwt>
<pdfrwt beam="2">  1       -4 0.13550428E+00 0.18562692E+03</pdfrwt>
<totfact> 0.14493041E+02</totfact>
</mgrwt>
</event>
<event>
 7    1  0.7800420E-006  0.1440097E+03  0.7546771E-02  0.1218816E+00
          2   -1    0    0  501    0  0.00000000000E+00  0.00000000000E+00  0.27579149280E+03  0.27579149280E+03  0.00000000000E+00 0. -1.
         -2   -1    0    0    0  501 -0.00000000000E+00 -0.00000000000E+00 -0.10065131729E+03  0.10065131729E+03  0.00000000000E+00 0.  1.
         23    2    1    2    0    0  0.71506887552E+02  0.72370647364E+00  0.21184919466E+03  0.25616180024E+03  0.12500011162E+03 0.  0.
          5    1    3    3  502    0  0.99036427267E+02 -0.76400586654E+00  0.20446278165E+03  0.22723537733E+03  0.47000000000E+01 0. -1.
         -5    1    3    3    0  502 -0.27529539715E+02  0.14877123402E+01  0.73864130032E+01  0.28926422903E+02  0.47000000000E+01 0. -1.
        -11    1    1    2    0    0 -0.38113026326E+01 -0.31499531206E+02 -0.33068954154E+02  0.45829054352E+02  0.00000000000E+00 0.  1.
         11    1    1    2    0    0 -0.67695584919E+02  0.30775824733E+02 -0.36400649884E+01  0.74451955506E+02  0.00000000000E+00 0. -1.
<mgrwt>
<rscale>  0 0.13599889E+03</rscale>
<asrwt>0</asrwt>
<pdfrwt beam="1">  1        2 0.42429460E-01 0.14400968E+03</pdfrwt>
<pdfrwt beam="2">  1       -2 0.15484818E-01 0.14400968E+03</pdfrwt>
<totfact> 0.37600066E+03</totfact>
</mgrwt>
</event>
<event>
 7    1  0.7800420E-006  0.1315095E+03  0.7546771E-02  0.1238262E+00
          2   -1    0    0  501    0  0.00000000000E+00  0.00000000000E+00  0.43134351347E+03  0.43134351347E+03  0.00000000000E+00 0.  1.
         -2   -1    0    0    0  501 -0.00000000000E+00 -0.00000000000E+00 -0.36106163025E+02  0.36106163025E+02  0.00000000000E+00 0. -1.
         23    2    1    2    0    0 -0.68152649357E+01 -0.40331495820E+02  0.30575240285E+03  0.33283519885E+03  0.12498664070E+03 0.  0.
          5    1    3    3  502    0  0.10056426393E+02 -0.56171582203E+02  0.50063198384E+02  0.76057821369E+02  0.47000000000E+01 0.  1.
         -5    1    3    3    0  502 -0.16871691329E+02  0.15840086384E+02  0.25568920447E+03  0.25677737748E+03  0.47000000000E+01 0.  1.
        -11    1    1    2    0    0  0.35345921138E+02 -0.11797339012E+02  0.53316785599E+02  0.65047605455E+02  0.00000000000E+00 0.  1.
         11    1    1    2    0    0 -0.28530656202E+02  0.52128834831E+02  0.36168161994E+02  0.69566872189E+02  0.00000000000E+00 0. -1.
<mgrwt>
<rscale>  0 0.12297885E+03</rscale>
<asrwt>0</asrwt>
<pdfrwt beam="1">  1        2 0.66360537E-01 0.13150946E+03</pdfrwt>
<pdfrwt beam="2">  1       -2 0.55547946E-02 0.13150946E+03</pdfrwt>
<totfact> 0.11573917E+04</totfact>
</mgrwt>
</event>
<event>
 7    1  0.7800420E-006  0.1264950E+03  0.7546771E-02  0.1246814E+00
         -2   -1    0    0    0  501 -0.00000000000E+00  0.00000000000E+00  0.23775583771E+02  0.23775583771E+02  0.00000000000E+00 0.  1.
          2   -1    0    0  501    0  0.00000000000E+00 -0.00000000000E+00 -0.51901551958E+03  0.51901551958E+03  0.00000000000E+00 0. -1.
         23    2    1    2    0    0  0.51778157649E+01 -0.18694960266E+02 -0.30256599925E+03  0.32794384660E+03  0.12499868522E+03 0.  0.
          5    1    3    3  502    0 -0.44625402775E+02 -0.17517085554E+02 -0.46214383215E+02  0.66754281324E+02  0.47000000000E+01 0.  1.
         -5    1    3    3    0  502  0.49803218540E+02 -0.11778747130E+01 -0.25635161604E+03  0.26118956528E+03  0.47000000000E+01 0.  1.
        -11    1    1    2    0    0  0.29558847106E+02  0.13536014448E+02 -0.18994225398E+02  0.37652751929E+02  0.00000000000E+00 0.  1.
         11    1    1    2    0    0 -0.34736662871E+02  0.51589458181E+01 -0.17367971116E+03  0.17719450482E+03  0.00000000000E+00 0. -1.
<mgrwt>
<rscale>  0 0.11777486E+03</rscale>
<asrwt>0</asrwt>
<pdfrwt beam="2">  1        2 0.79848549E-01 0.12649499E+03</pdfrwt>
<pdfrwt beam="1">  1       -2 0.36577818E-02 0.12649499E+03</pdfrwt>
<totfact> 0.17600439E+04</totfact>
</mgrwt>
</event>
<event>
 7    1  0.7800420E-006  0.1436470E+03  0.7546771E-02  0.1218495E+00
         -2   -1    0    0    0  501 -0.00000000000E+00  0.00000000000E+00  0.80004410367E+02  0.80004410367E+02  0.00000000000E+00 0.  1.
          2   -1    0    0  501    0  0.00000000000E+00 -0.00000000000E+00 -0.21195786227E+03  0.21195786227E+03  0.00000000000E+00 0. -1.
         23    2    1    2    0    0  0.43881160728E+02 -0.55532900273E+02 -0.82768854134E+02  0.16578644438E+03  0.12500001058E+03 0.  0.
          5    1    3    3  502    0  0.76876060304E+02 -0.17599316364E+02 -0.83948008265E+02  0.11527802339E+03  0.47000000000E+01 0.  1.
         -5    1    3    3    0  502 -0.32994899577E+02 -0.37933583910E+02  0.11791541318E+01  0.50508420989E+02  0.47000000000E+01 0.  1.
        -11    1    1    2    0    0 -0.67628098720E+02  0.40794927432E+02 -0.56711302646E+02  0.97231464498E+02  0.00000000000E+00 0. -1.
         11    1    1    2    0    0  0.23746937992E+02  0.14737972841E+02  0.75267048744E+01  0.28944363765E+02  0.00000000000E+00 0.  1.
<mgrwt>
<rscale>  0 0.13622883E+03</rscale>
<asrwt>0</asrwt>
<pdfrwt beam="2">  1        2 0.32608902E-01 0.14364700E+03</pdfrwt>
<pdfrwt beam="1">  1       -2 0.12308371E-01 0.14364700E+03</pdfrwt>
<totfact> 0.72295831E+03</totfact>
</mgrwt>
</event>
<event>
 7    1  0.7800420E-006  0.1233261E+03  0.7546771E-02  0.1282088E+00
          2   -1    0    0  501    0  0.00000000000E+00  0.00000000000E+00  0.17877090402E+03  0.17877090402E+03  0.00000000000E+00 0. -1.
         -2   -1    0    0    0  501 -0.00000000000E+00 -0.00000000000E+00 -0.59270855371E+02  0.59270855371E+02  0.00000000000E+00 0.  1.
         23    2    1    2    0    0  0.14715434117E+02 -0.47689987125E+01  0.13632963089E+03  0.18383444438E+03  0.12235214477E+03 0.  0.
          5    1    3    3  502    0 -0.19536793033E+01 -0.41061932170E+02  0.13751355956E+03  0.14360351040E+03  0.47000000000E+01 0. -1.
         -5    1    3    3    0  502  0.16669113421E+02  0.36292933457E+02 -0.11839286751E+01  0.40230933972E+02  0.47000000000E+01 0.  1.
        -11    1    1    2    0    0  0.16227606743E+02 -0.20244907756E+01  0.32863416052E+01  0.16680342462E+02  0.00000000000E+00 0. -1.
         11    1    1    2    0    0 -0.30943040860E+02  0.67934894881E+01 -0.20115923843E+02  0.37526972556E+02  0.00000000000E+00 0.  1.
<mgrwt>
<rscale>  0 0.99152450E+02</rscale>
<asrwt>0</asrwt>
<pdfrwt beam="1">  1        2 0.27503216E-01 0.12332613E+03</pdfrwt>
<pdfrwt beam="2">  1       -2 0.91185932E-02 0.12332613E+03</pdfrwt>
<totfact> 0.13791919E+04</totfact>
</mgrwt>
</event>
<event>
 7    1  0.7800420E-006  0.1357573E+03  0.7546771E-02  0.1231610E+00
          2   -1    0    0  501    0  0.00000000000E+00  0.00000000000E+00  0.16958980813E+04  0.16958980813E+04  0.00000000000E+00 0. -1.
         -2   -1    0    0    0  501 -0.00000000000E+00 -0.00000000000E+00 -0.11066987217E+02  0.11066987217E+02  0.00000000000E+00 0.  1.
         23    2    1    2    0    0  0.60386085281E+01 -0.52608156471E+02  0.13322654316E+04  0.13391643752E+04  0.12500384320E+03 0.  0.
          5    1    3    3  502    0 -0.10903119497E+02 -0.59703152154E+02  0.27194985943E+03  0.27867931469E+03  0.47000000000E+01 0. -1.
         -5    1    3    3    0  502  0.16941728025E+02  0.70949956830E+01  0.10603155722E+04  0.10604850606E+04  0.47000000000E+01 0. -1.
        -11    1    1    2    0    0 -0.24731255453E+02  0.67906511438E+02  0.31466263139E+03  0.32285523209E+03  0.00000000000E+00 0. -1.
         11    1    1    2    0    0  0.18692646925E+02 -0.15298354968E+02  0.37903031101E+02  0.44945461177E+02  0.00000000000E+00 0.  1.
<mgrwt>
<rscale>  0 0.12723951E+03</rscale>
<asrwt>0</asrwt>
<pdfrwt beam="1">  1        2 0.26090719E+00 0.13575730E+03</pdfrwt>
<pdfrwt beam="2">  1       -2 0.17026148E-02 0.13575730E+03</pdfrwt>
<totfact> 0.10285309E+04</totfact>
</mgrwt>
</event>
<event>
 7    1  0.7800420E-006  0.1266261E+03  0.7546771E-02  0.1246147E+00
         -2   -1    0    0    0  501 -0.00000000000E+00  0.00000000000E+00  0.17710654497E+03  0.17710654497E+03  0.00000000000E+00 0.  1.
          2   -1    0    0  501    0  0.00000000000E+00 -0.00000000000E+00 -0.82739208968E+02  0.82739208968E+02  0.00000000000E+00 0. -1.
         23    2    1    2    0    0 -0.20245348470E+02  0.21695050906E+00  0.20683703265E+01  0.12664298683E+03  0.12499698698E+03 0.  0.
          5    1    3    3  502    0  0.51250738940E+02 -0.13906499780E+02 -0.33240090537E+01  0.53415054191E+02  0.47000000000E+01 0.  1.
         -5    1    3    3    0  502 -0.71496087410E+02  0.14123450289E+02  0.53923793802E+01  0.73227932638E+02  0.47000000000E+01 0.  1.
        -11    1    1    2    0    0  0.32147781675E+02 -0.13151185165E+02  0.10559644074E+03  0.11116223206E+03  0.00000000000E+00 0.  1.
         11    1    1    2    0    0 -0.11902433205E+02  0.12934234656E+02 -0.13297475066E+02  0.22040535055E+02  0.00000000000E+00 0. -1.
<mgrwt>
<rscale>  0 0.11816983E+03</rscale>
<asrwt>0</asrwt>
<pdfrwt beam="2">  1        2 0.12729109E-01 0.12662610E+03</pdfrwt>
<pdfrwt beam="1">  1       -2 0.27247161E-01 0.12662610E+03</pdfrwt>
<totfact> 0.54751244E+03</totfact>
</mgrwt>
</event>
<event>
 7    1  0.7800420E-006  0.1553212E+03  0.7546771E-02  0.1202350E+00
         -1   -1    0    0    0  501 -0.00000000000E+00  0.00000000000E+00  0.50904250873E+02  0.50904250873E+02  0.00000000000E+00 0.  1.
          1   -1    0    0  501    0  0.00000000000E+00 -0.00000000000E+00 -0.49206854961E+03  0.49206854961E+03  0.00000000000E+00 0. -1.
         23    2    1    2    0    0 -0.88394805179E+02  0.26213134337E+02 -0.35431462544E+03  0.38686372423E+03  0.12499566925E+03 0.  0.
          5    1    3    3  502    0 -0.45554335807E+02 -0.42943802791E+01 -0.32133005135E+03  0.32460550074E+03  0.47000000000E+01 0.  1.
         -5    1    3    3    0  502 -0.42840469372E+02  0.30507514616E+02 -0.32984574090E+02  0.62258223488E+02  0.47000000000E+01 0.  1.
        -11    1    1    2    0    0  0.68748948751E+02 -0.37343595887E+02 -0.13538411282E+02  0.79399311635E+02  0.00000000000E+00 0.  1.
         11    1    1    2    0    0  0.19645856428E+02  0.11130461550E+02 -0.73311262011E+02  0.76709764612E+02  0.00000000000E+00 0. -1.
<mgrwt>
<rscale>  0 0.14848225E+03</rscale>
<asrwt>0</asrwt>
<pdfrwt beam="2">  1        1 0.75702856E-01 0.15532124E+03</pdfrwt>
<pdfrwt beam="1">  1       -1 0.78314230E-02 0.15532124E+03</pdfrwt>
<totfact> 0.39987256E+03</totfact>
</mgrwt>
</event>
<event>
 7    1  0.7800420E-006  0.1418506E+03  0.7546771E-02  0.1240330E+00
         -2   -1    0    0    0  501 -0.00000000000E+00  0.00000000000E+00  0.79561766688E+02  0.79561766688E+02  0.00000000000E+00 0. -1.
          2   -1    0    0  501    0  0.00000000000E+00 -0.00000000000E+00 -0.15027593905E+03  0.15027593905E+03  0.00000000000E+00 0.  1.
         23    2    1    2    0    0 -0.61514825892E+02  0.31391030363E+02 -0.45536615979E+02  0.14898045182E+03  0.12390367645E+03 0.  0.
          5    1    3    3  502    0 -0.89544002549E+02  0.33195476341E+02 -0.40527232745E+00  0.95615491881E+02  0.47000000000E+01 0. -1.
         -5    1    3    3    0  502  0.28029176657E+02 -0.18044459778E+01 -0.45131343652E+02  0.53364959938E+02  0.47000000000E+01 0.  1.
        -11    1    1    2    0    0  0.43689243639E+02 -0.49790298486E+01 -0.81237348824E+01  0.44716169518E+02  0.00000000000E+00 0. -1.
         11    1    1    2    0    0  0.17825582254E+02 -0.26412000515E+02 -0.17053821498E+02  0.36141084400E+02  0.00000000000E+00 0.  1.
<mgrwt>
<rscale>  0 0.12169326E+03</rscale>
<asrwt>0</asrwt>
<pdfrwt beam="2">  1        2 0.23119375E-01 0.14185060E+03</pdfrwt>
<pdfrwt beam="1">  1       -2 0.12240272E-01 0.14185060E+03</pdfrwt>
<totfact> 0.10618225E+04</totfact>
</mgrwt>
</event>
<event>
 7    1  0.7800420E-006  0.1491932E+03  0.7546771E-02  0.1211875E+00
          2   -1    0    0  501    0  0.00000000000E+00  0.00000000000E+00  0.37940569348E+03  0.37940569348E+03  0.00000000000E+00 0. -1.
         -2   -1    0    0    0  501 -0.00000000000E+00 -0.00000000000E+00 -0.48917415767E+02  0.48917415767E+02  0.00000000000E+00 0.  1.
         23    2    1    2    0    0 -0.80615164637E+02  0.11613875294E+02  0.21926272234E+03  0.26520702596E+03  0.12499975336E+03 0.  0.
          5    1    3    3  502    0 -0.41051276896E+02  0.65740959545E+02  0.85420140703E+02  0.11543730564E+03  0.47000000000E+01 0. -1.
         -5    1    3    3    0  502 -0.39563887740E+02 -0.54127084251E+02  0.13384258164E+03  0.14976972031E+03  0.47000000000E+01 0. -1.
        -11    1    1    2    0    0  0.74130487832E+02  0.24627963336E+02  0.94700612482E+02  0.12276022079E+03  0.00000000000E+00 0. -1.
         11    1    1    2    0    0  0.64846768050E+01 -0.36241838630E+02  0.16524942890E+02  0.40355862499E+02  0.00000000000E+00 0.  1.
<mgrwt>
<rscale>  0 0.14108614E+03</rscale>
<asrwt>0</asrwt>
<pdfrwt beam="1">  1        2 0.58370105E-01 0.14919325E+03</pdfrwt>
<pdfrwt beam="2">  1       -2 0.75257565E-02 0.14919325E+03</pdfrwt>
<totfact> 0.84325496E+03</totfact>
</mgrwt>
</event>
<event>
 7    1  0.7800420E-006  0.1313070E+03  0.7546771E-02  0.1238708E+00
          1   -1    0    0  501    0  0.00000000000E+00  0.00000000000E+00  0.10092740129E+03  0.10092740129E+03  0.00000000000E+00 0. -1.
         -1   -1    0    0    0  501 -0.00000000000E+00 -0.00000000000E+00 -0.17547705160E+03  0.17547705160E+03  0.00000000000E+00 0.  1.
         23    2    1    2    0    0  0.28872314201E+02  0.27997193359E+02  0.26720111861E+02  0.13399808954E+03  0.12499628099E+03 0.  0.
          5    1    3    3  502    0  0.33671333825E+02  0.25042969493E+02 -0.45112825523E+02  0.61791310629E+02  0.47000000000E+01 0. -1.
         -5    1    3    3    0  502 -0.47990196243E+01  0.29542238660E+01  0.71832937385E+02  0.72206778915E+02  0.47000000000E+01 0. -1.
        -11    1    1    2    0    0 -0.45004911441E+02 -0.24999884020E+02 -0.13647010554E+02  0.53260465187E+02  0.00000000000E+00 0. -1.
         11    1    1    2    0    0  0.16132597241E+02 -0.29973093391E+01 -0.87622751615E+02  0.89145898153E+02  0.00000000000E+00 0.  1.
<mgrwt>
<rscale>  0 0.12270042E+03</rscale>
<asrwt>0</asrwt>
<pdfrwt beam="1">  1        1 0.15527293E-01 0.13130698E+03</pdfrwt>
<pdfrwt beam="2">  1       -1 0.26996469E-01 0.13130698E+03</pdfrwt>
<totfact> 0.41639211E+03</totfact>
</mgrwt>
</event>
<event>
 7    1  0.7800420E-006  0.1529337E+03  0.7546771E-02  0.1197294E+00
          1   -1    0    0  501    0  0.00000000000E+00  0.00000000000E+00  0.21760989856E+03  0.21760989856E+03  0.00000000000E+00 0. -1.
         -1   -1    0    0    0  501 -0.00000000000E+00 -0.00000000000E+00 -0.11559173310E+03  0.11559173310E+03  0.00000000000E+00 0.  1.
         23    2    1    2    0    0  0.75560863736E+02 -0.40838540877E+02  0.97298337502E+02  0.18019516555E+03  0.12500440256E+03 0.  0.
          5    1    3    3  502    0  0.21653481673E+01  0.39344127789E+02  0.43283862995E+02  0.58721647796E+02  0.47000000000E+01 0. -1.
         -5    1    3    3    0  502  0.73395515569E+02 -0.80182668667E+02  0.54014474507E+02  0.12147351776E+03  0.47000000000E+01 0. -1.
        -11    1    1    2    0    0 -0.66712135705E+02  0.10409564245E+02  0.59320154267E+02  0.89876297099E+02  0.00000000000E+00 0. -1.
         11    1    1    2    0    0 -0.88487280317E+01  0.30428976633E+02 -0.54600326306E+02  0.63130169012E+02  0.00000000000E+00 0.  1.
<mgrwt>
<rscale>  0 0.15261638E+03</rscale>
<asrwt>0</asrwt>
<pdfrwt beam="1">  1        1 0.33478446E-01 0.15293365E+03</pdfrwt>
<pdfrwt beam="2">  1       -1 0.17783344E-01 0.15293365E+03</pdfrwt>
<totfact> 0.31281706E+03</totfact>
</mgrwt>
</event>
<event>
 7    1  0.7800420E-006  0.1265758E+03  0.7546771E-02  0.1257076E+00
          1   -1    0    0  501    0  0.00000000000E+00  0.00000000000E+00  0.50478415261E+03  0.50478415261E+03  0.00000000000E+00 0. -1.
         -1   -1    0    0    0  501 -0.00000000000E+00 -0.00000000000E+00 -0.25898711616E+02  0.25898711616E+02  0.00000000000E+00 0.  1.
         23    2    1    2    0    0 -0.90534771343E+01  0.17795974467E+02  0.40268915230E+03  0.42211369966E+03  0.12499103931E+03 0.  0.
          5    1    3    3  502    0 -0.18090606615E+02 -0.28620159183E+02  0.27348726156E+02  0.43777007454E+02  0.47000000000E+01 0. -1.
         -5    1    3    3    0  502  0.90371294806E+01  0.46416133650E+02  0.37534042614E+03  0.37833669221E+03  0.47000000000E+01 0. -1.
        -11    1    1    2    0    0 -0.23499299300E+02  0.17438144466E+02  0.31661014760E+02  0.43112942438E+02  0.00000000000E+00 0.  1.
         11    1    1    2    0    0  0.32552776434E+02 -0.35234118933E+02  0.44535273933E+02  0.65456222125E+02  0.00000000000E+00 0. -1.
<mgrwt>
<rscale>  0 0.11190852E+03</rscale>
<asrwt>0</asrwt>
<pdfrwt beam="1">  1        1 0.77659093E-01 0.12657576E+03</pdfrwt>
<pdfrwt beam="2">  1       -1 0.39844176E-02 0.12657576E+03</pdfrwt>
<totfact> 0.10442312E+04</totfact>
</mgrwt>
</event>
<event>
 7    1  0.7800420E-006  0.1570200E+03  0.7546771E-02  0.1200300E+00
          3   -1    0    0  501    0  0.00000000000E+00  0.00000000000E+00  0.38513198898E+02  0.38513198898E+02  0.00000000000E+00 0. -1.
         -3   -1    0    0    0  501 -0.00000000000E+00 -0.00000000000E+00 -0.54042731261E+03  0.54042731261E+03  0.00000000000E+00 0.  1.
         23    2    1    2    0    0 -0.87887137669E+02  0.36154690503E+02 -0.26116267684E+03  0.30473140799E+03  0.12499590645E+03 0.  0.
          5    1    3    3  502    0 -0.10217106760E+03  0.66131612585E+02 -0.18477225629E+03  0.22130339792E+03  0.47000000000E+01 0.  1.
         -5    1    3    3    0  502  0.14283929932E+02 -0.29976922082E+02 -0.76390420551E+02  0.83428010068E+02  0.47000000000E+01 0.  1.
        -11    1    1    2    0    0  0.61441598786E+02 -0.45522895887E+02 -0.23281626794E+03  0.24505268562E+03  0.00000000000E+00 0. -1.
         11    1    1    2    0    0  0.26445538883E+02  0.93682053845E+01 -0.79351689351E+01  0.29156417903E+02  0.00000000000E+00 0.  1.
<mgrwt>
<rscale>  0 0.15014123E+03</rscale>
<asrwt>0</asrwt>
<pdfrwt beam="1">  1        3 0.59251080E-02 0.15702002E+03</pdfrwt>
<pdfrwt beam="2">  1       -3 0.83142657E-01 0.15702002E+03</pdfrwt>
<totfact> 0.56311045E+02</totfact>
</mgrwt>
</event>
<event>
 6    1  0.7800420E-006  0.2141069E+03  0.7546771E-02  0.1145141E+00
          2   -1    0    0  501    0  0.00000000000E+00  0.00000000000E+00  0.13172345401E+04  0.13172345401E+04  0.00000000000E+00 0. -1.
         -2   -1    0    0    0  501 -0.00000000000E+00 -0.00000000000E+00 -0.29875398765E+02  0.29875398765E+02  0.00000000000E+00 0.  1.
          5    1    1    2  502    0 -0.10789151193E+03  0.85777028273E+01  0.66844347767E+03  0.67716536250E+03  0.47000000000E+01 0. -1.
         -5    1    1    2    0  502 -0.47561520149E+02 -0.34680095752E+02  0.69436122754E+02  0.91149725087E+02  0.47000000000E+01 0.  1.
        -11    1    1    2    0    0 -0.10975166293E+02  0.20118430884E+01  0.65236751634E+02  0.66184103465E+02  0.00000000000E+00 0.  1.
         11    1    1    2    0    0  0.16642819837E+03  0.24090549837E+02  0.48424278925E+03  0.51261074778E+03  0.00000000000E+00 0. -1.
<mgrwt>
<rscale>  0 0.20554725E+03</rscale>
<asrwt>0</asrwt>
<pdfrwt beam="1">  1        2 0.20265142E+00 0.21410691E+03</pdfrwt>
<pdfrwt beam="2">  1       -2 0.45962162E-02 0.21410691E+03</pdfrwt>
<totfact> 0.38060575E+03</totfact>
</mgrwt>
</event>
<event>
 7    1  0.7800420E-006  0.1625687E+03  0.7546771E-02  0.1194289E+00
         -2   -1    0    0    0  501 -0.00000000000E+00  0.00000000000E+00  0.16239113996E+02  0.16239113996E+02  0.00000000000E+00 0.  1.
          2   -1    0    0  501    0  0.00000000000E+00 -0.00000000000E+00 -0.14328166395E+04  0.14328166395E+04  0.00000000000E+00 0. -1.
         23    2    1    2    0    0  0.10165464700E+03 -0.21715871177E+02 -0.93166266272E+03  0.94573986577E+03  0.12499332094E+03 0.  0.
          5    1    3    3  502    0  0.10887927871E+03  0.13478975555E+02 -0.47001392106E+03  0.48267127127E+03  0.47000000000E+01 0.  1.
         -5    1    3    3    0  502 -0.72246317071E+01 -0.35194846731E+02 -0.46164874166E+03  0.46306859451E+03  0.47000000000E+01 0.  1.
        -11    1    1    2    0    0 -0.58816187749E+02  0.50739378690E+02 -0.21784914664E+03  0.23128354715E+03  0.00000000000E+00 0.  1.
         11    1    1    2    0    0 -0.42838459253E+02 -0.29023507513E+02 -0.26706571619E+03  0.27203234062E+03  0.00000000000E+00 0. -1.
<mgrwt>
<rscale>  0 0.15514587E+03</rscale>
<asrwt>0</asrwt>
<pdfrwt beam="2">  1        2 0.22043343E+00 0.16256868E+03</pdfrwt>
<pdfrwt beam="1">  1       -2 0.24983241E-02 0.16256868E+03</pdfrwt>
<totfact> 0.81156912E+03</totfact>
</mgrwt>
</event>
<event>
 7    1  0.7800420E-006  0.1570737E+03  0.7546771E-02  0.1200246E+00
         -2   -1    0    0    0  501 -0.00000000000E+00  0.00000000000E+00  0.37664049538E+02  0.37664049538E+02  0.00000000000E+00 0.  1.
          2   -1    0    0  501    0  0.00000000000E+00 -0.00000000000E+00 -0.56401176738E+03  0.56401176738E+03  0.00000000000E+00 0. -1.
         23    2    1    2    0    0  0.53292639941E+02 -0.78758865311E+02 -0.33011665093E+03  0.36558058343E+03  0.12501638061E+03 0.  0.
          5    1    3    3  502    0  0.83545735058E+02 -0.14837081331E+02 -0.20237002100E+03  0.21948973605E+03  0.47000000000E+01 0. -1.
         -5    1    3    3    0  502 -0.30253095117E+02 -0.63921783980E+02 -0.12774662993E+03  0.14609084739E+03  0.47000000000E+01 0. -1.
        -11    1    1    2    0    0  0.70259285201E+01 -0.15282000970E+02 -0.12097593113E+02  0.20718469643E+02  0.00000000000E+00 0.  1.
         11    1    1    2    0    0 -0.60318568461E+02  0.94040866281E+02 -0.18413347380E+03  0.21537676385E+03  0.00000000000E+00 0. -1.
<mgrwt>
<rscale>  0 0.15018515E+03</rscale>
<asrwt>0</asrwt>
<pdfrwt beam="2">  1        2 0.86771044E-01 0.15707374E+03</pdfrwt>
<pdfrwt beam="1">  1       -2 0.57944689E-02 0.15707374E+03</pdfrwt>
<totfact> 0.81816310E+03</totfact>
</mgrwt>
</event>
<event>
 7    1  0.7800420E-006  0.1444844E+03  0.7546771E-02  0.1217758E+00
          1   -1    0    0  501    0  0.00000000000E+00  0.00000000000E+00  0.15619430677E+03  0.15619430677E+03  0.00000000000E+00 0. -1.
         -1   -1    0    0    0  501 -0.00000000000E+00 -0.00000000000E+00 -0.11789999540E+03  0.11789999540E+03  0.00000000000E+00 0.  1.
         23    2    1    2    0    0  0.11561165482E+02 -0.71533695306E+02  0.59397196419E+02  0.15621706027E+03  0.12500005147E+03 0.  0.
          5    1    3    3  502    0 -0.40872056841E+02  0.98229107559E+01  0.38261899720E+02  0.57035756998E+02  0.47000000000E+01 0.  1.
         -5    1    3    3    0  502  0.52433222323E+02 -0.81356606062E+02  0.21135296699E+02  0.99181303277E+02  0.47000000000E+01 0.  1.
        -11    1    1    2    0    0  0.31775808565E+02  0.64074937810E+02 -0.78579033279E+01  0.71951694282E+02  0.00000000000E+00 0.  1.
         11    1    1    2    0    0 -0.43336974048E+02  0.74587574958E+01 -0.13244981726E+02  0.45925547617E+02  0.00000000000E+00 0. -1.
<mgrwt>
<rscale>  0 0.13675866E+03</rscale>
<asrwt>0</asrwt>
<pdfrwt beam="1">  1        1 0.24029893E-01 0.14448440E+03</pdfrwt>
<pdfrwt beam="2">  1       -1 0.18138461E-01 0.14448440E+03</pdfrwt>
<totfact> 0.45758301E+03</totfact>
</mgrwt>
</event>
<event>
 7    1  0.7800420E-006  0.1426261E+03  0.7546771E-02  0.1219832E+00
          1   -1    0    0  501    0  0.00000000000E+00  0.00000000000E+00  0.39293586302E+03  0.39293586302E+03  0.00000000000E+00 0. -1.
         -1   -1    0    0    0  501 -0.00000000000E+00 -0.00000000000E+00 -0.51426193241E+02  0.51426193241E+02  0.00000000000E+00 0.  1.
         23    2    1    2    0    0 -0.62067129043E+02 -0.29422498761E+02  0.27842372934E+03  0.31282900193E+03  0.12499679775E+03 0.  0.
          5    1    3    3  502    0 -0.40530289433E+01 -0.41000196362E+02  0.17105115158E+02  0.44856639530E+02  0.47000000000E+01 0.  1.
         -5    1    3    3    0  502 -0.58014100100E+02  0.11577697601E+02  0.26131861419E+03  0.26797236240E+03  0.47000000000E+01 0.  1.
        -11    1    1    2    0    0  0.12419927897E+02  0.18935383603E+02 -0.22572054842E+02  0.31973442432E+02  0.00000000000E+00 0.  1.
         11    1    1    2    0    0  0.49647201146E+02  0.10487115158E+02  0.85657995274E+02  0.99559611893E+02  0.00000000000E+00 0. -1.
<mgrwt>
<rscale>  0 0.13527479E+03</rscale>
<asrwt>0</asrwt>
<pdfrwt beam="1">  1        1 0.60451669E-01 0.14262612E+03</pdfrwt>
<pdfrwt beam="2">  1       -1 0.79117223E-02 0.14262612E+03</pdfrwt>
<totfact> 0.52307260E+03</totfact>
</mgrwt>
</event>
<event>
 7    1  0.7800420E-006  0.2137604E+03  0.7546771E-02  0.1142652E+00
          1   -1    0    0  501    0  0.00000000000E+00  0.00000000000E+00  0.61765203914E+03  0.61765203914E+03  0.00000000000E+00 0. -1.
         -1   -1    0    0    0  501 -0.00000000000E+00 -0.00000000000E+00 -0.86387486611E+02  0.86387486611E+02  0.00000000000E+00 0.  1.
         23    2    1    2    0    0  0.17244449302E+03 -0.19954126465E+02  0.44101757353E+03  0.49009185206E+03  0.12473272608E+03 0.  0.
          5    1    3    3  502    0  0.14354446878E+02  0.41294991052E+02  0.99251625244E+02  0.10855552287E+03  0.47000000000E+01 0. -1.
         -5    1    3    3    0  502  0.15809004614E+03 -0.61249117517E+02  0.34176594829E+03  0.38153632920E+03  0.47000000000E+01 0. -1.
        -11    1    1    2    0    0 -0.95754537247E+02  0.35025532493E+02  0.89682038744E+02  0.13578876022E+03  0.00000000000E+00 0.  1.
         11    1    1    2    0    0 -0.76689955774E+02 -0.15071406028E+02  0.56494024854E+00  0.78158913463E+02  0.00000000000E+00 0. -1.
<mgrwt>
<rscale>  0 0.20863442E+03</rscale>
<asrwt>0</asrwt>
<pdfrwt beam="1">  1        1 0.95023388E-01 0.21376043E+03</pdfrwt>
<pdfrwt beam="2">  1       -1 0.13290383E-01 0.21376043E+03</pdfrwt>
<totfact> 0.13144689E+03</totfact>
</mgrwt>
</event>
<event>
 7    1  0.7800420E-006  0.1877605E+03  0.7546771E-02  0.1164528E+00
          2   -1    0    0  501    0  0.00000000000E+00  0.00000000000E+00  0.13858516646E+03  0.13858516646E+03  0.00000000000E+00 0. -1.
         -2   -1    0    0    0  501 -0.00000000000E+00 -0.00000000000E+00 -0.24074682305E+03  0.24074682305E+03  0.00000000000E+00 0.  1.
         23    2    1    2    0    0 -0.14305875983E+02  0.13938060094E+03 -0.89080044596E+02  0.20782029667E+03  0.12498964501E+03 0.  0.
          5    1    3    3  502    0  0.41012911440E+01 -0.51703676259E+01  0.22702691123E+02  0.24105092297E+02  0.47000000000E+01 0.  1.
         -5    1    3    3    0  502 -0.18407167127E+02  0.14455096856E+03 -0.11178273572E+03  0.18371520438E+03  0.47000000000E+01 0.  1.
        -11    1    1    2    0    0  0.52978120277E+02 -0.10414162832E+03 -0.20632448284E+02  0.11865014917E+03  0.00000000000E+00 0. -1.
         11    1    1    2    0    0 -0.38672244294E+02 -0.35238972619E+02  0.75508362926E+01  0.52861543665E+02  0.00000000000E+00 0.  1.
<mgrwt>
<rscale>  0 0.18342560E+03</rscale>
<asrwt>0</asrwt>
<pdfrwt beam="1">  1        2 0.21320795E-01 0.18776054E+03</pdfrwt>
<pdfrwt beam="2">  1       -2 0.37037972E-01 0.18776054E+03</pdfrwt>
<totfact> 0.17555016E+03</totfact>
</mgrwt>
</event>
<event>
 7    1  0.7800420E-006  0.1543303E+03  0.7546771E-02  0.1203718E+00
         -1   -1    0    0    0  501 -0.00000000000E+00  0.00000000000E+00  0.70623349109E+02  0.70623349109E+02  0.00000000000E+00 0.  1.
          1   -1    0    0  501    0  0.00000000000E+00 -0.00000000000E+00 -0.42899328343E+03  0.42899328343E+03  0.00000000000E+00 0. -1.
         23    2    1    2    0    0  0.39642556185E+02 -0.81373100699E+02 -0.33538820133E+03  0.36919247535E+03  0.12499889793E+03 0.  0.
          5    1    3    3  502    0  0.82759797564E+02 -0.57294775879E+02 -0.26103520585E+03  0.27980947826E+03  0.47000000000E+01 0. -1.
         -5    1    3    3    0  502 -0.43117241379E+02 -0.24078324820E+02 -0.74352995481E+02  0.89382997081E+02  0.47000000000E+01 0. -1.
        -11    1    1    2    0    0 -0.63570613788E+02  0.66166855957E+02  0.32290993173E+01  0.91813413219E+02  0.00000000000E+00 0. -1.
         11    1    1    2    0    0  0.23928057602E+02  0.15206244741E+02 -0.26210832312E+02  0.38610743974E+02  0.00000000000E+00 0.  1.
<mgrwt>
<rscale>  0 0.14738918E+03</rscale>
<asrwt>0</asrwt>
<pdfrwt beam="2">  1        1 0.65998965E-01 0.15433029E+03</pdfrwt>
<pdfrwt beam="1">  1       -1 0.10865131E-01 0.15433029E+03</pdfrwt>
<totfact> 0.28966206E+03</totfact>
</mgrwt>
</event>
<event>
 7    1  0.7800420E-006  0.1431263E+03  0.7546771E-02  0.1219852E+00
          1   -1    0    0  501    0  0.00000000000E+00  0.00000000000E+00  0.47740566640E+02  0.47740566640E+02  0.00000000000E+00 0. -1.
         -1   -1    0    0    0  501 -0.00000000000E+00 -0.00000000000E+00 -0.35237287159E+03  0.35237287159E+03  0.00000000000E+00 0.  1.
         23    2    1    2    0    0 -0.65597329482E+02  0.23603260106E+02 -0.14385808637E+03  0.20292924879E+03  0.12500002992E+03 0.  0.
          5    1    3    3  502    0 -0.85444403863E+02  0.51685845928E+02 -0.72228210638E+02  0.12333360139E+03  0.47000000000E+01 0.  1.
         -5    1    3    3    0  502  0.19847074381E+02 -0.28082585822E+02 -0.71629875730E+02  0.79595647400E+02  0.47000000000E+01 0.  1.
        -11    1    1    2    0    0  0.27119051907E+02  0.31127376763E+02 -0.93970302017E+02  0.10263904823E+03  0.00000000000E+00 0.  1.
         11    1    1    2    0    0  0.38478277574E+02 -0.54730636868E+02 -0.66803916566E+02  0.94545141206E+02  0.00000000000E+00 0. -1.
<mgrwt>
<rscale>  0 0.13526055E+03</rscale>
<asrwt>0</asrwt>
<pdfrwt beam="1">  1        1 0.73447023E-02 0.14312628E+03</pdfrwt>
<pdfrwt beam="2">  1       -1 0.54211213E-01 0.14312628E+03</pdfrwt>
<totfact> 0.33292636E+03</totfact>
</mgrwt>
</event>
<event>
 7    1  0.7800420E-006  0.1342965E+03  0.7546771E-02  0.1233426E+00
         -1   -1    0    0    0  501 -0.00000000000E+00  0.00000000000E+00  0.22786914175E+02  0.22786914175E+02  0.00000000000E+00 0.  1.
          1   -1    0    0  501    0  0.00000000000E+00 -0.00000000000E+00 -0.10012746629E+04  0.10012746629E+04  0.00000000000E+00 0. -1.
         23    2    1    2    0    0  0.11131380840E+02  0.47803745922E+02 -0.84028039921E+03  0.85094459380E+03  0.12500578644E+03 0.  0.
          5    1    3    3  502    0  0.50065137230E+02  0.51452319859E+02 -0.73543342308E+03  0.73894402289E+03  0.47000000000E+01 0. -1.
         -5    1    3    3    0  502 -0.38933756390E+02 -0.36485739367E+01 -0.10484697614E+03  0.11200057091E+03  0.47000000000E+01 0. -1.
        -11    1    1    2    0    0  0.21320842198E+01  0.16978977898E+02  0.28322037873E+01  0.17345110316E+02  0.00000000000E+00 0.  1.
         11    1    1    2    0    0 -0.13263465059E+02 -0.64782723821E+02 -0.14103955327E+03  0.15577187294E+03  0.00000000000E+00 0. -1.
<mgrwt>
<rscale>  0 0.12605740E+03</rscale>
<asrwt>0</asrwt>
<pdfrwt beam="2">  1        1 0.15404227E+00 0.13429651E+03</pdfrwt>
<pdfrwt beam="1">  1       -1 0.35056789E-02 0.13429651E+03</pdfrwt>
<totfact> 0.46658129E+03</totfact>
</mgrwt>
</event>
<event>
 7    1  0.7800420E-006  0.1301503E+03  0.7546771E-02  0.1240177E+00
          4   -1    0    0  501    0  0.00000000000E+00  0.00000000000E+00  0.15249488718E+03  0.15249488718E+03  0.00000000000E+00 0. -1.
         -4   -1    0    0    0  501 -0.00000000000E+00 -0.00000000000E+00 -0.91857443402E+02  0.91857443402E+02  0.00000000000E+00 0.  1.
         23    2    1    2    0    0  0.33993266415E+02  0.12631301396E+02  0.62872558367E+02  0.14454085698E+03  0.12499603516E+03 0.  0.
          5    1    3    3  502    0  0.40424865806E+02  0.56540238352E+02  0.70676205928E+02  0.99238018988E+02  0.47000000000E+01 0. -1.
         -5    1    3    3    0  502 -0.64315993905E+01 -0.43908936956E+02 -0.78036475611E+01  0.45302837997E+02  0.47000000000E+01 0. -1.
        -11    1    1    2    0    0 -0.56642799636E+02  0.12900915047E+02 -0.19865777152E+02  0.61396168134E+02  0.00000000000E+00 0.  1.
         11    1    1    2    0    0  0.22649533221E+02 -0.25532216443E+02  0.17630662567E+02  0.38415305467E+02  0.00000000000E+00 0. -1.
<mgrwt>
<rscale>  0 0.12178723E+03</rscale>
<asrwt>0</asrwt>
<pdfrwt beam="1">  1        4 0.23460752E-01 0.13015030E+03</pdfrwt>
<pdfrwt beam="2">  1       -4 0.14131914E-01 0.13015030E+03</pdfrwt>
<totfact> 0.11525640E+03</totfact>
</mgrwt>
</event>
<event>
 7    1  0.9954650E-006  0.1530921E+03  0.7546771E-02  0.1205217E+00
          3   -1    0    0  501    0  0.00000000000E+00  0.00000000000E+00  0.53856211265E+03  0.53856211265E+03  0.00000000000E+00 0. -1.
         -3   -1    0    0    0  501 -0.00000000000E+00 -0.00000000000E+00 -0.36672595632E+02  0.36672595632E+02  0.00000000000E+00 0.  1.
         23    2    1    2    0    0  0.31439465115E+01  0.88327834962E+02  0.25460431525E+03  0.29708674466E+03  0.12500194269E+03 0.  0.
          5    1    3    3  502    0 -0.10326948235E+02  0.13068093596E+02 -0.11100692897E+02  0.20560552349E+02  0.47000000000E+01 0.  1.
         -5    1    3    3    0  502  0.13470894747E+02  0.75259741366E+02  0.26570500815E+03  0.27652619231E+03  0.47000000000E+01 0.  1.
        -11    1    1    2    0    0  0.17255761688E+00 -0.76755651911E+02  0.25331200611E+03  0.26468553477E+03  0.00000000000E+00 0. -1.
         11    1    1    2    0    0 -0.33165041283E+01 -0.11572183051E+02 -0.60268043425E+01  0.13462428859E+02  0.00000000000E+00 0.  1.
<mgrwt>
<rscale>  0 0.14620375E+03</rscale>
<asrwt>0</asrwt>
<pdfrwt beam="1">  1        3 0.82855704E-01 0.15309205E+03</pdfrwt>
<pdfrwt beam="2">  1       -3 0.56419382E-02 0.15309205E+03</pdfrwt>
<totfact> 0.61230989E+02</totfact>
</mgrwt>
</event>
<event>
 7    1  0.7800420E-006  0.1933293E+03  0.7546771E-02  0.1160182E+00
          1   -1    0    0  501    0  0.00000000000E+00  0.00000000000E+00  0.18753191520E+04  0.18753191520E+04  0.00000000000E+00 0. -1.
         -1   -1    0    0    0  501 -0.00000000000E+00 -0.00000000000E+00 -0.27494371131E+02  0.27494371131E+02  0.00000000000E+00 0.  1.
         23    2    1    2    0    0 -0.73081677528E+02 -0.12810158994E+03  0.15178771210E+04  0.15301395890E+04  0.12500103390E+03 0.  0.
          5    1    3    3  502    0 -0.44477376735E+02 -0.43393630807E+02  0.11438516498E+04  0.11455478738E+04  0.47000000000E+01 0. -1.
         -5    1    3    3    0  502 -0.28604300793E+02 -0.84707959135E+02  0.37402547113E+03  0.38459171523E+03  0.47000000000E+01 0. -1.
        -11    1    1    2    0    0  0.61041422592E+01  0.40608107395E+02  0.19087049979E+03  0.19523787192E+03  0.00000000000E+00 0. -1.
         11    1    1    2    0    0  0.66977535269E+02  0.87493482547E+02  0.13907716014E+03  0.17743606226E+03  0.00000000000E+00 0.  1.
<mgrwt>
<rscale>  0 0.18810497E+03</rscale>
<asrwt>0</asrwt>
<pdfrwt beam="1">  1        1 0.28851054E+00 0.19332927E+03</pdfrwt>
<pdfrwt beam="2">  1       -1 0.42299047E-02 0.19332927E+03</pdfrwt>
<totfact> 0.92676420E+02</totfact>
</mgrwt>
</event>
<event>
 7    1  0.7800420E-006  0.1783506E+03  0.7546771E-02  0.1175032E+00
         -1   -1    0    0    0  501 -0.00000000000E+00  0.00000000000E+00  0.51270050533E+03  0.51270050533E+03  0.00000000000E+00 0.  1.
          1   -1    0    0  501    0  0.00000000000E+00 -0.00000000000E+00 -0.68614307553E+02  0.68614307553E+02  0.00000000000E+00 0. -1.
         23    2    1    2    0    0 -0.99487379187E+02 -0.79292085845E+02  0.10321049318E+03  0.20606146956E+03  0.12499579929E+03 0.  0.
          5    1    3    3  502    0 -0.59927668203E+02  0.85788839390E+01 -0.51923786080E+01  0.60942378207E+02  0.47000000000E+01 0. -1.
         -5    1    3    3    0  502 -0.39559710984E+02 -0.87870969784E+02  0.10840287179E+03  0.14511909136E+03  0.47000000000E+01 0. -1.
        -11    1    1    2    0    0  0.10012295745E+03  0.94065113768E+02  0.32814462591E+03  0.35574112463E+03  0.00000000000E+00 0. -1.
         11    1    1    2    0    0 -0.63557826570E+00 -0.14773027923E+02  0.12731078680E+02  0.19512218688E+02  0.00000000000E+00 0.  1.
<mgrwt>
<rscale>  0 0.17272861E+03</rscale>
<asrwt>0</asrwt>
<pdfrwt beam="2">  1        1 0.10556048E-01 0.17835056E+03</pdfrwt>
<pdfrwt beam="1">  1       -1 0.78876998E-01 0.17835056E+03</pdfrwt>
<totfact> 0.99378446E+02</totfact>
</mgrwt>
</event>
<event>
 7    1  0.7800420E-006  0.1645146E+03  0.7546771E-02  0.1192450E+00
          1   -1    0    0  501    0  0.00000000000E+00  0.00000000000E+00  0.15688117388E+03  0.15688117388E+03  0.00000000000E+00 0. -1.
         -1   -1    0    0    0  501 -0.00000000000E+00 -0.00000000000E+00 -0.15448612409E+03  0.15448612409E+03  0.00000000000E+00 0.  1.
         23    2    1    2    0    0  0.75808014917E+02 -0.75455829826E+02  0.42794494854E+02  0.16998952036E+03  0.12499852344E+03 0.  0.
          5    1    3    3  502    0  0.15752003949E+02 -0.50940324014E+01 -0.41388712341E+02  0.44823992501E+02  0.47000000000E+01 0. -1.
         -5    1    3    3    0  502  0.60056010968E+02 -0.70361797425E+02  0.84183207195E+02  0.12516552786E+03  0.47000000000E+01 0. -1.
        -11    1    1    2    0    0 -0.14165179673E+02 -0.57008091840E+01 -0.36301968426E+02  0.39382539940E+02  0.00000000000E+00 0.  1.
         11    1    1    2    0    0 -0.61642835244E+02  0.81156639010E+02 -0.40974766427E+01  0.10199523767E+03  0.00000000000E+00 0. -1.
<mgrwt>
<rscale>  0 0.15671998E+03</rscale>
<asrwt>0</asrwt>
<pdfrwt beam="1">  1        1 0.24135565E-01 0.16451464E+03</pdfrwt>
<pdfrwt beam="2">  1       -1 0.23767096E-01 0.16451464E+03</pdfrwt>
<totfact> 0.29591975E+03</totfact>
</mgrwt>
</event>
<event>
 6    1  0.7800420E-006  0.2325893E+03  0.7546771E-02  0.1153305E+00
         -2   -1    0    0    0  501 -0.00000000000E+00  0.00000000000E+00  0.15530104129E+02  0.15530104129E+02  0.00000000000E+00 0.  1.
          2   -1    0    0  501    0  0.00000000000E+00 -0.00000000000E+00 -0.20413475605E+04  0.20413475605E+04  0.00000000000E+00 0. -1.
          5    1    1    2  502    0 -0.11770767619E+03  0.32412086666E+02 -0.13926467298E+04  0.13979959386E+04  0.47000000000E+01 0. -1.
         -5    1    1    2    0  502  0.43864743000E+02 -0.37521882168E+02 -0.13005517364E+03  0.14236729088E+03  0.47000000000E+01 0.  1.
        -11    1    1    2    0    0 -0.21121284882E+02 -0.36907874229E+01 -0.99548158652E+02  0.10183106833E+03  0.00000000000E+00 0.  1.
         11    1    1    2    0    0  0.94964218068E+02  0.88005829249E+01 -0.40356739433E+03  0.41468336685E+03  0.00000000000E+00 0. -1.
<mgrwt>
<rscale>  0 0.19583090E+03</rscale>
<asrwt>0</asrwt>
<pdfrwt beam="2">  1        2 0.31405325E+00 0.23258932E+03</pdfrwt>
<pdfrwt beam="1">  1       -2 0.23892484E-02 0.23258932E+03</pdfrwt>
<totfact> 0.41966352E+03</totfact>
</mgrwt>
</event>
<event>
 6    1  0.7800420E-006  0.1750795E+03  0.7546771E-02  0.1194251E+00
          2   -1    0    0  501    0  0.00000000000E+00  0.00000000000E+00  0.12347415051E+03  0.12347415051E+03  0.00000000000E+00 0. -1.
         -2   -1    0    0    0  501 -0.00000000000E+00 -0.00000000000E+00 -0.16585451383E+03  0.16585451383E+03  0.00000000000E+00 0.  1.
          5    1    1    2  502    0  0.39403953603E+02 -0.54510036599E+02  0.29031056933E+02  0.73409181417E+02  0.47000000000E+01 0. -1.
         -5    1    1    2    0  502 -0.91839227083E+02  0.26542174678E+02 -0.34547085544E+02  0.10175717069E+03  0.47000000000E+01 0.  1.
        -11    1    1    2    0    0  0.72065112157E+00  0.51132652944E+02 -0.21312640160E+02  0.55401228919E+02  0.00000000000E+00 0.  1.
         11    1    1    2    0    0  0.51714622358E+02 -0.23164791024E+02 -0.15551694556E+02  0.58761083315E+02  0.00000000000E+00 0. -1.
<mgrwt>
<rscale>  0 0.15517764E+03</rscale>
<asrwt>0</asrwt>
<pdfrwt beam="1">  1        2 0.18996023E-01 0.17507948E+03</pdfrwt>
<pdfrwt beam="2">  1       -2 0.25516079E-01 0.17507948E+03</pdfrwt>
<totfact> 0.39288252E+03</totfact>
</mgrwt>
</event>
<event>
 7    1  0.7800420E-006  0.1393526E+03  0.7546771E-02  0.1225675E+00
          1   -1    0    0  501    0  0.00000000000E+00  0.00000000000E+00  0.43842811973E+03  0.43842811973E+03  0.00000000000E+00 0. -1.
         -1   -1    0    0    0  501 -0.00000000000E+00 -0.00000000000E+00 -0.35354949262E+02  0.35354949262E+02  0.00000000000E+00 0.  1.
         23    2    1    2    0    0  0.57321435589E+02  0.22561617128E+02  0.21805912540E+03  0.25878358039E+03  0.12499754303E+03 0.  0.
          5    1    3    3  502    0  0.46066825552E+02 -0.23002261405E+02  0.20268095181E+03  0.20917197392E+03  0.47000000000E+01 0.  1.
         -5    1    3    3    0  502  0.11254610037E+02  0.45563878533E+02  0.15378173593E+02  0.49611606476E+02  0.47000000000E+01 0.  1.
        -11    1    1    2    0    0 -0.26581531632E+02  0.14269783676E+02  0.74596326084E+01  0.31078138115E+02  0.00000000000E+00 0.  1.
         11    1    1    2    0    0 -0.30739903957E+02 -0.36831400804E+02  0.17755441246E+03  0.18392135049E+03  0.00000000000E+00 0. -1.
<mgrwt>
<rscale>  0 0.13120777E+03</rscale>
<asrwt>0</asrwt>
<pdfrwt beam="1">  1        1 0.67450476E-01 0.13935264E+03</pdfrwt>
<pdfrwt beam="2">  1       -1 0.54392233E-02 0.13935264E+03</pdfrwt>
<totfact> 0.79654307E+03</totfact>
</mgrwt>
</event>
<event>
 6    1  0.7800420E-006  0.2951523E+03  0.7546771E-02  0.1131968E+00
          2   -1    0    0  501    0  0.00000000000E+00  0.00000000000E+00  0.11258423276E+04  0.11258423276E+04  0.00000000000E+00 0. -1.
         -2   -1    0    0    0  501 -0.00000000000E+00 -0.00000000000E+00 -0.13847880424E+03  0.13847880424E+03  0.00000000000E+00 0.  1.
          5    1    1    2  502    0 -0.79023839934E+02 -0.90188008810E+02  0.78086628588E+03  0.79003347437E+03  0.47000000000E+01 0. -1.
         -5    1    1    2    0  502  0.72113341253E+02  0.11905341259E+03  0.30611576491E+03  0.33630789548E+03  0.47000000000E+01 0.  1.
        -11    1    1    2    0    0 -0.30085967047E+01 -0.55580917957E+02 -0.93528600771E+02  0.10883882238E+03  0.00000000000E+00 0.  1.
         11    1    1    2    0    0  0.99190953856E+01  0.26715514178E+02 -0.60899267006E+01  0.29140939557E+02  0.00000000000E+00 0. -1.
<mgrwt>
<rscale>  0 0.22258795E+03</rscale>
<asrwt>0</asrwt>
<pdfrwt beam="1">  1        2 0.17320651E+00 0.29515234E+03</pdfrwt>
<pdfrwt beam="2">  1       -2 0.21304432E-01 0.29515234E+03</pdfrwt>
<totfact> 0.41695364E+02</totfact>
</mgrwt>
</event>
<event>
 7    1  0.7800420E-006  0.1303923E+03  0.7546771E-02  0.1240238E+00
          1   -1    0    0  501    0  0.00000000000E+00  0.00000000000E+00  0.64968465769E+03  0.64968465769E+03  0.00000000000E+00 0. -1.
         -1   -1    0    0    0  501 -0.00000000000E+00 -0.00000000000E+00 -0.20979258904E+02  0.20979258904E+02  0.00000000000E+00 0.  1.
         23    2    1    2    0    0 -0.16624935295E+01 -0.37067685130E+02  0.41692699461E+03  0.43684123639E+03  0.12500147923E+03 0.  0.
          5    1    3    3  502    0 -0.58289610581E+01 -0.51888833772E+02  0.60515806545E+02  0.80066726541E+02  0.47000000000E+01 0. -1.
         -5    1    3    3    0  502  0.41664675286E+01  0.14821148642E+02  0.35641118806E+03  0.35677450985E+03  0.47000000000E+01 0. -1.
        -11    1    1    2    0    0 -0.10024671406E+02  0.60365112150E+02  0.87084487014E+02  0.10643377603E+03  0.00000000000E+00 0.  1.
         11    1    1    2    0    0  0.11687164936E+02 -0.23297427020E+02  0.12469391716E+03  0.12738890418E+03  0.00000000000E+00 0. -1.
<mgrwt>
<rscale>  0 0.12175006E+03</rscale>
<asrwt>0</asrwt>
<pdfrwt beam="1">  1        1 0.99951471E-01 0.13039228E+03</pdfrwt>
<pdfrwt beam="2">  1       -1 0.32275788E-02 0.13039228E+03</pdfrwt>
<totfact> 0.10142765E+04</totfact>
</mgrwt>
</event>
<event>
 7    1  0.7800420E-006  0.1401344E+03  0.7546771E-02  0.1224711E+00
          4   -1    0    0  501    0  0.00000000000E+00  0.00000000000E+00  0.49878447370E+02  0.49878447370E+02  0.00000000000E+00 0. -1.
         -4   -1    0    0    0  501 -0.00000000000E+00 -0.00000000000E+00 -0.31380984874E+03  0.31380984874E+03  0.00000000000E+00 0.  1.
         23    2    1    2    0    0  0.56064120484E+01 -0.63095348040E+02 -0.14061284589E+03  0.19851857355E+03  0.12500078725E+03 0.  0.
          5    1    3    3  502    0  0.63705242100E+02 -0.28082915480E+02 -0.89322952439E+02  0.11334764155E+03  0.47000000000E+01 0.  1.
         -5    1    3    3    0  502 -0.58098830052E+02 -0.35012432560E+02 -0.51289893451E+02  0.85170931998E+02  0.47000000000E+01 0.  1.
        -11    1    1    2    0    0  0.38181668546E+02  0.16355423680E+02 -0.71902317187E+02  0.83037840251E+02  0.00000000000E+00 0.  1.
         11    1    1    2    0    0 -0.43788080594E+02  0.46739924360E+02 -0.51416238288E+02  0.82131882305E+02  0.00000000000E+00 0. -1.
<mgrwt>
<rscale>  0 0.13186758E+03</rscale>
<asrwt>0</asrwt>
<pdfrwt beam="1">  1        4 0.76736073E-02 0.14013441E+03</pdfrwt>
<pdfrwt beam="2">  1       -4 0.48278438E-01 0.14013441E+03</pdfrwt>
<totfact> 0.82107174E+02</totfact>
</mgrwt>
</event>
<event>
 7    1  0.7800420E-006  0.1567132E+03  0.7546771E-02  0.1201866E+00
         -1   -1    0    0    0  501 -0.00000000000E+00  0.00000000000E+00  0.90318134931E+02  0.90318134931E+02  0.00000000000E+00 0.  1.
          1   -1    0    0  501    0  0.00000000000E+00 -0.00000000000E+00 -0.22585364035E+03  0.22585364035E+03  0.00000000000E+00 0. -1.
         23    2    1    2    0    0 -0.89761799151E-01  0.94539565054E+02 -0.89677749963E+02  0.18055783112E+03  0.12498517562E+03 0.  0.
          5    1    3    3  502    0  0.51001548604E+02  0.36313439979E+01 -0.20273724337E+02  0.55203790791E+02  0.47000000000E+01 0. -1.
         -5    1    3    3    0  502 -0.51091310403E+02  0.90908221056E+02 -0.69404025626E+02  0.12535404033E+03  0.47000000000E+01 0. -1.
        -11    1    1    2    0    0 -0.29020761331E+00 -0.34221989660E+02 -0.64042906383E+02  0.72613515647E+02  0.00000000000E+00 0. -1.
         11    1    1    2    0    0  0.37996941246E+00 -0.60317575394E+02  0.18185150927E+02  0.63000428510E+02  0.00000000000E+00 0.  1.
<mgrwt>
<rscale>  0 0.14887212E+03</rscale>
<asrwt>0</asrwt>
<pdfrwt beam="2">  1        1 0.34746714E-01 0.15671321E+03</pdfrwt>
<pdfrwt beam="1">  1       -1 0.13895098E-01 0.15671321E+03</pdfrwt>
<totfact> 0.44140165E+03</totfact>
</mgrwt>
</event>
<event>
 7    1  0.7800420E-006  0.1683844E+03  0.7546771E-02  0.1186795E+00
          2   -1    0    0  501    0  0.00000000000E+00  0.00000000000E+00  0.15806716982E+03  0.15806716982E+03  0.00000000000E+00 0. -1.
         -2   -1    0    0    0  501 -0.00000000000E+00 -0.00000000000E+00 -0.15542170777E+03  0.15542170777E+03  0.00000000000E+00 0.  1.
         23    2    1    2    0    0 -0.21851138553E+02 -0.11068291051E+03  0.18645616690E+02  0.16941364140E+03  0.12500057574E+03 0.  0.
          5    1    3    3  502    0 -0.57656076988E+02 -0.91366022496E+01  0.19214139377E+02  0.61635816424E+02  0.47000000000E+01 0. -1.
         -5    1    3    3    0  502  0.35804938435E+02 -0.10154630826E+03 -0.56852268698E+00  0.10777782498E+03  0.47000000000E+01 0. -1.
        -11    1    1    2    0    0  0.77167972900E+01  0.27363192457E+02  0.35213728983E+02  0.45258148114E+02  0.00000000000E+00 0. -1.
         11    1    1    2    0    0  0.14134341263E+02  0.83319718057E+02 -0.51213883623E+02  0.98817088075E+02  0.00000000000E+00 0.  1.
<mgrwt>
<rscale>  0 0.16169632E+03</rscale>
<asrwt>0</asrwt>
<pdfrwt beam="1">  1        2 0.24318026E-01 0.16838445E+03</pdfrwt>
<pdfrwt beam="2">  1       -2 0.23911032E-01 0.16838445E+03</pdfrwt>
<totfact> 0.33244798E+03</totfact>
</mgrwt>
</event>
<event>
 7    1  0.7800420E-006  0.1280735E+03  0.7546771E-02  0.1245496E+00
         -1   -1    0    0    0  501 -0.00000000000E+00  0.00000000000E+00  0.49170225860E+02  0.49170225860E+02  0.00000000000E+00 0.  1.
          1   -1    0    0  501    0  0.00000000000E+00 -0.00000000000E+00 -0.25163197746E+03  0.25163197746E+03  0.00000000000E+00 0. -1.
         23    2    1    2    0    0  0.52878319504E+01  0.27401490011E+02 -0.12500211698E+03  0.17896463319E+03  0.12499603138E+03 0.  0.
          5    1    3    3  502    0 -0.13459112237E+02  0.90921332772E+01  0.23022672128E+02  0.28564803897E+02  0.47000000000E+01 0. -1.
         -5    1    3    3    0  502  0.18746944187E+02  0.18309356733E+02 -0.14802478911E+03  0.15039982930E+03  0.47000000000E+01 0. -1.
        -11    1    1    2    0    0 -0.27450411506E+02 -0.21681627413E+02 -0.89415510481E+02  0.96014330044E+02  0.00000000000E+00 0. -1.
         11    1    1    2    0    0  0.22162579556E+02 -0.57198625978E+01  0.11955875866E+02  0.25823240084E+02  0.00000000000E+00 0.  1.
<mgrwt>
<rscale>  0 0.11855719E+03</rscale>
<asrwt>0</asrwt>
<pdfrwt beam="2">  1        1 0.38712612E-01 0.12807346E+03</pdfrwt>
<pdfrwt beam="1">  1       -1 0.75646502E-02 0.12807346E+03</pdfrwt>
<totfact> 0.96661959E+03</totfact>
</mgrwt>
</event>
<event>
 7    1  0.7800420E-006  0.1289644E+03  0.7546771E-02  0.1238323E+00
         -3   -1    0    0    0  501 -0.00000000000E+00  0.00000000000E+00  0.24562910290E+03  0.24562910290E+03  0.00000000000E+00 0.  1.
          3   -1    0    0  501    0  0.00000000000E+00 -0.00000000000E+00 -0.56466926268E+02  0.56466926268E+02  0.00000000000E+00 0. -1.
         23    2    1    2    0    0  0.21138950115E+02 -0.23651732998E+02  0.10726063294E+03  0.16773983585E+03  0.12500219786E+03 0.  0.
          5    1    3    3  502    0 -0.45305243665E+01 -0.62149208119E+02  0.14768194143E+02  0.64212454236E+02  0.47000000000E+01 0. -1.
         -5    1    3    3    0  502  0.25669474481E+02  0.38497475121E+02  0.92492438793E+02  0.10352738162E+03  0.47000000000E+01 0. -1.
        -11    1    1    2    0    0 -0.47315549697E+02  0.25304502972E+02  0.91792316620E+02  0.10632454328E+03  0.00000000000E+00 0.  1.
         11    1    1    2    0    0  0.26176599582E+02 -0.16527699746E+01 -0.98907729262E+01  0.28031650029E+02  0.00000000000E+00 0. -1.
<mgrwt>
<rscale>  0 0.12294101E+03</rscale>
<asrwt>0</asrwt>
<pdfrwt beam="2">  1        3 0.86872196E-02 0.12896437E+03</pdfrwt>
<pdfrwt beam="1">  1       -3 0.37789092E-01 0.12896437E+03</pdfrwt>
<totfact> 0.14717582E+03</totfact>
</mgrwt>
</event>
<event>
 7    1  0.7800420E-006  0.1575621E+03  0.7546771E-02  0.1199166E+00
         -2   -1    0    0    0  501 -0.00000000000E+00  0.00000000000E+00  0.15729486992E+03  0.15729486992E+03  0.00000000000E+00 0.  1.
          2   -1    0    0  501    0  0.00000000000E+00 -0.00000000000E+00 -0.19212724868E+03  0.19212724868E+03  0.00000000000E+00 0. -1.
         23    2    1    2    0    0 -0.95387377777E+02  0.99663079558E+01 -0.11403249251E+03  0.19449735696E+03  0.12501093306E+03 0.  0.
          5    1    3    3  502    0 -0.50350440028E+02  0.67498099862E+02 -0.60078233926E+02  0.10355020274E+03  0.47000000000E+01 0. -1.
         -5    1    3    3    0  502 -0.45036937748E+02 -0.57531791906E+02 -0.53954258588E+02  0.90947154224E+02  0.47000000000E+01 0. -1.
        -11    1    1    2    0    0 -0.67828767798E+01  0.95226199207E+01 -0.11882021752E+02  0.16669437557E+02  0.00000000000E+00 0. -1.
         11    1    1    2    0    0  0.10217025456E+03 -0.19488927877E+02  0.91082135506E+02  0.13825532407E+03  0.00000000000E+00 0.  1.
<mgrwt>
<rscale>  0 0.15106867E+03</rscale>
<asrwt>0</asrwt>
<pdfrwt beam="2">  1        2 0.29558038E-01 0.15756209E+03</pdfrwt>
<pdfrwt beam="1">  1       -2 0.24199211E-01 0.15756209E+03</pdfrwt>
<totfact> 0.26183515E+03</totfact>
</mgrwt>
</event>
<event>
 7    1  0.7800420E-006  0.1505849E+03  0.7546771E-02  0.1209010E+00
          1   -1    0    0  501    0  0.00000000000E+00  0.00000000000E+00  0.94846912807E+03  0.94846912807E+03  0.00000000000E+00 0. -1.
         -1   -1    0    0    0  501 -0.00000000000E+00 -0.00000000000E+00 -0.25414831049E+02  0.25414831049E+02  0.00000000000E+00 0.  1.
         23    2    1    2    0    0 -0.52047874546E+02 -0.65875065517E+02  0.72564876757E+03  0.74110860017E+03  0.12500927112E+03 0.  0.
          5    1    3    3  502    0  0.25345755716E+02 -0.68158323258E+02  0.33526226475E+03  0.34309013470E+03  0.47000000000E+01 0. -1.
         -5    1    3    3    0  502 -0.77393630262E+02  0.22832577404E+01  0.39038650282E+03  0.39801846547E+03  0.47000000000E+01 0. -1.
        -11    1    1    2    0    0  0.64457229860E+02  0.12552571768E+02  0.13237347874E+03  0.14776684139E+03  0.00000000000E+00 0. -1.
         11    1    1    2    0    0 -0.12409355314E+02  0.53322493749E+02  0.65032050710E+02  0.85008517564E+02  0.00000000000E+00 0.  1.
<mgrwt>
<rscale>  0 0.14325892E+03</rscale>
<asrwt>0</asrwt>
<pdfrwt beam="1">  1        1 0.14591830E+00 0.15058494E+03</pdfrwt>
<pdfrwt beam="2">  1       -1 0.39099747E-02 0.15058494E+03</pdfrwt>
<totfact> 0.43690037E+03</totfact>
</mgrwt>
</event>
<event>
 7    1  0.7800420E-006  0.1251674E+03  0.7546771E-02  0.1269065E+00
          2   -1    0    0  501    0  0.00000000000E+00  0.00000000000E+00  0.24560193322E+03  0.24560193322E+03  0.00000000000E+00 0. -1.
         -2   -1    0    0    0  501 -0.00000000000E+00 -0.00000000000E+00 -0.45651889978E+02  0.45651889978E+02  0.00000000000E+00 0.  1.
         23    2    1    2    0    0 -0.45584894813E+01  0.46428473063E+01  0.18954111693E+03  0.22714027443E+03  0.12499813360E+03 0.  0.
          5    1    3    3  502    0 -0.46839104390E+02 -0.13155581052E+02  0.17029540670E+03  0.17717106580E+03  0.47000000000E+01 0. -1.
         -5    1    3    3    0  502  0.42280614909E+02  0.17798428358E+02  0.19245710228E+02  0.49969208632E+02  0.47000000000E+01 0. -1.
        -11    1    1    2    0    0 -0.12392009993E+02 -0.70046107769E+01  0.32902365084E+02  0.35849576175E+02  0.00000000000E+00 0. -1.
         11    1    1    2    0    0  0.16950499474E+02  0.23617634706E+01 -0.22493438770E+02  0.28263972594E+02  0.00000000000E+00 0.  1.
<mgrwt>
<rscale>  0 0.10553723E+03</rscale>
<asrwt>0</asrwt>
<pdfrwt beam="1">  1        2 0.37784912E-01 0.12516737E+03</pdfrwt>
<pdfrwt beam="2">  1       -2 0.70233678E-02 0.12516737E+03</pdfrwt>
<totfact> 0.14679177E+04</totfact>
</mgrwt>
</event>
<event>
 7    1  0.7800420E-006  0.1387859E+03  0.7546771E-02  0.1215308E+00
         -2   -1    0    0    0  501 -0.00000000000E+00  0.00000000000E+00  0.21727163431E+03  0.21727163431E+03  0.00000000000E+00 0.  1.
          2   -1    0    0  501    0  0.00000000000E+00 -0.00000000000E+00 -0.88451064430E+02  0.88451064430E+02  0.00000000000E+00 0. -1.
         23    2    1    2    0    0 -0.48718843932E+02 -0.31453795936E+02  0.53578050033E+02  0.14785265773E+03  0.12500773543E+03 0.  0.
          5    1    3    3  502    0  0.13113178489E+02  0.39717442409E+02  0.26154116604E+02  0.49553592170E+02  0.47000000000E+01 0.  1.
         -5    1    3    3    0  502 -0.61832022422E+02 -0.71171238346E+02  0.27423933429E+02  0.98299065555E+02  0.47000000000E+01 0.  1.
        -11    1    1    2    0    0 -0.17871136761E+02 -0.72270707320E+01  0.78460099427E+02  0.80793534905E+02  0.00000000000E+00 0.  1.
         11    1    1    2    0    0  0.66589980693E+02  0.38680866668E+02 -0.32175795833E+01  0.77076506104E+02  0.00000000000E+00 0. -1.
<mgrwt>
<rscale>  0 0.13853961E+03</rscale>
<asrwt>0</asrwt>
<pdfrwt beam="2">  1        2 0.13607856E-01 0.13878585E+03</pdfrwt>
<pdfrwt beam="1">  1       -2 0.33426405E-01 0.13878585E+03</pdfrwt>
<totfact> 0.35223431E+03</totfact>
</mgrwt>
</event>
<event>
 7    1  0.7800420E-006  0.1342764E+03  0.7546771E-02  0.1232828E+00
          3   -1    0    0  501    0  0.00000000000E+00  0.00000000000E+00  0.21331249033E+04  0.21331249033E+04  0.00000000000E+00 0. -1.
         -3   -1    0    0    0  501 -0.00000000000E+00 -0.00000000000E+00 -0.10229757186E+02  0.10229757186E+02  0.00000000000E+00 0.  1.
         23    2    1    2    0    0 -0.22623722846E+02  0.43579149995E+02  0.17678456276E+04  0.17729377612E+04  0.12497666600E+03 0.  0.
          5    1    3    3  502    0 -0.44723514143E+02 -0.29613447496E+02  0.94560177328E+03  0.94713354529E+03  0.47000000000E+01 0.  1.
         -5    1    3    3    0  502  0.22099791297E+02  0.73192597491E+02  0.82224385430E+03  0.82580421593E+03  0.47000000000E+01 0.  1.
        -11    1    1    2    0    0 -0.22960770901E+01 -0.63422688621E+02  0.30151366334E+03  0.30812042870E+03  0.00000000000E+00 0.  1.
         11    1    1    2    0    0  0.24919799936E+02  0.19843538626E+02  0.53535855197E+02  0.62296470572E+02  0.00000000000E+00 0. -1.
<mgrwt>
<rscale>  0 0.12644505E+03</rscale>
<asrwt>0</asrwt>
<pdfrwt beam="1">  1        3 0.32817271E+00 0.13427636E+03</pdfrwt>
<pdfrwt beam="2">  1       -3 0.15738105E-02 0.13427636E+03</pdfrwt>
<totfact> 0.10560655E+02</totfact>
</mgrwt>
</event>
<event>
 7    1  0.7800420E-006  0.1359432E+03  0.7546771E-02  0.1230639E+00
          3   -1    0    0  501    0  0.00000000000E+00  0.00000000000E+00  0.42285428282E+03  0.42285428282E+03  0.00000000000E+00 0. -1.
         -3   -1    0    0    0  501 -0.00000000000E+00 -0.00000000000E+00 -0.47909877634E+02  0.47909877634E+02  0.00000000000E+00 0.  1.
         23    2    1    2    0    0  0.24943604917E+02 -0.47263724035E+02  0.32678825975E+03  0.35393660409E+03  0.12499803986E+03 0.  0.
          5    1    3    3  502    0  0.12573696647E+01  0.42325693829E+02  0.11812955542E+03  0.12557757443E+03  0.47000000000E+01 0.  1.
         -5    1    3    3    0  502  0.23686235252E+02 -0.89589417864E+02  0.20865870434E+03  0.22835902966E+03  0.47000000000E+01 0.  1.
        -11    1    1    2    0    0 -0.30714812330E+02  0.26696756997E+02  0.73297343733E+02  0.83836848276E+02  0.00000000000E+00 0. -1.
         11    1    1    2    0    0  0.57712074133E+01  0.20566967038E+02 -0.25141198298E+02  0.32990708086E+02  0.00000000000E+00 0.  1.
<mgrwt>
<rscale>  0 0.12787782E+03</rscale>
<asrwt>0</asrwt>
<pdfrwt beam="1">  1        3 0.65054502E-01 0.13594320E+03</pdfrwt>
<pdfrwt beam="2">  1       -3 0.73707507E-02 0.13594320E+03</pdfrwt>
<totfact> 0.65686790E+02</totfact>
</mgrwt>
</event>
<event>
 7    1  0.7800420E-006  0.1285187E+03  0.7546771E-02  0.1248872E+00
         -3   -1    0    0    0  501 -0.00000000000E+00  0.00000000000E+00  0.38001870272E+03  0.38001870272E+03  0.00000000000E+00 0.  1.
          3   -1    0    0  501    0  0.00000000000E+00 -0.00000000000E+00 -0.31287818742E+02  0.31287818742E+02  0.00000000000E+00 0. -1.
         23    2    1    2    0    0  0.14770896307E+02 -0.25950535584E+02  0.17616977910E+03  0.21806612959E+03  0.12500174451E+03 0.  0.
          5    1    3    3  502    0 -0.32153573762E+01 -0.46021240660E+02  0.18388471309E+03  0.18964169063E+03  0.47000000000E+01 0.  1.
         -5    1    3    3    0  502  0.17986253683E+02  0.20070705075E+02 -0.77149339927E+01  0.28424438962E+02  0.47000000000E+01 0.  1.
        -11    1    1    2    0    0  0.25249570517E+02  0.17333149348E+02  0.23341744616E+02  0.38507348900E+02  0.00000000000E+00 0. -1.
         11    1    1    2    0    0 -0.40020466824E+02  0.86173862368E+01  0.14921936026E+03  0.15473304297E+03  0.00000000000E+00 0.  1.
<mgrwt>
<rscale>  0 0.11656610E+03</rscale>
<asrwt>0</asrwt>
<pdfrwt beam="2">  1        3 0.48135108E-02 0.12851866E+03</pdfrwt>
<pdfrwt beam="1">  1       -3 0.58464413E-01 0.12851866E+03</pdfrwt>
<totfact> 0.16014424E+03</totfact>
</mgrwt>
</event>
<event>
 7    1  0.7800420E-006  0.1606054E+03  0.7546771E-02  0.1195050E+00
         -2   -1    0    0    0  501 -0.00000000000E+00  0.00000000000E+00  0.81889200475E+02  0.81889200475E+02  0.00000000000E+00 0.  1.
          2   -1    0    0  501    0  0.00000000000E+00 -0.00000000000E+00 -0.27140622148E+03  0.27140622148E+03  0.00000000000E+00 0. -1.
         23    2    1    2    0    0 -0.10085605603E+03 -0.32984576370E+01 -0.10023568485E+03  0.18931797785E+03  0.12494510938E+03 0.  0.
          5    1    3    3  502    0 -0.58266948402E+02  0.49647314888E+02 -0.93416227384E+02  0.12086593685E+03  0.47000000000E+01 0. -1.
         -5    1    3    3    0  502 -0.42589107627E+02 -0.52945772525E+02 -0.68194574641E+01  0.68452040999E+02  0.47000000000E+01 0. -1.
        -11    1    1    2    0    0  0.22272982408E+02 -0.36541713572E+02 -0.68810419587E+01  0.43344334284E+02  0.00000000000E+00 0.  1.
         11    1    1    2    0    0  0.78583073622E+02  0.39840171209E+02 -0.82400294198E+02  0.12063310982E+03  0.00000000000E+00 0. -1.
<mgrwt>
<rscale>  0 0.15449982E+03</rscale>
<asrwt>0</asrwt>
<pdfrwt beam="2">  1        2 0.41754803E-01 0.16060543E+03</pdfrwt>
<pdfrwt beam="1">  1       -2 0.12598339E-01 0.16060543E+03</pdfrwt>
<totfact> 0.53806616E+03</totfact>
</mgrwt>
</event>
<event>
 6    1  0.7800420E-006  0.1669011E+03  0.7546771E-02  0.1190851E+00
          2   -1    0    0  501    0  0.00000000000E+00  0.00000000000E+00  0.88906834624E+02  0.88906834624E+02  0.00000000000E+00 0. -1.
         -2   -1    0    0    0  501 -0.00000000000E+00 -0.00000000000E+00 -0.30853646889E+03  0.30853646889E+03  0.00000000000E+00 0.  1.
          5    1    1    2  502    0  0.34294907608E+01 -0.29659913967E+02  0.35129483258E+02  0.46342663900E+02  0.47000000000E+01 0. -1.
         -5    1    1    2    0  502  0.90998099757E+02  0.44510208701E+02 -0.72585065694E+02  0.12470964117E+03  0.47000000000E+01 0.  1.
        -11    1    1    2    0    0 -0.10132226705E+03 -0.32223455105E+02 -0.17784690619E+03  0.20720539303E+03  0.00000000000E+00 0. -1.
         11    1    1    2    0    0  0.68946765340E+01  0.17373160372E+02 -0.43271456393E+01  0.19185605417E+02  0.00000000000E+00 0.  1.
<mgrwt>
<rscale>  0 0.15810682E+03</rscale>
<asrwt>0</asrwt>
<pdfrwt beam="1">  1        2 0.13677975E-01 0.16690108E+03</pdfrwt>
<pdfrwt beam="2">  1       -2 0.47467149E-01 0.16690108E+03</pdfrwt>
<totfact> 0.18173592E+03</totfact>
</mgrwt>
</event>
<event>
 7    1  0.7800420E-006  0.2291215E+03  0.7546771E-02  0.1131590E+00
         -2   -1    0    0    0  501 -0.00000000000E+00  0.00000000000E+00  0.62455063732E+02  0.62455063732E+02  0.00000000000E+00 0.  1.
          2   -1    0    0  501    0  0.00000000000E+00 -0.00000000000E+00 -0.77770710437E+03  0.77770710437E+03  0.00000000000E+00 0. -1.
         23    2    1    2    0    0  0.18925389489E+03 -0.32472638628E+02 -0.44327062590E+03  0.49898449122E+03  0.12500066279E+03 0.  0.
          5    1    3    3  502    0  0.66018894276E+02  0.44096094918E+02 -0.11259690886E+03  0.13785178226E+03  0.47000000000E+01 0.  1.
         -5    1    3    3    0  502  0.12323500061E+03 -0.76568733546E+02 -0.33067371705E+03  0.36113270896E+03  0.47000000000E+01 0.  1.
        -11    1    1    2    0    0 -0.97499533206E+02  0.13646237194E+02 -0.77423195578E+02  0.12524667652E+03  0.00000000000E+00 0.  1.
         11    1    1    2    0    0 -0.91754361680E+02  0.18826401434E+02 -0.19455821915E+03  0.21593100037E+03  0.00000000000E+00 0. -1.
<mgrwt>
<rscale>  0 0.22310351E+03</rscale>
<asrwt>0</asrwt>
<pdfrwt beam="2">  1        2 0.11964724E+00 0.22912153E+03</pdfrwt>
<pdfrwt beam="1">  1       -2 0.96084717E-02 0.22912153E+03</pdfrwt>
<totfact> 0.25888326E+03</totfact>
</mgrwt>
</event>
<event>
 7    1  0.7800420E-006  0.1279796E+03  0.7546771E-02  0.1239980E+00
          1   -1    0    0  501    0  0.00000000000E+00  0.00000000000E+00  0.53208317025E+02  0.53208317025E+02  0.00000000000E+00 0. -1.
         -1   -1    0    0    0  501 -0.00000000000E+00 -0.00000000000E+00 -0.32021629656E+03  0.32021629656E+03  0.00000000000E+00 0.  1.
         23    2    1    2    0    0  0.13416744159E+02 -0.23964041768E+02 -0.60439960513E+02  0.14153363853E+03  0.12499799073E+03 0.  0.
          5    1    3    3  502    0 -0.24566032315E+02 -0.56119154004E+02 -0.67243058380E+02  0.91085499889E+02  0.47000000000E+01 0.  1.
         -5    1    3    3    0  502  0.37982776474E+02  0.32155112236E+02  0.68030978671E+01  0.50448138639E+02  0.47000000000E+01 0.  1.
        -11    1    1    2    0    0  0.57477024378E+01 -0.34704310372E+02 -0.12344905302E+03  0.12836313308E+03  0.00000000000E+00 0.  1.
         11    1    1    2    0    0 -0.19164446597E+02  0.58668352140E+02 -0.83118966008E+02  0.10352784199E+03  0.00000000000E+00 0. -1.
<mgrwt>
<rscale>  0 0.12190907E+03</rscale>
<asrwt>0</asrwt>
<pdfrwt beam="1">  1        1 0.81858951E-02 0.12797962E+03</pdfrwt>
<pdfrwt beam="2">  1       -1 0.49264045E-01 0.12797962E+03</pdfrwt>
<totfact> 0.34096602E+03</totfact>
</mgrwt>
</event>
<event>
 7    1  0.7800420E-006  0.1460350E+03  0.7546771E-02  0.1216587E+00
          1   -1    0    0  501    0  0.00000000000E+00  0.00000000000E+00  0.62059086846E+02  0.62059086846E+02  0.00000000000E+00 0. -1.
         -1   -1    0    0    0  501 -0.00000000000E+00 -0.00000000000E+00 -0.27564879330E+03  0.27564879330E+03  0.00000000000E+00 0.  1.
         23    2    1    2    0    0 -0.53349367361E+02  0.53434765582E+02 -0.12890403510E+03  0.19478829066E+03  0.12499919497E+03 0.  0.
          5    1    3    3  502    0 -0.66021612462E+02  0.49917012609E+02 -0.14888544239E+03  0.17040987769E+03  0.47000000000E+01 0. -1.
         -5    1    3    3    0  502  0.12672245101E+02  0.35177529734E+01  0.19981407286E+02  0.24378412971E+02  0.47000000000E+01 0. -1.
        -11    1    1    2    0    0 -0.87407026273E+01 -0.51457740644E+02 -0.47153969478E+02  0.70340570031E+02  0.00000000000E+00 0.  1.
         11    1    1    2    0    0  0.62090069989E+02 -0.19770249375E+01 -0.37531701869E+02  0.72579019448E+02  0.00000000000E+00 0. -1.
<mgrwt>
<rscale>  0 0.13760606E+03</rscale>
<asrwt>0</asrwt>
<pdfrwt beam="1">  1        1 0.95475519E-02 0.14603502E+03</pdfrwt>
<pdfrwt beam="2">  1       -1 0.42407506E-01 0.14603502E+03</pdfrwt>
<totfact> 0.36612883E+03</totfact>
</mgrwt>
</event>
<event>
 7    1  0.7800420E-006  0.1876686E+03  0.7546771E-02  0.1165840E+00
          2   -1    0    0  501    0  0.00000000000E+00  0.00000000000E+00  0.51948590257E+03  0.51948590257E+03  0.00000000000E+00 0. -1.
         -2   -1    0    0    0  501 -0.00000000000E+00 -0.00000000000E+00 -0.73432331757E+02  0.73432331757E+02  0.00000000000E+00 0.  1.
         23    2    1    2    0    0 -0.54686856415E+02  0.12885559987E+03  0.35957297823E+03  0.40560108244E+03  0.12500037408E+03 0.  0.
          5    1    3    3  502    0 -0.44624257466E+02 -0.39553399797E+01  0.43683465457E+02  0.62747941982E+02  0.47000000000E+01 0.  1.
         -5    1    3    3    0  502 -0.10062598949E+02  0.13281093985E+03  0.31588951277E+03  0.34285314045E+03  0.47000000000E+01 0.  1.
        -11    1    1    2    0    0  0.28017846604E+02 -0.12986743885E+03  0.49641569649E+02  0.14182678463E+03  0.00000000000E+00 0.  1.
         11    1    1    2    0    0  0.26669009810E+02  0.10118389841E+01  0.36839022939E+02  0.45490367260E+02  0.00000000000E+00 0. -1.
<mgrwt>
<rscale>  0 0.18204331E+03</rscale>
<asrwt>0</asrwt>
<pdfrwt beam="1">  1        2 0.79920906E-01 0.18766862E+03</pdfrwt>
<pdfrwt beam="2">  1       -2 0.11297282E-01 0.18766862E+03</pdfrwt>
<totfact> 0.32011969E+03</totfact>
</mgrwt>
</event>
<event>
 7    1  0.7800420E-006  0.1617127E+03  0.7546771E-02  0.1194286E+00
          2   -1    0    0  501    0  0.00000000000E+00  0.00000000000E+00  0.72816018440E+02  0.72816018440E+02  0.00000000000E+00 0.  1.
         -2   -1    0    0    0  501 -0.00000000000E+00 -0.00000000000E+00 -0.32246017033E+03  0.32246017033E+03  0.00000000000E+00 0. -1.
         23    2    1    2    0    0  0.20143937885E+02 -0.10060202537E+03 -0.90632007815E+02  0.18537838357E+03  0.12499775403E+03 0.  0.
          5    1    3    3  502    0  0.12987677559E+02 -0.92904121701E+02 -0.12084047231E+03  0.15305020531E+03  0.47000000000E+01 0.  1.
         -5    1    3    3    0  502  0.71562603258E+01 -0.76979036671E+01  0.30208464493E+02  0.32328178262E+02  0.47000000000E+01 0.  1.
        -11    1    1    2    0    0 -0.22435138563E+02 -0.74057665516E+01 -0.95565050850E+01  0.25485439176E+02  0.00000000000E+00 0. -1.
         11    1    1    2    0    0  0.22912006778E+01  0.10800779192E+03 -0.14945563899E+03  0.18441236602E+03  0.00000000000E+00 0.  1.
<mgrwt>
<rscale>  0 0.15514847E+03</rscale>
<asrwt>0</asrwt>
<pdfrwt beam="1">  1        2 0.11202465E-01 0.16171266E+03</pdfrwt>
<pdfrwt beam="2">  1       -2 0.49609256E-01 0.16171266E+03</pdfrwt>
<totfact> 0.21156226E+03</totfact>
</mgrwt>
</event>
<event>
 7    1  0.7800420E-006  0.1355408E+03  0.7546771E-02  0.1231422E+00
         -2   -1    0    0    0  501 -0.00000000000E+00  0.00000000000E+00  0.96967316545E+02  0.96967316545E+02  0.00000000000E+00 0.  1.
          2   -1    0    0  501    0  0.00000000000E+00 -0.00000000000E+00 -0.15852924587E+03  0.15852924587E+03  0.00000000000E+00 0. -1.
         23    2    1    2    0    0  0.27588333901E+01 -0.52332184806E+02 -0.63789686107E+02  0.14980128827E+03  0.12500013275E+03 0.  0.
          5    1    3    3  502    0  0.28453165647E+02  0.31712776965E+02 -0.32665716563E+01  0.42988874707E+02  0.47000000000E+01 0.  1.
         -5    1    3    3    0  502 -0.25694332257E+02 -0.84044961772E+02 -0.60523114451E+02  0.10681241357E+03  0.47000000000E+01 0.  1.
        -11    1    1    2    0    0 -0.25108367112E+02  0.46381170897E+02 -0.33973729416E+02  0.62736412100E+02  0.00000000000E+00 0. -1.
         11    1    1    2    0    0  0.22349533722E+02  0.59510139090E+01  0.36201486203E+02  0.42958862036E+02  0.00000000000E+00 0.  1.
<mgrwt>
<rscale>  0 0.12736270E+03</rscale>
<asrwt>0</asrwt>
<pdfrwt beam="2">  1        2 0.24389115E-01 0.13554078E+03</pdfrwt>
<pdfrwt beam="1">  1       -2 0.14918049E-01 0.13554078E+03</pdfrwt>
<totfact> 0.72425167E+03</totfact>
</mgrwt>
</event>
<event>
 7    1  0.7800420E-006  0.1202032E+03  0.7546771E-02  0.1250293E+00
         -2   -1    0    0    0  501 -0.00000000000E+00  0.00000000000E+00  0.27252070126E+02  0.27252070126E+02  0.00000000000E+00 0.  1.
          2   -1    0    0  501    0  0.00000000000E+00 -0.00000000000E+00 -0.45883492672E+03  0.45883492672E+03  0.00000000000E+00 0. -1.
         23    2    1    2    0    0 -0.43855269756E+02  0.53321999543E+00 -0.23992738127E+03  0.26835415235E+03  0.11191619093E+03 0.  0.
          5    1    3    3  502    0  0.13890463421E+02 -0.42309809643E+02 -0.62788656759E+02  0.77120492632E+02  0.47000000000E+01 0. -1.
         -5    1    3    3    0  502 -0.57745733178E+02  0.42843029639E+02 -0.17713872451E+03  0.19123365972E+03  0.47000000000E+01 0.  1.
        -11    1    1    2    0    0  0.11634083434E+02  0.37840880518E+02 -0.33601885218E+02  0.51926590740E+02  0.00000000000E+00 0.  1.
         11    1    1    2    0    0  0.32221186323E+02 -0.38374100513E+02 -0.15805359011E+03  0.16580625376E+03  0.00000000000E+00 0. -1.
<mgrwt>
<rscale>  0 0.11574090E+03</rscale>
<asrwt>0</asrwt>
<pdfrwt beam="2">  1        2 0.70589983E-01 0.12020317E+03</pdfrwt>
<pdfrwt beam="1">  1       -2 0.41926265E-02 0.12020317E+03</pdfrwt>
<totfact> 0.16375600E+04</totfact>
</mgrwt>
</event>
<event>
 7    1  0.7800420E-006  0.1300698E+03  0.7546771E-02  0.1242347E+00
         -1   -1    0    0    0  501 -0.00000000000E+00  0.00000000000E+00  0.18815134270E+03  0.18815134270E+03  0.00000000000E+00 0.  1.
          1   -1    0    0  501    0  0.00000000000E+00 -0.00000000000E+00 -0.71463939286E+02  0.71463939286E+02  0.00000000000E+00 0. -1.
         23    2    1    2    0    0 -0.25854792683E+02  0.24980109774E+02  0.37345796309E+02  0.13532506801E+03  0.12500275734E+03 0.  0.
          5    1    3    3  502    0 -0.63856866336E+02  0.35548273907E+02 -0.95621025934E+01  0.73857314886E+02  0.47000000000E+01 0.  1.
         -5    1    3    3    0  502  0.38002073653E+02 -0.10568164133E+02  0.46907898902E+02  0.61467753127E+02  0.47000000000E+01 0.  1.
        -11    1    1    2    0    0  0.38747447703E+01  0.31559736069E+02  0.43328129700E+02  0.53743440633E+02  0.00000000000E+00 0.  1.
         11    1    1    2    0    0  0.21980047913E+02 -0.56539845843E+02  0.36013477410E+02  0.70546773345E+02  0.00000000000E+00 0. -1.
<mgrwt>
<rscale>  0 0.12045580E+03</rscale>
<asrwt>0</asrwt>
<pdfrwt beam="2">  1        1 0.10994452E-01 0.13006985E+03</pdfrwt>
<pdfrwt beam="1">  1       -1 0.28946360E-01 0.13006985E+03</pdfrwt>
<totfact> 0.58121261E+03</totfact>
</mgrwt>
</event>
<event>
 7    1  0.7800420E-006  0.2057996E+03  0.7546771E-02  0.1149333E+00
          1   -1    0    0  501    0  0.00000000000E+00  0.00000000000E+00  0.10097432276E+04  0.10097432276E+04  0.00000000000E+00 0. -1.
         -1   -1    0    0    0  501 -0.00000000000E+00 -0.00000000000E+00 -0.37894676985E+02  0.37894676985E+02  0.00000000000E+00 0.  1.
         23    2    1    2    0    0 -0.94213030229E+02 -0.13361197915E+03  0.50057064349E+03  0.54122494974E+03  0.12500088420E+03 0.  0.
          5    1    3    3  502    0  0.30553085999E+02 -0.27015511395E+02  0.11719948014E+03  0.12418187092E+03  0.47000000000E+01 0.  1.
         -5    1    3    3    0  502 -0.12476611623E+03 -0.10659646776E+03  0.38337116335E+03  0.41704307881E+03  0.47000000000E+01 0.  1.
        -11    1    1    2    0    0  0.96650048137E+02  0.71144147353E+02  0.34941610523E+03  0.36945139884E+03  0.00000000000E+00 0.  1.
         11    1    1    2    0    0 -0.24370179087E+01  0.62467831802E+02  0.12186180191E+03  0.13696155603E+03  0.00000000000E+00 0. -1.
<mgrwt>
<rscale>  0 0.20048236E+03</rscale>
<asrwt>0</asrwt>
<pdfrwt beam="1">  1        1 0.15534509E+00 0.20579960E+03</pdfrwt>
<pdfrwt beam="2">  1       -1 0.58299511E-02 0.20579960E+03</pdfrwt>
<totfact> 0.21871858E+03</totfact>
</mgrwt>
</event>
<event>
 7    1  0.7800420E-006  0.1273480E+03  0.7546771E-02  0.1249096E+00
          1   -1    0    0  501    0  0.00000000000E+00  0.00000000000E+00  0.24852528249E+03  0.24852528249E+03  0.00000000000E+00 0. -1.
         -1   -1    0    0    0  501 -0.00000000000E+00 -0.00000000000E+00 -0.47432703040E+02  0.47432703040E+02  0.00000000000E+00 0.  1.
         23    2    1    2    0    0  0.34586224630E+02  0.10516401046E+02  0.10570805352E+03  0.16550437076E+03  0.12210938758E+03 0.  0.
          5    1    3    3  502    0  0.24131020057E+02  0.36812662955E+02 -0.10759716948E+02  0.45555897440E+02  0.47000000000E+01 0. -1.
         -5    1    3    3    0  502  0.10455204573E+02 -0.26296261909E+02  0.11646777047E+03  0.11994847332E+03  0.47000000000E+01 0.  1.
        -11    1    1    2    0    0  0.18039009795E+02 -0.26862000146E+02  0.24061651113E+02  0.40322896480E+02  0.00000000000E+00 0.  1.
         11    1    1    2    0    0 -0.52625234425E+02  0.16345599100E+02  0.71322874816E+02  0.90130718294E+02  0.00000000000E+00 0. -1.
<mgrwt>
<rscale>  0 0.11643518E+03</rscale>
<asrwt>0</asrwt>
<pdfrwt beam="1">  1        1 0.38234658E-01 0.12734796E+03</pdfrwt>
<pdfrwt beam="2">  1       -1 0.72973391E-02 0.12734796E+03</pdfrwt>
<totfact> 0.10355493E+04</totfact>
</mgrwt>
</event>
<event>
 7    1  0.7800420E-006  0.1344661E+03  0.7546771E-02  0.1233447E+00
          3   -1    0    0  501    0  0.00000000000E+00  0.00000000000E+00  0.19459996635E+03  0.19459996635E+03  0.00000000000E+00 0. -1.
         -3   -1    0    0    0  501 -0.00000000000E+00 -0.00000000000E+00 -0.73671527979E+02  0.73671527979E+02  0.00000000000E+00 0.  1.
         23    2    1    2    0    0 -0.38829242183E+02  0.30822122167E+02  0.81428058323E+02  0.15719941047E+03  0.12499365066E+03 0.  0.
          5    1    3    3  502    0 -0.54764594517E+02  0.70813552963E+02  0.65642226501E+02  0.11110675945E+03  0.47000000000E+01 0.  1.
         -5    1    3    3    0  502  0.15935352334E+02 -0.39991430796E+02  0.15785831822E+02  0.46092651014E+02  0.47000000000E+01 0.  1.
        -11    1    1    2    0    0 -0.14937193279E+02 -0.21666737954E+02  0.49086149137E+02  0.55695756694E+02  0.00000000000E+00 0. -1.
         11    1    1    2    0    0  0.53766435462E+02 -0.91553842123E+01 -0.95857690843E+01  0.55376327174E+02  0.00000000000E+00 0.  1.
<mgrwt>
<rscale>  0 0.12604349E+03</rscale>
<asrwt>0</asrwt>
<pdfrwt beam="1">  1        3 0.29938456E-01 0.13446608E+03</pdfrwt>
<pdfrwt beam="2">  1       -3 0.11334081E-01 0.13446608E+03</pdfrwt>
<totfact> 0.14797340E+03</totfact>
</mgrwt>
</event>
<event>
 7    1  0.7800420E-006  0.1328643E+03  0.7546771E-02  0.1236430E+00
         -2   -1    0    0    0  501 -0.00000000000E+00  0.00000000000E+00  0.54451036210E+02  0.54451036210E+02  0.00000000000E+00 0.  1.
          2   -1    0    0  501    0  0.00000000000E+00 -0.00000000000E+00 -0.27595281320E+03  0.27595281320E+03  0.00000000000E+00 0. -1.
         23    2    1    2    0    0 -0.19721673305E+02  0.40483316344E+02 -0.17304995527E+03  0.21817241828E+03  0.12500029511E+03 0.  0.
          5    1    3    3  502    0 -0.12313087351E+02  0.32330031177E+02 -0.19233098932E+03  0.19547414788E+03  0.47000000000E+01 0.  1.
         -5    1    3    3    0  502 -0.74085859538E+01  0.81532851663E+01  0.19281034052E+02  0.22698270396E+02  0.47000000000E+01 0.  1.
        -11    1    1    2    0    0 -0.31348599431E+02 -0.35446885235E+02 -0.35909548887E+02  0.59402963398E+02  0.00000000000E+00 0. -1.
         11    1    1    2    0    0  0.51070272737E+02 -0.50364311091E+01 -0.12542272837E+02  0.52828467739E+02  0.00000000000E+00 0.  1.
<mgrwt>
<rscale>  0 0.12413314E+03</rscale>
<asrwt>0</asrwt>
<pdfrwt beam="2">  1        2 0.42454279E-01 0.13286428E+03</pdfrwt>
<pdfrwt beam="1">  1       -2 0.83770825E-02 0.13286428E+03</pdfrwt>
<totfact> 0.99409889E+03</totfact>
</mgrwt>
</event>
<event>
 7    1  0.7800420E-006  0.1353764E+03  0.7546771E-02  0.1232093E+00
         -2   -1    0    0    0  501 -0.00000000000E+00  0.00000000000E+00  0.24634056348E+02  0.24634056348E+02  0.00000000000E+00 0.  1.
          2   -1    0    0  501    0  0.00000000000E+00 -0.00000000000E+00 -0.70395421288E+03  0.70395421288E+03  0.00000000000E+00 0. -1.
         23    2    1    2    0    0 -0.48224444845E+02  0.19411504752E+02 -0.52489040795E+03  0.54206708027E+03  0.12499750222E+03 0.  0.
          5    1    3    3  502    0 -0.76587806503E+01 -0.23204050978E+02 -0.42724492421E+03  0.42796892430E+03  0.47000000000E+01 0.  1.
         -5    1    3    3    0  502 -0.40565664194E+02  0.42615555730E+02 -0.97645483740E+02  0.11409815597E+03  0.47000000000E+01 0.  1.
        -11    1    1    2    0    0  0.19698921007E+02 -0.14249946703E+02  0.47082636823E+01  0.24764414323E+02  0.00000000000E+00 0.  1.
         11    1    1    2    0    0  0.28525523838E+02 -0.51615580490E+01 -0.15913801227E+03  0.16175677464E+03  0.00000000000E+00 0. -1.
<mgrwt>
<rscale>  0 0.12692362E+03</rscale>
<asrwt>0</asrwt>
<pdfrwt beam="2">  1        2 0.10830064E+00 0.13537644E+03</pdfrwt>
<pdfrwt beam="1">  1       -2 0.37898551E-02 0.13537644E+03</pdfrwt>
<totfact> 0.11857722E+04</totfact>
</mgrwt>
</event>
<event>
 7    1  0.7800420E-006  0.1624916E+03  0.7546771E-02  0.1193054E+00
          2   -1    0    0  501    0  0.00000000000E+00  0.00000000000E+00  0.22611327339E+04  0.22611327339E+04  0.00000000000E+00 0. -1.
         -2   -1    0    0    0  501 -0.00000000000E+00 -0.00000000000E+00 -0.13774186082E+02  0.13774186082E+02  0.00000000000E+00 0.  1.
         23    2    1    2    0    0 -0.35251496828E+02  0.97644466552E+02  0.17795886046E+04  0.17869916435E+04  0.12500568959E+03 0.  0.
          5    1    3    3  502    0 -0.39362671693E+02  0.41244642121E+02  0.25460797094E+03  0.26095564621E+03  0.47000000000E+01 0.  1.
         -5    1    3    3    0  502  0.41111748654E+01  0.56399824432E+02  0.15249806337E+04  0.15260359973E+04  0.47000000000E+01 0.  1.
        -11    1    1    2    0    0  0.46057753144E+02 -0.50071368134E+02  0.39157228915E+03  0.39743844323E+03  0.00000000000E+00 0.  1.
         11    1    1    2    0    0 -0.10806256317E+02 -0.47573098419E+02  0.76197654043E+02  0.90476833225E+02  0.00000000000E+00 0. -1.
<mgrwt>
<rscale>  0 0.15620122E+03</rscale>
<asrwt>0</asrwt>
<pdfrwt beam="1">  1        2 0.34786628E+00 0.16249164E+03</pdfrwt>
<pdfrwt beam="2">  1       -2 0.21191073E-02 0.16249164E+03</pdfrwt>
<totfact> 0.38405194E+03</totfact>
</mgrwt>
</event>
<event>
 7    1  0.7800420E-006  0.1557899E+03  0.7546771E-02  0.1201791E+00
         -1   -1    0    0    0  501 -0.00000000000E+00  0.00000000000E+00  0.18641661601E+03  0.18641661601E+03  0.00000000000E+00 0.  1.
          1   -1    0    0  501    0  0.00000000000E+00 -0.00000000000E+00 -0.11970833976E+03  0.11970833976E+03  0.00000000000E+00 0. -1.
         23    2    1    2    0    0 -0.23978299702E+02  0.89822006977E+02 -0.81628015592E+01  0.15600356259E+03  0.12501011326E+03 0.  0.
          5    1    3    3  502    0 -0.85950220702E+01  0.12029629105E+03 -0.12197322959E+02  0.12130926070E+03  0.47000000000E+01 0.  1.
         -5    1    3    3    0  502 -0.15383277632E+02 -0.30474284071E+02  0.40345214003E+01  0.34694301885E+02  0.47000000000E+01 0.  1.
        -11    1    1    2    0    0 -0.19375662348E+02 -0.16285282623E+02 -0.12275789500E+02  0.28130441329E+02  0.00000000000E+00 0. -1.
         11    1    1    2    0    0  0.43353962050E+02 -0.73536724354E+02  0.87146867301E+02  0.12199095185E+03  0.00000000000E+00 0.  1.
<mgrwt>
<rscale>  0 0.14893231E+03</rscale>
<asrwt>0</asrwt>
<pdfrwt beam="2">  1        1 0.18416668E-01 0.15578986E+03</pdfrwt>
<pdfrwt beam="1">  1       -1 0.28679479E-01 0.15578986E+03</pdfrwt>
<totfact> 0.30502938E+03</totfact>
</mgrwt>
</event>
<event>
 7    1  0.7800420E-006  0.1272318E+03  0.7546771E-02  0.1250533E+00
          2   -1    0    0  501    0  0.00000000000E+00  0.00000000000E+00  0.65011941208E+03  0.65011941208E+03  0.00000000000E+00 0. -1.
         -2   -1    0    0    0  501 -0.00000000000E+00 -0.00000000000E+00 -0.19690624109E+02  0.19690624109E+02  0.00000000000E+00 0.  1.
         23    2    1    2    0    0  0.89252357606E+01  0.21815098052E+02  0.47590313098E+03  0.49261721151E+03  0.12502947116E+03 0.  0.
          5    1    3    3  502    0  0.43285102913E+02  0.37044480994E+02  0.42675839211E+03  0.43057021372E+03  0.47000000000E+01 0.  1.
         -5    1    3    3    0  502 -0.34359867153E+02 -0.15229382942E+02  0.49144738866E+02  0.62046997782E+02  0.47000000000E+01 0.  1.
        -11    1    1    2    0    0  0.98762273929E+01  0.28519169597E+02  0.35460570716E+02  0.46565383898E+02  0.00000000000E+00 0.  1.
         11    1    1    2    0    0 -0.18801463153E+02 -0.50334267649E+02  0.11906508628E+03  0.13062744079E+03  0.00000000000E+00 0. -1.
<mgrwt>
<rscale>  0 0.11560259E+03</rscale>
<asrwt>0</asrwt>
<pdfrwt beam="1">  1        2 0.10001835E+00 0.12723178E+03</pdfrwt>
<pdfrwt beam="2">  1       -2 0.30293273E-02 0.12723178E+03</pdfrwt>
<totfact> 0.18030894E+04</totfact>
</mgrwt>
</event>
<event>
 7    1  0.7800420E-006  0.1250372E+03  0.7546771E-02  0.1250429E+00
          2   -1    0    0  501    0  0.00000000000E+00  0.00000000000E+00  0.30264886484E+03  0.30264886484E+03  0.00000000000E+00 0. -1.
         -2   -1    0    0    0  501 -0.00000000000E+00 -0.00000000000E+00 -0.42324517410E+02  0.42324517410E+02  0.00000000000E+00 0.  1.
         23    2    1    2    0    0  0.29822260529E+01 -0.87076208832E+00  0.19816952150E+03  0.23431915490E+03  0.12499862081E+03 0.  0.
          5    1    3    3  502    0  0.42989075547E+02  0.13214135215E+02  0.17189303685E+02  0.48375987298E+02  0.47000000000E+01 0.  1.
         -5    1    3    3    0  502 -0.40006849494E+02 -0.14084897303E+02  0.18098021782E+03  0.18594316761E+03  0.47000000000E+01 0.  1.
        -11    1    1    2    0    0 -0.95532527367E+01  0.32477804683E+02 -0.67878770153E+01  0.34527492079E+02  0.00000000000E+00 0.  1.
         11    1    1    2    0    0  0.65710266837E+01 -0.31607042595E+02  0.68942702940E+02  0.76126735264E+02  0.00000000000E+00 0. -1.
<mgrwt>
<rscale>  0 0.11566244E+03</rscale>
<asrwt>0</asrwt>
<pdfrwt beam="1">  1        2 0.46561362E-01 0.12503722E+03</pdfrwt>
<pdfrwt beam="2">  1       -2 0.65114644E-02 0.12503722E+03</pdfrwt>
<totfact> 0.13204588E+04</totfact>
</mgrwt>
</event>
<event>
 7    1  0.7800420E-006  0.1642362E+03  0.7546771E-02  0.1191328E+00
          2   -1    0    0  501    0  0.00000000000E+00  0.00000000000E+00  0.19738081157E+03  0.19738081157E+03  0.00000000000E+00 0. -1.
         -2   -1    0    0    0  501 -0.00000000000E+00 -0.00000000000E+00 -0.14869953838E+03  0.14869953838E+03  0.00000000000E+00 0.  1.
         23    2    1    2    0    0  0.93121824116E+02 -0.51741151669E+02  0.10569054030E+03  0.19530494913E+03  0.12499884777E+03 0.  0.
          5    1    3    3  502    0  0.11560599688E+03 -0.68590944033E+02  0.77538148448E+02  0.15525372325E+03  0.47000000000E+01 0. -1.
         -5    1    3    3    0  502 -0.22484172766E+02  0.16849792363E+02  0.28152391855E+02  0.40051225884E+02  0.47000000000E+01 0. -1.
        -11    1    1    2    0    0 -0.71037175662E+02  0.65350373017E+00  0.87292955229E-01  0.71040235171E+02  0.00000000000E+00 0. -1.
         11    1    1    2    0    0 -0.22084648455E+02  0.51087647939E+02 -0.57096560069E+02  0.79735165648E+02  0.00000000000E+00 0.  1.
<mgrwt>
<rscale>  0 0.15769181E+03</rscale>
<asrwt>0</asrwt>
<pdfrwt beam="1">  1        2 0.30366279E-01 0.16423621E+03</pdfrwt>
<pdfrwt beam="2">  1       -2 0.22876852E-01 0.16423621E+03</pdfrwt>
<totfact> 0.28083545E+03</totfact>
</mgrwt>
</event>
<event>
 7    1  0.7800420E-006  0.1554159E+03  0.7546771E-02  0.1202221E+00
          2   -1    0    0  501    0  0.00000000000E+00  0.00000000000E+00  0.16142394805E+03  0.16142394805E+03  0.00000000000E+00 0. -1.
         -2   -1    0    0    0  501 -0.00000000000E+00 -0.00000000000E+00 -0.24377862789E+03  0.24377862789E+03  0.00000000000E+00 0.  1.
         23    2    1    2    0    0  0.89852186725E+02  0.21244066883E+02  0.97431124428E+02  0.18343096060E+03  0.12501746862E+03 0.  0.
          5    1    3    3  502    0  0.10692015025E+03  0.39179778355E+02  0.10714162794E+03  0.15642375779E+03  0.47000000000E+01 0.  1.
         -5    1    3    3    0  502 -0.17067963529E+02 -0.17935711472E+02 -0.97105035137E+01  0.27007202808E+02  0.47000000000E+01 0.  1.
        -11    1    1    2    0    0 -0.59838820888E+02 -0.21844876786E+02 -0.18084222654E+03  0.19173365387E+03  0.00000000000E+00 0.  1.
         11    1    1    2    0    0 -0.30013365838E+02  0.60080990247E+00  0.10564222808E+01  0.30037961474E+02  0.00000000000E+00 0. -1.
<mgrwt>
<rscale>  0 0.14858597E+03</rscale>
<asrwt>0</asrwt>
<pdfrwt beam="1">  1        2 0.24834454E-01 0.15541587E+03</pdfrwt>
<pdfrwt beam="2">  1       -2 0.37504404E-01 0.15541587E+03</pdfrwt>
<totfact> 0.14361095E+03</totfact>
</mgrwt>
</event>
<event>
 7    1  0.7800420E-006  0.1318704E+03  0.7546771E-02  0.1239735E+00
         -1   -1    0    0    0  501 -0.00000000000E+00  0.00000000000E+00  0.43147109364E+03  0.43147109364E+03  0.00000000000E+00 0.  1.
          1   -1    0    0  501    0  0.00000000000E+00 -0.00000000000E+00 -0.11794020013E+03  0.11794020013E+03  0.00000000000E+00 0. -1.
         23    2    1    2    0    0 -0.38373625637E+02 -0.17085457743E+02 -0.73148793648E+02  0.15079970493E+03  0.12500142792E+03 0.  0.
          5    1    3    3  502    0 -0.72799942667E+02 -0.45268687393E+02 -0.57810294188E+02  0.10350461741E+03  0.47000000000E+01 0.  1.
         -5    1    3    3    0  502  0.34426317030E+02  0.28183229649E+02 -0.15338499459E+02  0.47295087518E+02  0.47000000000E+01 0.  1.
        -11    1    1    2    0    0  0.39551484622E+00 -0.33398907276E+02  0.14688045267E+03  0.15063037813E+03  0.00000000000E+00 0. -1.
         11    1    1    2    0    0  0.37978110791E+02  0.50484365019E+02  0.23979923448E+03  0.24798121072E+03  0.00000000000E+00 0.  1.
<mgrwt>
<rscale>  0 0.12206132E+03</rscale>
<asrwt>0</asrwt>
<pdfrwt beam="2">  1        1 0.18144646E-01 0.13187041E+03</pdfrwt>
<pdfrwt beam="1">  1       -1 0.66380168E-01 0.13187041E+03</pdfrwt>
<totfact> 0.68803246E+02</totfact>
</mgrwt>
</event>
<event>
 7    1  0.7800420E-006  0.1505679E+03  0.7546771E-02  0.1209267E+00
          1   -1    0    0  501    0  0.00000000000E+00  0.00000000000E+00  0.12408993892E+03  0.12408993892E+03  0.00000000000E+00 0. -1.
         -1   -1    0    0    0  501 -0.00000000000E+00 -0.00000000000E+00 -0.17225832767E+03  0.17225832767E+03  0.00000000000E+00 0.  1.
         23    2    1    2    0    0 -0.70294481785E+02  0.45871257516E+02  0.26238747262E+02  0.15283706205E+03  0.12500083696E+03 0.  0.
          5    1    3    3  502    0 -0.12684164722E+02  0.44552914553E+02 -0.42482627083E+02  0.63029467979E+02  0.47000000000E+01 0. -1.
         -5    1    3    3    0  502 -0.57610317063E+02  0.13183429622E+01  0.68721374345E+02  0.89807594067E+02  0.47000000000E+01 0. -1.
        -11    1    1    2    0    0  0.49269499474E+02 -0.40697888201E+02 -0.94429252862E+02  0.11402054849E+03  0.00000000000E+00 0.  1.
         11    1    1    2    0    0  0.21024982311E+02 -0.51733693146E+01  0.20022116848E+02  0.29490656051E+02  0.00000000000E+00 0. -1.
<mgrwt>
<rscale>  0 0.14306190E+03</rscale>
<asrwt>0</asrwt>
<pdfrwt beam="1">  1        1 0.19090760E-01 0.15056791E+03</pdfrwt>
<pdfrwt beam="2">  1       -1 0.26501281E-01 0.15056791E+03</pdfrwt>
<totfact> 0.33173948E+03</totfact>
</mgrwt>
</event>
<event>
 7    1  0.7800420E-006  0.1813360E+03  0.7546771E-02  0.1171900E+00
          1   -1    0    0  501    0  0.00000000000E+00  0.00000000000E+00  0.64115418894E+03  0.64115418894E+03  0.00000000000E+00 0. -1.
         -1   -1    0    0    0  501 -0.00000000000E+00 -0.00000000000E+00 -0.49733513144E+02  0.49733513144E+02  0.00000000000E+00 0.  1.
         23    2    1    2    0    0  0.12428271476E+03 -0.42636357326E+02  0.41287948729E+03  0.45094589713E+03  0.12497471330E+03 0.  0.
          5    1    3    3  502    0  0.71291604619E+02 -0.40905315157E+02  0.83381349006E+02  0.11717626491E+03  0.47000000000E+01 0. -1.
         -5    1    3    3    0  502  0.52991110137E+02 -0.17310421686E+01  0.32949813828E+03  0.33376963222E+03  0.47000000000E+01 0. -1.
        -11    1    1    2    0    0  0.97693151058E+01  0.25440391695E+01 -0.31899840864E+01  0.10587145574E+02  0.00000000000E+00 0.  1.
         11    1    1    2    0    0 -0.13405202986E+03  0.40092318156E+02  0.18173117260E+03  0.22935465938E+03  0.00000000000E+00 0. -1.
<mgrwt>
<rscale>  0 0.17583053E+03</rscale>
<asrwt>0</asrwt>
<pdfrwt beam="1">  1        1 0.98639100E-01 0.18133596E+03</pdfrwt>
<pdfrwt beam="2">  1       -1 0.76513102E-02 0.18133596E+03</pdfrwt>
<totfact> 0.29138374E+03</totfact>
</mgrwt>
</event>
<event>
 7    1  0.7800420E-006  0.1386265E+03  0.7546771E-02  0.1226163E+00
         -2   -1    0    0    0  501 -0.00000000000E+00  0.00000000000E+00  0.58364288834E+03  0.58364288834E+03  0.00000000000E+00 0. -1.
          2   -1    0    0  501    0  0.00000000000E+00 -0.00000000000E+00 -0.27860506792E+02  0.27860506792E+02  0.00000000000E+00 0.  1.
         23    2    1    2    0    0  0.59860820482E+02 -0.38660802306E+01  0.24116008982E+03  0.27816452056E+03  0.12497618641E+03 0.  0.
          5    1    3    3  502    0  0.28008458627E+02  0.59647284113E+02  0.13553369829E+03  0.15077713894E+03  0.47000000000E+01 0.  1.
         -5    1    3    3    0  502  0.31852361856E+02 -0.63513364344E+02  0.10562639154E+03  0.12738738162E+03  0.47000000000E+01 0.  1.
        -11    1    1    2    0    0 -0.29719288946E+01 -0.31681187339E+02  0.42628966530E+02  0.53195477063E+02  0.00000000000E+00 0.  1.
         11    1    1    2    0    0 -0.56888891588E+02  0.35547267569E+02  0.27199332520E+03  0.28014339751E+03  0.00000000000E+00 0. -1.
<mgrwt>
<rscale>  0 0.13087500E+03</rscale>
<asrwt>0</asrwt>
<pdfrwt beam="2">  1        2 0.42862323E-02 0.13862652E+03</pdfrwt>
<pdfrwt beam="1">  1       -2 0.89791204E-01 0.13862652E+03</pdfrwt>
<totfact> 0.20407587E+03</totfact>
</mgrwt>
</event>
<event>
 7    1  0.7800420E-006  0.2396719E+03  0.7546771E-02  0.1122753E+00
          1   -1    0    0  501    0  0.00000000000E+00  0.00000000000E+00  0.25274455950E+03  0.25274455950E+03  0.00000000000E+00 0. -1.
         -1   -1    0    0    0  501 -0.00000000000E+00 -0.00000000000E+00 -0.21296609626E+03  0.21296609626E+03  0.00000000000E+00 0.  1.
         23    2    1    2    0    0  0.15932766039E+03 -0.12819340245E+03  0.31480455383E+02  0.24173054355E+03  0.12499513919E+03 0.  0.
          5    1    3    3  502    0  0.17178571626E+03 -0.13673096266E+03  0.16965259167E+02  0.22026256713E+03  0.47000000000E+01 0.  1.
         -5    1    3    3    0  502 -0.12458055873E+02  0.85375602116E+01  0.14515196217E+02  0.21467976423E+02  0.47000000000E+01 0.  1.
        -11    1    1    2    0    0 -0.58093206264E+02  0.86868278074E+02  0.37121658363E+02  0.11090056749E+03  0.00000000000E+00 0. -1.
         11    1    1    2    0    0 -0.10123445412E+03  0.41325124374E+02 -0.28823650501E+02  0.11307954472E+03  0.00000000000E+00 0.  1.
<mgrwt>
<rscale>  0 0.23560836E+03</rscale>
<asrwt>0</asrwt>
<pdfrwt beam="1">  1        1 0.38883778E-01 0.23967194E+03</pdfrwt>
<pdfrwt beam="2">  1       -1 0.32764015E-01 0.23967194E+03</pdfrwt>
<totfact> 0.95614524E+02</totfact>
</mgrwt>
</event>
<event>
 7    1  0.7800420E-006  0.3895526E+03  0.7546771E-02  0.1048300E+00
         -2   -1    0    0    0  501 -0.00000000000E+00  0.00000000000E+00  0.79004005488E+02  0.79004005488E+02  0.00000000000E+00 0.  1.
          2   -1    0    0  501    0  0.00000000000E+00 -0.00000000000E+00 -0.18871287189E+04  0.18871287189E+04  0.00000000000E+00 0. -1.
         23    2    1    2    0    0  0.32595056589E+03  0.17286952942E+03 -0.83716564152E+03  0.92336209522E+03  0.12499440763E+03 0.  0.
          5    1    3    3  502    0  0.22095582047E+03  0.17234674585E+03 -0.66508706596E+03  0.72172555083E+03  0.47000000000E+01 0. -1.
         -5    1    3    3    0  502  0.10499474542E+03  0.52278356603E+00 -0.17207857556E+03  0.20163654439E+03  0.47000000000E+01 0. -1.
        -11    1    1    2    0    0 -0.14024877639E+03 -0.88131925468E+02 -0.55883184538E+03  0.58286360924E+03  0.00000000000E+00 0. -1.
         11    1    1    2    0    0 -0.18570178950E+03 -0.84737603953E+02 -0.41212722649E+03  0.45990701990E+03  0.00000000000E+00 0.  1.
<mgrwt>
<rscale>  0 0.38721221E+03</rscale>
<asrwt>0</asrwt>
<pdfrwt beam="2">  1        2 0.29032749E+00 0.38955262E+03</pdfrwt>
<pdfrwt beam="1">  1       -2 0.12154463E-01 0.38955262E+03</pdfrwt>
<totfact> 0.40620094E+02</totfact>
</mgrwt>
</event>
<event>
 7    1  0.7800420E-006  0.1448375E+03  0.7546771E-02  0.1217463E+00
         -1   -1    0    0    0  501 -0.00000000000E+00  0.00000000000E+00  0.22600557220E+03  0.22600557220E+03  0.00000000000E+00 0.  1.
          1   -1    0    0  501    0  0.00000000000E+00 -0.00000000000E+00 -0.16366123929E+03  0.16366123929E+03  0.00000000000E+00 0. -1.
         23    2    1    2    0    0  0.60220687752E+02 -0.41548355683E+02 -0.11009269559E+03  0.18192936883E+03  0.12500038610E+03 0.  0.
          5    1    3    3  502    0  0.81714933995E+02 -0.64964695573E+02 -0.54841534515E+02  0.11801451613E+03  0.47000000000E+01 0. -1.
         -5    1    3    3    0  502 -0.21494246243E+02  0.23416339890E+02 -0.55251161076E+02  0.63914852699E+02  0.47000000000E+01 0. -1.
        -11    1    1    2    0    0 -0.32025121912E+02  0.47245888940E+02  0.16946504586E+03  0.17881885869E+03  0.00000000000E+00 0.  1.
         11    1    1    2    0    0 -0.28195565840E+02 -0.56975332572E+01  0.29719826465E+01  0.28918583975E+02  0.00000000000E+00 0. -1.
<mgrwt>
<rscale>  0 0.13697176E+03</rscale>
<asrwt>0</asrwt>
<pdfrwt beam="2">  1        1 0.25178652E-01 0.14483747E+03</pdfrwt>
<pdfrwt beam="1">  1       -1 0.34770088E-01 0.14483747E+03</pdfrwt>
<totfact> 0.14752335E+03</totfact>
</mgrwt>
</event>
<event>
 7    1  0.7800420E-006  0.1369182E+03  0.7546771E-02  0.1230148E+00
          2   -1    0    0  501    0  0.00000000000E+00  0.00000000000E+00  0.28440864665E+03  0.28440864665E+03  0.00000000000E+00 0.  1.
         -2   -1    0    0    0  501 -0.00000000000E+00 -0.00000000000E+00 -0.68676326034E+02  0.68676326034E+02  0.00000000000E+00 0. -1.
         23    2    1    2    0    0  0.38902414167E+02  0.40123364081E+02  0.20605349523E+03  0.24739569228E+03  0.12499321376E+03 0.  0.
          5    1    3    3  502    0  0.62772743368E+02 -0.67746968101E+01  0.17502760215E+03  0.18612647674E+03  0.47000000000E+01 0. -1.
         -5    1    3    3    0  502 -0.23870329201E+02  0.46898060891E+02  0.31025893075E+02  0.61269215537E+02  0.47000000000E+01 0. -1.
        -11    1    1    2    0    0 -0.49075558997E+02  0.11961713464E+02  0.14079593042E+02  0.52437849118E+02  0.00000000000E+00 0.  1.
         11    1    1    2    0    0  0.10173144829E+02 -0.52085077544E+02 -0.44007676571E+01  0.53251431290E+02  0.00000000000E+00 0. -1.
<mgrwt>
<rscale>  0 0.12820246E+03</rscale>
<asrwt>0</asrwt>
<pdfrwt beam="1">  1        2 0.43755176E-01 0.13691817E+03</pdfrwt>
<pdfrwt beam="2">  1       -2 0.10565589E-01 0.13691817E+03</pdfrwt>
<totfact> 0.67119246E+03</totfact>
</mgrwt>
</event>
<event>
 7    1  0.7800420E-006  0.1308352E+03  0.7546771E-02  0.1241442E+00
          4   -1    0    0  501    0  0.00000000000E+00  0.00000000000E+00  0.56677148374E+02  0.56677148374E+02  0.00000000000E+00 0.  1.
         -4   -1    0    0    0  501 -0.00000000000E+00 -0.00000000000E+00 -0.22975169071E+03  0.22975169071E+03  0.00000000000E+00 0. -1.
         23    2    1    2    0    0 -0.24839295357E+02  0.29568678382E+02 -0.82765083769E+02  0.15481573669E+03  0.12500622344E+03 0.  0.
          5    1    3    3  502    0 -0.70452513107E+02 -0.78715196467E+01 -0.37797143140E+02  0.80475036217E+02  0.47000000000E+01 0. -1.
         -5    1    3    3    0  502  0.45613217749E+02  0.37440198029E+02 -0.44967940629E+02  0.74340700469E+02  0.47000000000E+01 0. -1.
        -11    1    1    2    0    0 -0.26031451479E+02 -0.32942243505E+02 -0.25384115870E+02  0.49063033047E+02  0.00000000000E+00 0.  1.
         11    1    1    2    0    0  0.50870746836E+02  0.33735651230E+01 -0.64925342698E+02  0.82550069350E+02  0.00000000000E+00 0. -1.
<mgrwt>
<rscale>  0 0.12100887E+03</rscale>
<asrwt>0</asrwt>
<pdfrwt beam="1">  1        4 0.87195614E-02 0.13083521E+03</pdfrwt>
<pdfrwt beam="2">  1       -4 0.35346414E-01 0.13083521E+03</pdfrwt>
<totfact> 0.12131601E+03</totfact>
</mgrwt>
</event>
<event>
 7    1  0.7800420E-006  0.1978985E+03  0.7546771E-02  0.1156840E+00
          2   -1    0    0  501    0  0.00000000000E+00  0.00000000000E+00  0.17738817685E+03  0.17738817685E+03  0.00000000000E+00 0.  1.
         -2   -1    0    0    0  501 -0.00000000000E+00 -0.00000000000E+00 -0.34902795717E+03  0.34902795717E+03  0.00000000000E+00 0. -1.
         23    2    1    2    0    0  0.37309528486E+02 -0.14882095975E+03  0.85498703985E+02  0.21557790950E+03  0.12499651077E+03 0.  0.
          5    1    3    3  502    0  0.38278963287E+02 -0.17016189300E+03  0.66892321649E+02  0.18686096852E+03  0.47000000000E+01 0.  1.
         -5    1    3    3    0  502 -0.96943480087E+00  0.21340933251E+02  0.18606382336E+02  0.28716940984E+02  0.47000000000E+01 0.  1.
        -11    1    1    2    0    0  0.18479972520E+02  0.79848851860E+02 -0.15664878039E+03  0.17679419936E+03  0.00000000000E+00 0.  1.
         11    1    1    2    0    0 -0.55789501006E+02  0.68972107887E+02 -0.10048970391E+03  0.13404402516E+03  0.00000000000E+00 0. -1.
<mgrwt>
<rscale>  0 0.19180931E+03</rscale>
<asrwt>0</asrwt>
<pdfrwt beam="1">  1        2 0.27290489E-01 0.19789848E+03</pdfrwt>
<pdfrwt beam="2">  1       -2 0.53696608E-01 0.19789848E+03</pdfrwt>
<totfact> 0.64714415E+02</totfact>
</mgrwt>
</event>
<event>
 7    1  0.7800420E-006  0.1993809E+03  0.7546771E-02  0.1154443E+00
          1   -1    0    0  501    0  0.00000000000E+00  0.00000000000E+00  0.23081155996E+04  0.23081155996E+04  0.00000000000E+00 0. -1.
         -1   -1    0    0    0  501 -0.00000000000E+00 -0.00000000000E+00 -0.23158109931E+02  0.23158109931E+02  0.00000000000E+00 0.  1.
         23    2    1    2    0    0 -0.11599103157E+03  0.10330854375E+03  0.18439756283E+04  0.18547233964E+04  0.12500473993E+03 0.  0.
          5    1    3    3  502    0 -0.13820557713E+03  0.10321405152E+03  0.17242998193E+04  0.17329125422E+04  0.47000000000E+01 0.  1.
         -5    1    3    3    0  502  0.22214545553E+02  0.94492224542E-01  0.11967580895E+03  0.12181085424E+03  0.47000000000E+01 0.  1.
        -11    1    1    2    0    0  0.74089064855E+02 -0.62456831801E+02  0.14211455874E+03  0.17200753814E+03  0.00000000000E+00 0.  1.
         11    1    1    2    0    0  0.41901966719E+02 -0.40851711945E+02  0.29886730268E+03  0.30454277499E+03  0.00000000000E+00 0. -1.
<mgrwt>
<rscale>  0 0.19452414E+03</rscale>
<asrwt>0</asrwt>
<pdfrwt beam="1">  1        1 0.35509453E+00 0.19938094E+03</pdfrwt>
<pdfrwt beam="2">  1       -1 0.35627880E-02 0.19938094E+03</pdfrwt>
<totfact> 0.62746470E+02</totfact>
</mgrwt>
</event>
<event>
 7    1  0.7800420E-006  0.1279686E+03  0.7546771E-02  0.1245374E+00
          1   -1    0    0  501    0  0.00000000000E+00  0.00000000000E+00  0.84087468726E+03  0.84087468726E+03  0.00000000000E+00 0. -1.
         -1   -1    0    0    0  501 -0.00000000000E+00 -0.00000000000E+00 -0.28268580221E+02  0.28268580221E+02  0.00000000000E+00 0.  1.
         23    2    1    2    0    0 -0.49040945723E+01 -0.26979644887E+02  0.73724070734E+03  0.74826453292E+03  0.12499599712E+03 0.  0.
          5    1    3    3  502    0  0.16025802851E+02 -0.48004828490E+02  0.69258108584E+03  0.69444361930E+03  0.47000000000E+01 0. -1.
         -5    1    3    3    0  502 -0.20929897423E+02  0.21025183603E+02  0.44659621493E+02  0.53820913627E+02  0.47000000000E+01 0. -1.
        -11    1    1    2    0    0  0.20336814726E+02 -0.90366895513E+01 -0.11888399728E+02  0.25230573504E+02  0.00000000000E+00 0.  1.
         11    1    1    2    0    0 -0.15432720154E+02  0.36016334438E+02  0.87253799434E+02  0.95648161056E+02  0.00000000000E+00 0. -1.
<mgrwt>
<rscale>  0 0.11862995E+03</rscale>
<asrwt>0</asrwt>
<pdfrwt beam="1">  1        1 0.12936532E+00 0.12796855E+03</pdfrwt>
<pdfrwt beam="2">  1       -1 0.43490130E-02 0.12796855E+03</pdfrwt>
<totfact> 0.44953187E+03</totfact>
</mgrwt>
</event>
<event>
 7    1  0.7800420E-006  0.1426143E+03  0.7546771E-02  0.1220378E+00
         -1   -1    0    0    0  501 -0.00000000000E+00  0.00000000000E+00  0.11616849038E+03  0.11616849038E+03  0.00000000000E+00 0.  1.
          1   -1    0    0  501    0  0.00000000000E+00 -0.00000000000E+00 -0.17926582454E+03  0.17926582454E+03  0.00000000000E+00 0. -1.
         23    2    1    2    0    0  0.33046659811E+02 -0.60140165610E+02 -0.10146736850E+03  0.17502704272E+03  0.12501966873E+03 0.  0.
          5    1    3    3  502    0 -0.19606356848E+02  0.10662594168E+02 -0.81240932021E+02  0.84381746716E+02  0.47000000000E+01 0.  1.
         -5    1    3    3    0  502  0.52653016659E+02 -0.70802759778E+02 -0.20226436481E+02  0.90645296007E+02  0.47000000000E+01 0.  1.
        -11    1    1    2    0    0 -0.56984251814E+02  0.47296118242E+02  0.51532779037E+02  0.90220591169E+02  0.00000000000E+00 0.  1.
         11    1    1    2    0    0  0.23937592003E+02  0.12844047368E+02 -0.13162744694E+02  0.30186681030E+02  0.00000000000E+00 0. -1.
<mgrwt>
<rscale>  0 0.13488767E+03</rscale>
<asrwt>0</asrwt>
<pdfrwt beam="2">  1        1 0.27579358E-01 0.14261430E+03</pdfrwt>
<pdfrwt beam="1">  1       -1 0.17872075E-01 0.14261430E+03</pdfrwt>
<totfact> 0.39380311E+03</totfact>
</mgrwt>
</event>
<event>
 7    1  0.7800420E-006  0.1250887E+03  0.7546771E-02  0.1247108E+00
         -1   -1    0    0    0  501 -0.00000000000E+00  0.00000000000E+00  0.24490346916E+03  0.24490346916E+03  0.00000000000E+00 0.  1.
          1   -1    0    0  501    0  0.00000000000E+00 -0.00000000000E+00 -0.59353440902E+02  0.59353440902E+02  0.00000000000E+00 0. -1.
         23    2    1    2    0    0  0.33580094097E+01  0.32944358581E+01  0.44717715954E+02  0.13284144128E+03  0.12500017946E+03 0.  0.
          5    1    3    3  502    0 -0.51078782582E+02  0.42678101498E+01  0.57030706541E+02  0.76823484183E+02  0.47000000000E+01 0. -1.
         -5    1    3    3    0  502  0.54436791992E+02 -0.97337429170E+00 -0.12312990587E+02  0.56017957095E+02  0.47000000000E+01 0. -1.
        -11    1    1    2    0    0  0.36873678290E+02  0.17609833768E+02  0.10790087886E+03  0.11537926180E+03  0.00000000000E+00 0.  1.
         11    1    1    2    0    0 -0.40231687700E+02 -0.20904269626E+02  0.32931433443E+02  0.56036206977E+02  0.00000000000E+00 0. -1.
<mgrwt>
<rscale>  0 0.11760104E+03</rscale>
<asrwt>0</asrwt>
<pdfrwt beam="2">  1        1 0.91312988E-02 0.12508867E+03</pdfrwt>
<pdfrwt beam="1">  1       -1 0.37677456E-01 0.12508867E+03</pdfrwt>
<totfact> 0.47343871E+03</totfact>
</mgrwt>
</event>
<event>
 6    1  0.7800420E-006  0.1356673E+03  0.7546771E-02  0.1222629E+00
          1   -1    0    0  501    0  0.00000000000E+00  0.00000000000E+00  0.46192680703E+03  0.46192680703E+03  0.00000000000E+00 0. -1.
         -1   -1    0    0    0  501 -0.00000000000E+00 -0.00000000000E+00 -0.38017432685E+02  0.38017432685E+02  0.00000000000E+00 0.  1.
          5    1    1    2  502    0  0.28856437760E+02 -0.71656312069E+00  0.16110387769E+03  0.16373685251E+03  0.47000000000E+01 0. -1.
         -5    1    1    2    0  502 -0.58169628855E+02 -0.13522255480E+02  0.21280573711E+02  0.63572871037E+02  0.47000000000E+01 0.  1.
        -11    1    1    2    0    0 -0.39146146567E+02 -0.56316080373E+01  0.30646358364E+02  0.50033339696E+02  0.00000000000E+00 0.  1.
         11    1    1    2    0    0  0.68459337663E+02  0.19870426638E+02  0.21087856459E+03  0.22260117648E+03  0.00000000000E+00 0. -1.
<mgrwt>
<rscale>  0 0.13330777E+03</rscale>
<asrwt>0</asrwt>
<pdfrwt beam="1">  1        1 0.71065659E-01 0.13566732E+03</pdfrwt>
<pdfrwt beam="2">  1       -1 0.58488361E-02 0.13566732E+03</pdfrwt>
<totfact> 0.66768668E+03</totfact>
</mgrwt>
</event>
<event>
 7    1  0.7800420E-006  0.2252371E+03  0.7546771E-02  0.1132588E+00
          3   -1    0    0  501    0  0.00000000000E+00  0.00000000000E+00  0.46062400166E+02  0.46062400166E+02  0.00000000000E+00 0. -1.
         -3   -1    0    0    0  501 -0.00000000000E+00 -0.00000000000E+00 -0.11473710386E+04  0.11473710386E+04  0.00000000000E+00 0.  1.
         23    2    1    2    0    0 -0.15099884727E+03 -0.11093470552E+03 -0.38007953149E+03  0.44180562508E+03  0.12499839730E+03 0.  0.
          5    1    3    3  502    0 -0.99627632532E+02 -0.13137175690E+03 -0.24074609032E+03  0.29183038512E+03  0.47000000000E+01 0.  1.
         -5    1    3    3    0  502 -0.51371214735E+02  0.20437051375E+02 -0.13933344118E+03  0.14997523997E+03  0.47000000000E+01 0.  1.
        -11    1    1    2    0    0  0.30512346557E+02  0.75091288771E+02 -0.36435766675E+03  0.37326426866E+03  0.00000000000E+00 0.  1.
         11    1    1    2    0    0  0.12048650071E+03  0.35843416753E+02 -0.35687144023E+03  0.37836354506E+03  0.00000000000E+00 0. -1.
<mgrwt>
<rscale>  0 0.22174658E+03</rscale>
<asrwt>0</asrwt>
<pdfrwt beam="1">  1        3 0.70865241E-02 0.22523712E+03</pdfrwt>
<pdfrwt beam="2">  1       -3 0.17651860E+00 0.22523712E+03</pdfrwt>
<totfact> 0.72069720E+01</totfact>
</mgrwt>
</event>
<event>
 7    1  0.7800420E-006  0.1291300E+03  0.7546771E-02  0.1243313E+00
          1   -1    0    0  501    0  0.00000000000E+00  0.00000000000E+00  0.38294897850E+03  0.38294897850E+03  0.00000000000E+00 0. -1.
         -1   -1    0    0    0  501 -0.00000000000E+00 -0.00000000000E+00 -0.33416575136E+02  0.33416575136E+02  0.00000000000E+00 0.  1.
         23    2    1    2    0    0 -0.18513582294E+02 -0.26587069175E+02  0.22177179339E+03  0.25662675747E+03  0.12499975732E+03 0.  0.
          5    1    3    3  502    0 -0.30764545638E+02 -0.46854391459E+02  0.22530969860E+03  0.23222476516E+03  0.47000000000E+01 0. -1.
         -5    1    3    3    0  502  0.12250963344E+02  0.20267322285E+02 -0.35379052181E+01  0.24401992312E+02  0.47000000000E+01 0. -1.
        -11    1    1    2    0    0  0.70722322655E+01 -0.19912524004E+02 -0.21915319580E+01  0.21244479136E+02  0.00000000000E+00 0.  1.
         11    1    1    2    0    0  0.11441350028E+02  0.46499593178E+02  0.12995214194E+03  0.13849431704E+03  0.00000000000E+00 0. -1.
<mgrwt>
<rscale>  0 0.11986897E+03</rscale>
<asrwt>0</asrwt>
<pdfrwt beam="1">  1        1 0.58915225E-01 0.12913003E+03</pdfrwt>
<pdfrwt beam="2">  1       -1 0.51410118E-02 0.12913003E+03</pdfrwt>
<totfact> 0.10220222E+04</totfact>
</mgrwt>
</event>
<event>
 7    1  0.7800420E-006  0.1330979E+03  0.7546771E-02  0.1235296E+00
          1   -1    0    0  501    0  0.00000000000E+00  0.00000000000E+00  0.99670846729E+02  0.99670846729E+02  0.00000000000E+00 0. -1.
         -1   -1    0    0    0  501 -0.00000000000E+00 -0.00000000000E+00 -0.13996967255E+03  0.13996967255E+03  0.00000000000E+00 0.  1.
         23    2    1    2    0    0  0.10263262160E+02 -0.44602545110E+02 -0.25479396926E+02  0.13551478505E+03  0.12498134149E+03 0.  0.
          5    1    3    3  502    0 -0.72643649705E+01  0.13141413791E+02 -0.62575516056E+02  0.64523274595E+02  0.47000000000E+01 0. -1.
         -5    1    3    3    0  502  0.17527627131E+02 -0.57743958901E+02  0.37096119130E+02  0.70991510457E+02  0.47000000000E+01 0. -1.
        -11    1    1    2    0    0  0.30261911666E+02  0.35068494036E+02  0.19416206644E+02  0.50225209329E+02  0.00000000000E+00 0. -1.
         11    1    1    2    0    0 -0.40525173826E+02  0.95340510741E+01 -0.34235635541E+02  0.53900524899E+02  0.00000000000E+00 0.  1.
<mgrwt>
<rscale>  0 0.12485533E+03</rscale>
<asrwt>0</asrwt>
<pdfrwt beam="1">  1        1 0.15333976E-01 0.13309792E+03</pdfrwt>
<pdfrwt beam="2">  1       -1 0.21533796E-01 0.13309792E+03</pdfrwt>
<totfact> 0.61303349E+03</totfact>
</mgrwt>
</event>
<event>
 7    1  0.7800420E-006  0.2267660E+03  0.7546771E-02  0.1131937E+00
         -2   -1    0    0    0  501 -0.00000000000E+00  0.00000000000E+00  0.61899529757E+02  0.61899529757E+02  0.00000000000E+00 0.  1.
          2   -1    0    0  501    0  0.00000000000E+00 -0.00000000000E+00 -0.98548561804E+03  0.98548561804E+03  0.00000000000E+00 0. -1.
         23    2    1    2    0    0 -0.18061905033E+03  0.56352068453E+02 -0.71825343864E+03  0.75320038437E+03  0.12499607966E+03 0.  0.
          5    1    3    3  502    0 -0.94814982676E+02 -0.32657865904E+02 -0.37973304521E+03  0.39277944546E+03  0.47000000000E+01 0. -1.
         -5    1    3    3    0  502 -0.85804067653E+02  0.89009934356E+02 -0.33852039343E+03  0.36042093891E+03  0.47000000000E+01 0. -1.
        -11    1    1    2    0    0  0.13785745074E+03  0.25492144041E+01 -0.13538501523E+03  0.19323632569E+03  0.00000000000E+00 0.  1.
         11    1    1    2    0    0  0.42761599588E+02 -0.58901282857E+02 -0.69947634417E+02  0.10094843774E+03  0.00000000000E+00 0. -1.
<mgrwt>
<rscale>  0 0.22263106E+03</rscale>
<asrwt>0</asrwt>
<pdfrwt beam="2">  1        2 0.15161316E+00 0.22676600E+03</pdfrwt>
<pdfrwt beam="1">  1       -2 0.95230050E-02 0.22676600E+03</pdfrwt>
<totfact> 0.19200857E+03</totfact>
</mgrwt>
</event>
<event>
 7    1  0.7800420E-006  0.1722361E+03  0.7546771E-02  0.1181647E+00
          3   -1    0    0  501    0  0.00000000000E+00  0.00000000000E+00  0.29567594742E+03  0.29567594742E+03  0.00000000000E+00 0. -1.
         -3   -1    0    0    0  501 -0.00000000000E+00 -0.00000000000E+00 -0.11402613477E+03  0.11402613477E+03  0.00000000000E+00 0.  1.
         23    2    1    2    0    0 -0.93775743653E+02  0.72443657577E+02  0.19362647115E+03  0.25914566568E+03  0.12499316819E+03 0.  0.
          5    1    3    3  502    0  0.40698669786E+01  0.73970473052E+02  0.80905285440E+02  0.10979958977E+03  0.47000000000E+01 0. -1.
         -5    1    3    3    0  502 -0.97845610631E+02 -0.15268154746E+01  0.11272118571E+03  0.14934607592E+03  0.47000000000E+01 0. -1.
        -11    1    1    2    0    0  0.58084368274E+02 -0.55425835818E+02  0.36336087069E+02  0.88125639501E+02  0.00000000000E+00 0. -1.
         11    1    1    2    0    0  0.35691375379E+02 -0.17017821759E+02 -0.48312745559E+02  0.62430777004E+02  0.00000000000E+00 0.  1.
<mgrwt>
<rscale>  0 0.16640765E+03</rscale>
<asrwt>0</asrwt>
<pdfrwt beam="1">  1        3 0.45488607E-01 0.17223608E+03</pdfrwt>
<pdfrwt beam="2">  1       -3 0.17542482E-01 0.17223608E+03</pdfrwt>
<totfact> 0.32754563E+02</totfact>
</mgrwt>
</event>
<event>
 7    1  0.7800420E-006  0.1376603E+03  0.7546771E-02  0.1228010E+00
         -2   -1    0    0    0  501 -0.00000000000E+00  0.00000000000E+00  0.24467061671E+02  0.24467061671E+02  0.00000000000E+00 0.  1.
          2   -1    0    0  501    0  0.00000000000E+00 -0.00000000000E+00 -0.65572363001E+03  0.65572363001E+03  0.00000000000E+00 0. -1.
         23    2    1    2    0    0 -0.57467262830E+02 -0.45070930698E+01 -0.43245053183E+03  0.45383238354E+03  0.12501027830E+03 0.  0.
          5    1    3    3  502    0 -0.86917492638E+02  0.28686719466E+02 -0.31954768197E+03  0.33243102962E+03  0.47000000000E+01 0. -1.
         -5    1    3    3    0  502  0.29450229808E+02 -0.33193812536E+02 -0.11290284987E+03  0.12140135392E+03  0.47000000000E+01 0. -1.
        -11    1    1    2    0    0  0.62695723916E+02 -0.27166765195E+02 -0.90518382622E+02  0.11341236494E+03  0.00000000000E+00 0.  1.
         11    1    1    2    0    0 -0.52284610862E+01  0.31673858265E+02 -0.10828765388E+03  0.11294594320E+03  0.00000000000E+00 0. -1.
<mgrwt>
<rscale>  0 0.12962713E+03</rscale>
<asrwt>0</asrwt>
<pdfrwt beam="2">  1        2 0.10088055E+00 0.13766034E+03</pdfrwt>
<pdfrwt beam="1">  1       -2 0.37641638E-02 0.13766034E+03</pdfrwt>
<totfact> 0.13036250E+04</totfact>
</mgrwt>
</event>
<event>
 7    1  0.7800420E-006  0.1226739E+03  0.7546771E-02  0.1253338E+00
          2   -1    0    0  501    0  0.00000000000E+00  0.00000000000E+00  0.10672954402E+04  0.10672954402E+04  0.00000000000E+00 0. -1.
         -2   -1    0    0    0  501 -0.00000000000E+00 -0.00000000000E+00 -0.16007159529E+02  0.16007159529E+02  0.00000000000E+00 0.  1.
         23    2    1    2    0    0  0.26792281834E+01  0.46369981909E+01  0.88541322061E+03  0.89387104949E+03  0.12255693318E+03 0.  0.
          5    1    3    3  502    0  0.52787242612E+02 -0.15028431464E+02  0.65029042217E+03  0.65261939130E+03  0.47000000000E+01 0. -1.
         -5    1    3    3    0  502 -0.50108014429E+02  0.19665429655E+02  0.23512279844E+03  0.24125165819E+03  0.47000000000E+01 0.  1.
        -11    1    1    2    0    0  0.42069192629E+02  0.61527504050E+01  0.56057611488E+02  0.70357153948E+02  0.00000000000E+00 0. -1.
         11    1    1    2    0    0 -0.44748420812E+02 -0.10789748596E+02  0.10981744853E+03  0.11907439625E+03  0.00000000000E+00 0.  1.
<mgrwt>
<rscale>  0 0.11399960E+03</rscale>
<asrwt>0</asrwt>
<pdfrwt beam="1">  1        2 0.16419924E+00 0.12267388E+03</pdfrwt>
<pdfrwt beam="2">  1       -2 0.24626408E-02 0.12267388E+03</pdfrwt>
<totfact> 0.12977255E+04</totfact>
</mgrwt>
</event>
<event>
 7    1  0.7800420E-006  0.1451010E+03  0.7546771E-02  0.1215591E+00
         -2   -1    0    0    0  501 -0.00000000000E+00  0.00000000000E+00  0.26167228949E+03  0.26167228949E+03  0.00000000000E+00 0.  1.
          2   -1    0    0  501    0  0.00000000000E+00 -0.00000000000E+00 -0.10220875676E+03  0.10220875676E+03  0.00000000000E+00 0. -1.
         23    2    1    2    0    0 -0.54761107767E+02 -0.49281981005E+02 -0.21638808960E+02  0.14670565080E+03  0.12500726918E+03 0.  0.
          5    1    3    3  502    0  0.16068165494E+02 -0.30652086308E+02  0.38384964284E+02  0.51896356524E+02  0.47000000000E+01 0. -1.
         -5    1    3    3    0  502 -0.70829273261E+02 -0.18629894696E+02 -0.60023773244E+02  0.94809294278E+02  0.47000000000E+01 0. -1.
        -11    1    1    2    0    0 -0.56484598897E+01 -0.23997474183E+02  0.43100121471E+02  0.49652838158E+02  0.00000000000E+00 0.  1.
         11    1    1    2    0    0  0.60409567657E+02  0.73279455187E+02  0.13800222022E+03  0.16752255729E+03  0.00000000000E+00 0. -1.
<mgrwt>
<rscale>  0 0.13833243E+03</rscale>
<asrwt>0</asrwt>
<pdfrwt beam="2">  1        2 0.15724424E-01 0.14510103E+03</pdfrwt>
<pdfrwt beam="1">  1       -2 0.40257275E-01 0.14510103E+03</pdfrwt>
<totfact> 0.21061966E+03</totfact>
</mgrwt>
</event>
<event>
 7    1  0.7800420E-006  0.1160539E+03  0.7546771E-02  0.1251382E+00
         -1   -1    0    0    0  501 -0.00000000000E+00  0.00000000000E+00  0.29487899368E+02  0.29487899368E+02  0.00000000000E+00 0.  1.
          1   -1    0    0  501    0  0.00000000000E+00 -0.00000000000E+00 -0.78573501984E+03  0.78573501984E+03  0.00000000000E+00 0. -1.
         23    2    1    2    0    0 -0.33693193226E+02  0.24828674587E+01 -0.65106758638E+03  0.66133009794E+03  0.11102747638E+03 0.  0.
          5    1    3    3  502    0 -0.56075058077E+02  0.24588755118E+01 -0.62101994176E+03  0.62356901484E+03  0.47000000000E+01 0. -1.
         -5    1    3    3    0  502  0.22381864851E+02  0.23991946939E-01 -0.30047644615E+02  0.37761083098E+02  0.47000000000E+01 0.  1.
        -11    1    1    2    0    0 -0.31980138574E+02  0.24317558815E+02 -0.27414863364E+02  0.48637924126E+02  0.00000000000E+00 0.  1.
         11    1    1    2    0    0  0.65673331800E+02 -0.26800426274E+02 -0.77764670732E+02  0.10525489714E+03  0.00000000000E+00 0. -1.
<mgrwt>
<rscale>  0 0.11511402E+03</rscale>
<asrwt>0</asrwt>
<pdfrwt beam="2">  1        1 0.12088230E+00 0.11605385E+03</pdfrwt>
<pdfrwt beam="1">  1       -1 0.45366004E-02 0.11605385E+03</pdfrwt>
<totfact> 0.46607689E+03</totfact>
</mgrwt>
</event>
<event>
 7    1  0.7800420E-006  0.2012349E+03  0.7546771E-02  0.1153004E+00
         -4   -1    0    0    0  501 -0.00000000000E+00  0.00000000000E+00  0.82512054886E+02  0.82512054886E+02  0.00000000000E+00 0.  1.
          4   -1    0    0  501    0  0.00000000000E+00 -0.00000000000E+00 -0.44593734191E+03  0.44593734191E+03  0.00000000000E+00 0. -1.
         23    2    1    2    0    0  0.11128578565E+03 -0.11174250385E+03 -0.17558338648E+03  0.26706743777E+03  0.12499830981E+03 0.  0.
          5    1    3    3  502    0  0.14654252244E+02 -0.31434282238E+01 -0.10360461637E+03  0.10478852410E+03  0.47000000000E+01 0.  1.
         -5    1    3    3    0  502  0.96631533402E+02 -0.10859907563E+03 -0.71978770109E+02  0.16227891367E+03  0.47000000000E+01 0.  1.
        -11    1    1    2    0    0 -0.50674751092E+02  0.85052958453E+01 -0.10154590488E+03  0.11380615648E+03  0.00000000000E+00 0. -1.
         11    1    1    2    0    0 -0.60611034554E+02  0.10323720801E+03 -0.86295995659E+02  0.14757580254E+03  0.00000000000E+00 0.  1.
<mgrwt>
<rscale>  0 0.19617825E+03</rscale>
<asrwt>0</asrwt>
<pdfrwt beam="2">  1        4 0.68605745E-01 0.20123491E+03</pdfrwt>
<pdfrwt beam="1">  1       -4 0.12694162E-01 0.20123491E+03</pdfrwt>
<totfact> 0.17873893E+02</totfact>
</mgrwt>
</event>
<event>
 6    1  0.7800420E-006  0.2563205E+03  0.7546771E-02  0.1136364E+00
         -2   -1    0    0    0  501 -0.00000000000E+00  0.00000000000E+00  0.67366300396E+02  0.67366300396E+02  0.00000000000E+00 0.  1.
          2   -1    0    0  501    0  0.00000000000E+00 -0.00000000000E+00 -0.56869458631E+03  0.56869458631E+03  0.00000000000E+00 0. -1.
          5    1    1    2  502    0  0.70328878296E+02  0.36845976924E+02 -0.36346597045E+03  0.37206636346E+03  0.47000000000E+01 0. -1.
         -5    1    1    2    0  502  0.13049721453E+02 -0.79472105428E+02 -0.10562053349E+02  0.81361893674E+02  0.47000000000E+01 0.  1.
        -11    1    1    2    0    0 -0.27133322403E+02 -0.23920240006E+02 -0.68661433714E+02  0.77606620505E+02  0.00000000000E+00 0. -1.
         11    1    1    2    0    0 -0.56245277346E+02  0.66546368510E+02 -0.58638828396E+02  0.10502600907E+03  0.00000000000E+00 0.  1.
<mgrwt>
<rscale>  0 0.21670475E+03</rscale>
<asrwt>0</asrwt>
<pdfrwt beam="2">  1        2 0.87491474E-01 0.25632054E+03</pdfrwt>
<pdfrwt beam="1">  1       -2 0.10364046E-01 0.25632054E+03</pdfrwt>
<totfact> 0.33483834E+03</totfact>
</mgrwt>
</event>
<event>
 7    1  0.7800420E-006  0.1374327E+03  0.7546771E-02  0.1228895E+00
         -1   -1    0    0    0  501 -0.00000000000E+00  0.00000000000E+00  0.91877309245E+02  0.91877309245E+02  0.00000000000E+00 0.  1.
          1   -1    0    0  501    0  0.00000000000E+00 -0.00000000000E+00 -0.16275459064E+03  0.16275459064E+03  0.00000000000E+00 0. -1.
         23    2    1    2    0    0  0.32795282223E+02 -0.46787774253E+02 -0.46526631465E+02  0.14509466695E+03  0.12499243412E+03 0.  0.
          5    1    3    3  502    0  0.23088583033E+01 -0.10523393775E+02 -0.83806290463E+02  0.84626573630E+02  0.47000000000E+01 0. -1.
         -5    1    3    3    0  502  0.30486423919E+02 -0.36264380478E+02  0.37279658998E+02  0.60468093321E+02  0.47000000000E+01 0. -1.
        -11    1    1    2    0    0 -0.31820984384E+02  0.12733125039E+02  0.29895450753E+02  0.45480165964E+02  0.00000000000E+00 0.  1.
         11    1    1    2    0    0 -0.97429783866E+00  0.34054649213E+02 -0.54246100680E+02  0.64057066966E+02  0.00000000000E+00 0. -1.
<mgrwt>
<rscale>  0 0.12903470E+03</rscale>
<asrwt>0</asrwt>
<pdfrwt beam="2">  1        1 0.25039168E-01 0.13743266E+03</pdfrwt>
<pdfrwt beam="1">  1       -1 0.14134971E-01 0.13743266E+03</pdfrwt>
<totfact> 0.64181457E+03</totfact>
</mgrwt>
</event>
<event>
 7    1  0.7800420E-006  0.1341873E+03  0.7546771E-02  0.1233780E+00
         -4   -1    0    0    0  501 -0.00000000000E+00  0.00000000000E+00  0.52346916436E+02  0.52346916436E+02  0.00000000000E+00 0.  1.
          4   -1    0    0  501    0  0.00000000000E+00 -0.00000000000E+00 -0.27302154242E+03  0.27302154242E+03  0.00000000000E+00 0. -1.
         23    2    1    2    0    0 -0.41938746724E+02 -0.24993193488E+02 -0.14020330132E+03  0.19407007942E+03  0.12499084698E+03 0.  0.
          5    1    3    3  502    0  0.13239360452E+02  0.31704657379E+02 -0.98681023424E+02  0.10459684674E+03  0.47000000000E+01 0.  1.
         -5    1    3    3    0  502 -0.55178107176E+02 -0.56697850867E+02 -0.41522277892E+02  0.89473232678E+02  0.47000000000E+01 0.  1.
        -11    1    1    2    0    0  0.38133986089E+02 -0.19786105573E+02 -0.74449726979E+02  0.85956109242E+02  0.00000000000E+00 0. -1.
         11    1    1    2    0    0  0.38047606347E+01  0.44779299060E+02 -0.60215976920E+01  0.45342270197E+02  0.00000000000E+00 0.  1.
<mgrwt>
<rscale>  0 0.12582832E+03</rscale>
<asrwt>0</asrwt>
<pdfrwt beam="2">  1        4 0.42003313E-01 0.13418729E+03</pdfrwt>
<pdfrwt beam="1">  1       -4 0.80533720E-02 0.13418729E+03</pdfrwt>
<totfact> 0.99317223E+02</totfact>
</mgrwt>
</event>
<event>
 7    1  0.7800420E-006  0.1778505E+03  0.7546771E-02  0.1176367E+00
          2   -1    0    0  501    0  0.00000000000E+00  0.00000000000E+00  0.60878671610E+03  0.60878671610E+03  0.00000000000E+00 0.  1.
         -2   -1    0    0    0  501 -0.00000000000E+00 -0.00000000000E+00 -0.45613625762E+02  0.45613625762E+02  0.00000000000E+00 0. -1.
         23    2    1    2    0    0 -0.26206332566E+02 -0.12376168536E+03  0.33693599998E+03  0.38099430970E+03  0.12500827697E+03 0.  0.
          5    1    3    3  502    0  0.27470380624E+02 -0.11879395212E+03  0.20774102461E+03  0.24092539961E+03  0.47000000000E+01 0. -1.
         -5    1    3    3    0  502 -0.53676713190E+02 -0.49677332417E+01  0.12919497537E+03  0.14006891009E+03  0.47000000000E+01 0. -1.
        -11    1    1    2    0    0 -0.54215299020E+01  0.12167900701E+03  0.18135197875E+03  0.21845757925E+03  0.00000000000E+00 0.  1.
         11    1    1    2    0    0  0.31627862468E+02  0.20826783515E+01  0.44885111602E+02  0.54948452907E+02  0.00000000000E+00 0. -1.
<mgrwt>
<rscale>  0 0.17142762E+03</rscale>
<asrwt>0</asrwt>
<pdfrwt beam="1">  1        2 0.93659489E-01 0.17785049E+03</pdfrwt>
<pdfrwt beam="2">  1       -2 0.70174813E-02 0.17785049E+03</pdfrwt>
<totfact> 0.56307104E+03</totfact>
</mgrwt>
</event>
<event>
 6    1  0.7800420E-006  0.2531456E+03  0.7546771E-02  0.1140799E+00
         -2   -1    0    0    0  501 -0.00000000000E+00  0.00000000000E+00  0.14245257930E+03  0.14245257930E+03  0.00000000000E+00 0.  1.
          2   -1    0    0  501    0  0.00000000000E+00 -0.00000000000E+00 -0.25426745116E+03  0.25426745116E+03  0.00000000000E+00 0. -1.
          5    1    1    2  502    0  0.63812649266E+02 -0.12796905313E+02 -0.16645020888E+03  0.17878360391E+03  0.47000000000E+01 0. -1.
         -5    1    1    2    0  502 -0.74016459129E+02  0.27849371363E+01  0.60389188604E+02  0.95682475915E+02  0.47000000000E+01 0.  1.
        -11    1    1    2    0    0 -0.52094833615E+02  0.99568672505E+01  0.17358533927E+02  0.55806178824E+02  0.00000000000E+00 0.  1.
         11    1    1    2    0    0  0.62298643478E+02  0.55100925744E-01 -0.23112385515E+02  0.66447771818E+02  0.00000000000E+00 0. -1.
<mgrwt>
<rscale>  0 0.21097117E+03</rscale>
<asrwt>0</asrwt>
<pdfrwt beam="2">  1        2 0.39118069E-01 0.25314559E+03</pdfrwt>
<pdfrwt beam="1">  1       -2 0.21915782E-01 0.25314559E+03</pdfrwt>
<totfact> 0.23350923E+03</totfact>
</mgrwt>
</event>
<event>
 7    1  0.7800420E-006  0.1425032E+03  0.7546771E-02  0.1220549E+00
          1   -1    0    0  501    0  0.00000000000E+00  0.00000000000E+00  0.28345575982E+03  0.28345575982E+03  0.00000000000E+00 0. -1.
         -1   -1    0    0    0  501 -0.00000000000E+00 -0.00000000000E+00 -0.59906153091E+02  0.59906153091E+02  0.00000000000E+00 0.  1.
         23    2    1    2    0    0  0.45283105904E+02  0.51299799156E+02  0.15406184215E+03  0.20986234387E+03  0.12499969237E+03 0.  0.
          5    1    3    3  502    0  0.60172881826E+02  0.17408281872E+02  0.16017269065E+03  0.17205000673E+03  0.47000000000E+01 0. -1.
         -5    1    3    3    0  502 -0.14889775922E+02  0.33891517284E+02 -0.61108484954E+01  0.37812337142E+02  0.47000000000E+01 0. -1.
        -11    1    1    2    0    0 -0.70840957864E+02 -0.31085606570E+02  0.64110268868E+02  0.10047329407E+03  0.00000000000E+00 0.  1.
         11    1    1    2    0    0  0.25557851960E+02 -0.20214192585E+02  0.53774957107E+01  0.33026274977E+02  0.00000000000E+00 0. -1.
<mgrwt>
<rscale>  0 0.13476729E+03</rscale>
<asrwt>0</asrwt>
<pdfrwt beam="1">  1        1 0.43608578E-01 0.14250317E+03</pdfrwt>
<pdfrwt beam="2">  1       -1 0.92163314E-02 0.14250317E+03</pdfrwt>
<totfact> 0.62364734E+03</totfact>
</mgrwt>
</event>
<event>
 7    1  0.7800420E-006  0.1521243E+03  0.7546771E-02  0.1206524E+00
          2   -1    0    0  501    0  0.00000000000E+00  0.00000000000E+00  0.33743764846E+03  0.33743764846E+03  0.00000000000E+00 0. -1.
         -2   -1    0    0    0  501 -0.00000000000E+00 -0.00000000000E+00 -0.57399761408E+02  0.57399761408E+02  0.00000000000E+00 0.  1.
         23    2    1    2    0    0  0.86644785025E+01 -0.86264354839E+02  0.15029354249E+03  0.21384559257E+03  0.12500070577E+03 0.  0.
          5    1    3    3  502    0 -0.54020795664E+02 -0.22046516797E+02  0.37036611853E+02  0.69268289170E+02  0.47000000000E+01 0. -1.
         -5    1    3    3    0  502  0.62685274166E+02 -0.64217838042E+02  0.11325693064E+03  0.14457730340E+03  0.47000000000E+01 0. -1.
        -11    1    1    2    0    0 -0.20116410019E+02  0.17557947894E+02 -0.69351716950E+01  0.27587100114E+02  0.00000000000E+00 0.  1.
         11    1    1    2    0    0  0.11451931516E+02  0.68706406945E+02  0.13667951625E+03  0.15340471718E+03  0.00000000000E+00 0. -1.
<mgrwt>
<rscale>  0 0.14518003E+03</rscale>
<asrwt>0</asrwt>
<pdfrwt beam="1">  1        2 0.51913483E-01 0.15212425E+03</pdfrwt>
<pdfrwt beam="2">  1       -2 0.88307327E-02 0.15212425E+03</pdfrwt>
<totfact> 0.74673575E+03</totfact>
</mgrwt>
</event>
<event>
 7    1  0.7800420E-006  0.1448252E+03  0.7546771E-02  0.1216545E+00
          2   -1    0    0  501    0  0.00000000000E+00  0.00000000000E+00  0.27728240147E+02  0.27728240147E+02  0.00000000000E+00 0. -1.
         -2   -1    0    0    0  501 -0.00000000000E+00 -0.00000000000E+00 -0.64316032697E+03  0.64316032697E+03  0.00000000000E+00 0.  1.
         23    2    1    2    0    0  0.47407419996E+02  0.55680231721E+02 -0.39637845015E+03  0.42200737354E+03  0.12500638345E+03 0.  0.
          5    1    3    3  502    0  0.15964821239E+02  0.79584688096E+02 -0.35660778279E+03  0.36575920883E+03  0.47000000000E+01 0.  1.
         -5    1    3    3    0  502  0.31442598757E+02 -0.23904456375E+02 -0.39770667363E+02  0.56248164714E+02  0.47000000000E+01 0.  1.
        -11    1    1    2    0    0  0.12097964022E+02 -0.44967910495E+02 -0.15018000203E+03  0.15723392355E+03  0.00000000000E+00 0.  1.
         11    1    1    2    0    0 -0.59505384017E+02 -0.10712321226E+02 -0.68873634644E+02  0.91647270020E+02  0.00000000000E+00 0. -1.
<mgrwt>
<rscale>  0 0.13763648E+03</rscale>
<asrwt>0</asrwt>
<pdfrwt beam="1">  1        2 0.42658834E-02 0.14482523E+03</pdfrwt>
<pdfrwt beam="2">  1       -2 0.98947737E-01 0.14482523E+03</pdfrwt>
<totfact> 0.16516735E+03</totfact>
</mgrwt>
</event>
<event>
 7    1  0.7800420E-006  0.1732998E+03  0.7546771E-02  0.1178959E+00
         -1   -1    0    0    0  501 -0.00000000000E+00  0.00000000000E+00  0.52881332123E+03  0.52881332123E+03  0.00000000000E+00 0.  1.
          1   -1    0    0  501    0  0.00000000000E+00 -0.00000000000E+00 -0.56011055518E+02  0.56011055518E+02  0.00000000000E+00 0. -1.
         23    2    1    2    0    0  0.10074599943E+03  0.65260555462E+02  0.16384972339E+03  0.23849435240E+03  0.12499651104E+03 0.  0.
          5    1    3    3  502    0  0.32117180403E+02  0.38484820372E+02  0.15639871265E+03  0.16430228846E+03  0.47000000000E+01 0.  1.
         -5    1    3    3    0  502  0.68628819027E+02  0.26775735090E+02  0.74510107461E+01  0.74192063940E+02  0.47000000000E+01 0.  1.
        -11    1    1    2    0    0 -0.84504977767E+02 -0.58959828096E+02  0.31206261975E+03  0.32863419061E+03  0.00000000000E+00 0.  1.
         11    1    1    2    0    0 -0.16241021663E+02 -0.63007273655E+01 -0.31100774257E+01  0.17695833735E+02  0.00000000000E+00 0. -1.
<mgrwt>
<rscale>  0 0.16893841E+03</rscale>
<asrwt>0</asrwt>
<pdfrwt beam="2">  1        1 0.86170858E-02 0.17329981E+03</pdfrwt>
<pdfrwt beam="1">  1       -1 0.81355892E-01 0.17329981E+03</pdfrwt>
<totfact> 0.12226794E+03</totfact>
</mgrwt>
</event>
<event>
 7    1  0.7800420E-006  0.2046553E+03  0.7546771E-02  0.1149893E+00
          1   -1    0    0  501    0  0.00000000000E+00  0.00000000000E+00  0.29204861463E+03  0.29204861463E+03  0.00000000000E+00 0. -1.
         -1   -1    0    0    0  501 -0.00000000000E+00 -0.00000000000E+00 -0.18354756266E+03  0.18354756266E+03  0.00000000000E+00 0.  1.
         23    2    1    2    0    0  0.11539796640E+03  0.11374758214E+03  0.18368232935E+03  0.27499637841E+03  0.12501442690E+03 0.  0.
          5    1    3    3  502    0  0.11058956446E+03  0.13882452979E+03  0.16923161073E+03  0.24528295887E+03  0.47000000000E+01 0. -1.
         -5    1    3    3    0  502  0.48084019324E+01 -0.25076947649E+02  0.14450718622E+02  0.29713419548E+02  0.47000000000E+01 0. -1.
        -11    1    1    2    0    0 -0.69558234645E+02 -0.22755932563E+02  0.13076492154E+01  0.73197612121E+02  0.00000000000E+00 0.  1.
         11    1    1    2    0    0 -0.45839731751E+02 -0.90991649575E+02 -0.76488926590E+02  0.12740218676E+03  0.00000000000E+00 0. -1.
<mgrwt>
<rscale>  0 0.19981730E+03</rscale>
<asrwt>0</asrwt>
<pdfrwt beam="1">  1        1 0.44930556E-01 0.20465534E+03</pdfrwt>
<pdfrwt beam="2">  1       -1 0.28238086E-01 0.20465534E+03</pdfrwt>
<totfact> 0.10257627E+03</totfact>
</mgrwt>
</event>
<event>
 7    1  0.7800420E-006  0.1150983E+03  0.7546771E-02  0.1262156E+00
         -1   -1    0    0    0  501 -0.00000000000E+00  0.00000000000E+00  0.39617013809E+02  0.39617013809E+02  0.00000000000E+00 0.  1.
          1   -1    0    0  501    0  0.00000000000E+00 -0.00000000000E+00 -0.27692030294E+03  0.27692030294E+03  0.00000000000E+00 0. -1.
         23    2    1    2    0    0  0.25608296332E+02 -0.21053686450E+02 -0.14858553042E+03  0.18795018722E+03  0.11022055377E+03 0.  0.
          5    1    3    3  502    0 -0.25674614075E+01 -0.36814883658E+02 -0.15073172270E+03  0.15525485418E+03  0.47000000000E+01 0. -1.
         -5    1    3    3    0  502  0.28175757740E+02  0.15761197208E+02  0.21461922842E+01  0.32695333046E+02  0.47000000000E+01 0.  1.
        -11    1    1    2    0    0  0.10394302312E+02  0.37362569877E+02 -0.78817328651E+02  0.87841757974E+02  0.00000000000E+00 0.  1.
         11    1    1    2    0    0 -0.36002598644E+02 -0.16308883427E+02 -0.99004300658E+01  0.40745371556E+02  0.00000000000E+00 0. -1.
<mgrwt>
<rscale>  0 0.10914786E+03</rscale>
<asrwt>0</asrwt>
<pdfrwt beam="2">  1        1 0.42603125E-01 0.11509828E+03</pdfrwt>
<pdfrwt beam="1">  1       -1 0.60949250E-02 0.11509828E+03</pdfrwt>
<totfact> 0.11758836E+04</totfact>
</mgrwt>
</event>
<event>
 7    1  0.7800420E-006  0.1793926E+03  0.7546771E-02  0.1175394E+00
         -3   -1    0    0    0  501 -0.00000000000E+00  0.00000000000E+00  0.47811630526E+02  0.47811630526E+02  0.00000000000E+00 0.  1.
          3   -1    0    0  501    0  0.00000000000E+00 -0.00000000000E+00 -0.75305434568E+03  0.75305434568E+03  0.00000000000E+00 0. -1.
         23    2    1    2    0    0  0.10481540239E+03 -0.74641802629E+02 -0.56705785179E+03  0.59475735787E+03  0.12499616068E+03 0.  0.
          5    1    3    3  502    0  0.12156315281E+03 -0.92911920737E+02 -0.50732783544E+03  0.52991871806E+03  0.47000000000E+01 0.  1.
         -5    1    3    3    0  502 -0.16747750414E+02  0.18270118108E+02 -0.59730016355E+02  0.64838639817E+02  0.47000000000E+01 0.  1.
        -11    1    1    2    0    0 -0.26453378224E+02  0.57584113275E+02 -0.26675331151E+02  0.68755251531E+02  0.00000000000E+00 0.  1.
         11    1    1    2    0    0 -0.78362024170E+02  0.17057689354E+02 -0.11150953221E+03  0.13735336680E+03  0.00000000000E+00 0. -1.
<mgrwt>
<rscale>  0 0.17237418E+03</rscale>
<asrwt>0</asrwt>
<pdfrwt beam="2">  1        3 0.11585451E+00 0.17939261E+03</pdfrwt>
<pdfrwt beam="1">  1       -3 0.73556355E-02 0.17939261E+03</pdfrwt>
<totfact> 0.19043015E+02</totfact>
</mgrwt>
</event>
<event>
 7    1  0.7800420E-006  0.1317641E+03  0.7546771E-02  0.1237984E+00
          2   -1    0    0  501    0  0.00000000000E+00  0.00000000000E+00  0.72209720591E+03  0.72209720591E+03  0.00000000000E+00 0. -1.
         -2   -1    0    0    0  501 -0.00000000000E+00 -0.00000000000E+00 -0.27964666965E+02  0.27964666965E+02  0.00000000000E+00 0.  1.
         23    2    1    2    0    0 -0.14596840797E+02 -0.39031814016E+02  0.59294829036E+03  0.60741209669E+03  0.12500091960E+03 0.  0.
          5    1    3    3  502    0  0.43038777947E+02  0.18871840606E+02  0.27924123660E+03  0.28320706381E+03  0.47000000000E+01 0. -1.
         -5    1    3    3    0  502 -0.57635618744E+02 -0.57903654622E+02  0.31370705376E+03  0.32420503288E+03  0.47000000000E+01 0. -1.
        -11    1    1    2    0    0  0.82944362509E+00  0.54246860255E+02  0.10813786496E+03  0.12098432817E+03  0.00000000000E+00 0. -1.
         11    1    1    2    0    0  0.13767397172E+02 -0.15215046239E+02 -0.69536163750E+01  0.21665448014E+02  0.00000000000E+00 0.  1.
<mgrwt>
<rscale>  0 0.12315315E+03</rscale>
<asrwt>0</asrwt>
<pdfrwt beam="1">  1        2 0.11109186E+00 0.13176411E+03</pdfrwt>
<pdfrwt beam="2">  1       -2 0.43022570E-02 0.13176411E+03</pdfrwt>
<totfact> 0.95108715E+03</totfact>
</mgrwt>
</event>
<event>
 7    1  0.7800420E-006  0.1739540E+03  0.7546771E-02  0.1179808E+00
         -2   -1    0    0    0  501 -0.00000000000E+00  0.00000000000E+00  0.23283014082E+02  0.23283014082E+02  0.00000000000E+00 0.  1.
          2   -1    0    0  501    0  0.00000000000E+00 -0.00000000000E+00 -0.12760313136E+04  0.12760313136E+04  0.00000000000E+00 0. -1.
         23    2    1    2    0    0 -0.34195894887E+02  0.11604666015E+03 -0.87643872609E+03  0.89353502569E+03  0.12499525986E+03 0.  0.
          5    1    3    3  502    0  0.21952753673E+02  0.10571987043E+03 -0.42721653288E+03  0.44067524365E+03  0.47000000000E+01 0.  1.
         -5    1    3    3    0  502 -0.56148648559E+02  0.10326789726E+02 -0.44922219321E+03  0.45285978204E+03  0.47000000000E+01 0.  1.
        -11    1    1    2    0    0  0.33271668063E+02 -0.25157581892E+02 -0.22836956124E+03  0.23214772091E+03  0.00000000000E+00 0. -1.
         11    1    1    2    0    0  0.92422682433E+00 -0.90889078263E+02 -0.14794001219E+03  0.17363158108E+03  0.00000000000E+00 0.  1.
<mgrwt>
<rscale>  0 0.16813374E+03</rscale>
<asrwt>0</asrwt>
<pdfrwt beam="2">  1        2 0.19631250E+00 0.17395402E+03</pdfrwt>
<pdfrwt beam="1">  1       -2 0.35820024E-02 0.17395402E+03</pdfrwt>
<totfact> 0.58004936E+03</totfact>
</mgrwt>
</event>
<event>
 7    1  0.7800420E-006  0.1347901E+03  0.7546771E-02  0.1227839E+00
         -1   -1    0    0    0  501 -0.00000000000E+00  0.00000000000E+00  0.17226576585E+02  0.17226576585E+02  0.00000000000E+00 0.  1.
          1   -1    0    0  501    0  0.00000000000E+00 -0.00000000000E+00 -0.15245862758E+04  0.15245862758E+04  0.00000000000E+00 0. -1.
         23    2    1    2    0    0  0.72310035866E+02  0.50862531711E+01 -0.12763460421E+04  0.12834436487E+04  0.11363876447E+03 0.  0.
          5    1    3    3  502    0  0.94707321854E+02 -0.55179278185E+00 -0.11948761192E+04  0.11986328927E+04  0.47000000000E+01 0. -1.
         -5    1    3    3    0  502 -0.22397285988E+02  0.56380459529E+01 -0.81469922967E+02  0.84810755981E+02  0.47000000000E+01 0.  1.
        -11    1    1    2    0    0 -0.94156232451E+00  0.34151082449E+02 -0.63540251204E+02  0.72142542893E+02  0.00000000000E+00 0.  1.
         11    1    1    2    0    0 -0.71368473541E+02 -0.39237335620E+02 -0.16747340584E+03  0.18622666078E+03  0.00000000000E+00 0. -1.
<mgrwt>
<rscale>  0 0.12974193E+03</rscale>
<asrwt>0</asrwt>
<pdfrwt beam="2">  1        1 0.23455183E+00 0.13479013E+03</pdfrwt>
<pdfrwt beam="1">  1       -1 0.26502415E-02 0.13479013E+03</pdfrwt>
<totfact> 0.30966268E+03</totfact>
</mgrwt>
</event>
<event>
 7    1  0.7800420E-006  0.1255005E+03  0.7546771E-02  0.1253462E+00
          2   -1    0    0  501    0  0.00000000000E+00  0.00000000000E+00  0.14913277289E+03  0.14913277289E+03  0.00000000000E+00 0. -1.
         -2   -1    0    0    0  501 -0.00000000000E+00 -0.00000000000E+00 -0.74555970986E+02  0.74555970986E+02  0.00000000000E+00 0.  1.
         23    2    1    2    0    0 -0.32828357164E+01 -0.10706393375E+02  0.48647701455E+02  0.13459933904E+03  0.12499991737E+03 0.  0.
          5    1    3    3  502    0  0.15035672046E+02 -0.62963700437E+02  0.72645670071E+01  0.65309746136E+02  0.47000000000E+01 0.  1.
         -5    1    3    3    0  502 -0.18318507762E+02  0.52257307062E+02  0.41383134448E+02  0.69289592904E+02  0.47000000000E+01 0.  1.
        -11    1    1    2    0    0  0.23604869538E+02  0.84466290247E+01 -0.24265086184E+02  0.34890253872E+02  0.00000000000E+00 0.  1.
         11    1    1    2    0    0 -0.20322033821E+02  0.22597643499E+01  0.50194186630E+02  0.54199150961E+02  0.00000000000E+00 0. -1.
<mgrwt>
<rscale>  0 0.11392936E+03</rscale>
<asrwt>0</asrwt>
<pdfrwt beam="1">  1        2 0.22943504E-01 0.12550053E+03</pdfrwt>
<pdfrwt beam="2">  1       -2 0.11470149E-01 0.12550053E+03</pdfrwt>
<totfact> 0.11757942E+04</totfact>
</mgrwt>
</event>
<event>
 7    1  0.7800420E-006  0.1541084E+03  0.7546771E-02  0.1204380E+00
          2   -1    0    0  501    0  0.00000000000E+00  0.00000000000E+00  0.69989124357E+02  0.69989124357E+02  0.00000000000E+00 0. -1.
         -2   -1    0    0    0  501 -0.00000000000E+00 -0.00000000000E+00 -0.33858606505E+03  0.33858606505E+03  0.00000000000E+00 0.  1.
         23    2    1    2    0    0  0.55231152814E+02  0.71193284231E+02 -0.62221825715E+02  0.16619554748E+03  0.12502175989E+03 0.  0.
          5    1    3    3  502    0 -0.99279222296E+01  0.74476099403E+02 -0.66771229025E+02  0.10062673625E+03  0.47000000000E+01 0. -1.
         -5    1    3    3    0  502  0.65159075043E+02 -0.32828151720E+01  0.45494033107E+01  0.65568811233E+02  0.47000000000E+01 0. -1.
        -11    1    1    2    0    0  0.24045476314E+02 -0.22479784760E+02 -0.69124837823E+02  0.76562189481E+02  0.00000000000E+00 0.  1.
         11    1    1    2    0    0 -0.79276629128E+02 -0.48713499471E+02 -0.13725027716E+03  0.16581745245E+03  0.00000000000E+00 0. -1.
<mgrwt>
<rscale>  0 0.14686406E+03</rscale>
<asrwt>0</asrwt>
<pdfrwt beam="1">  1        2 0.10767558E-01 0.15410842E+03</pdfrwt>
<pdfrwt beam="2">  1       -2 0.52090163E-01 0.15410842E+03</pdfrwt>
<totfact> 0.20100765E+03</totfact>
</mgrwt>
</event>
<event>
 7    1  0.7800420E-006  0.1184724E+03  0.7546771E-02  0.1254549E+00
         -1   -1    0    0    0  501 -0.00000000000E+00  0.00000000000E+00  0.17167856047E+03  0.17167856047E+03  0.00000000000E+00 0.  1.
          1   -1    0    0  501    0  0.00000000000E+00 -0.00000000000E+00 -0.93348928611E+02  0.93348928611E+02  0.00000000000E+00 0. -1.
         23    2    1    2    0    0 -0.22555825201E+02  0.36911970718E+02 -0.25790917111E+02  0.12124716598E+03  0.11029254291E+03 0.  0.
          5    1    3    3  502    0  0.23657528246E+02  0.48343001606E+02 -0.44387725014E+02  0.69921989237E+02  0.47000000000E+01 0. -1.
         -5    1    3    3    0  502 -0.46213353447E+02 -0.11431030888E+02  0.18596807903E+02  0.51325176747E+02  0.47000000000E+01 0.  1.
        -11    1    1    2    0    0  0.43563429541E+02 -0.14422166463E+02  0.13135862108E+02  0.47731772983E+02  0.00000000000E+00 0. -1.
         11    1    1    2    0    0 -0.21007604339E+02 -0.22489804255E+02  0.90984686863E+02  0.96048550114E+02  0.00000000000E+00 0.  1.
<mgrwt>
<rscale>  0 0.11331603E+03</rscale>
<asrwt>0</asrwt>
<pdfrwt beam="2">  1        1 0.14361374E-01 0.11847238E+03</pdfrwt>
<pdfrwt beam="1">  1       -1 0.26412086E-01 0.11847238E+03</pdfrwt>
<totfact> 0.47438884E+03</totfact>
</mgrwt>
</event>
<event>
 7    1  0.7800420E-006  0.1342800E+03  0.7546771E-02  0.1233852E+00
          1   -1    0    0  501    0  0.00000000000E+00  0.00000000000E+00  0.29686423792E+03  0.29686423792E+03  0.00000000000E+00 0. -1.
         -1   -1    0    0    0  501 -0.00000000000E+00 -0.00000000000E+00 -0.47627007438E+02  0.47627007438E+02  0.00000000000E+00 0.  1.
         23    2    1    2    0    0 -0.37366244560E+02 -0.31771215370E+02  0.13468462459E+03  0.19018694596E+03  0.12500191980E+03 0.  0.
          5    1    3    3  502    0  0.34137760283E+02 -0.37945248709E+02  0.20429686803E+02  0.55178715820E+02  0.47000000000E+01 0.  1.
         -5    1    3    3    0  502 -0.71504004843E+02  0.61740333391E+01  0.11425493779E+03  0.13500823014E+03  0.47000000000E+01 0.  1.
        -11    1    1    2    0    0  0.19323357655E+02 -0.81040661087E+01 -0.93153918862E+01  0.22931300978E+02  0.00000000000E+00 0.  1.
         11    1    1    2    0    0  0.18042886905E+02  0.39875281478E+02  0.12386799778E+03  0.13137299842E+03  0.00000000000E+00 0. -1.
<mgrwt>
<rscale>  0 0.12578191E+03</rscale>
<asrwt>0</asrwt>
<pdfrwt beam="1">  1        1 0.45671420E-01 0.13428003E+03</pdfrwt>
<pdfrwt beam="2">  1       -1 0.73272321E-02 0.13428003E+03</pdfrwt>
<totfact> 0.82977828E+03</totfact>
</mgrwt>
</event>
<event>
 7    1  0.7800420E-006  0.1412359E+03  0.7546771E-02  0.1230235E+00
         -2   -1    0    0    0  501 -0.00000000000E+00  0.00000000000E+00  0.21751254741E+02  0.21751254741E+02  0.00000000000E+00 0.  1.
          2   -1    0    0  501    0  0.00000000000E+00 -0.00000000000E+00 -0.73405264144E+03  0.73405264144E+03  0.00000000000E+00 0. -1.
         23    2    1    2    0    0 -0.13833921061E+01  0.65730087255E+02 -0.54555980627E+03  0.56354509295E+03  0.12500084572E+03 0.  0.
          5    1    3    3  502    0 -0.59384566478E+01  0.10173044219E+03 -0.44477562581E+03  0.45632422185E+03  0.47000000000E+01 0.  1.
         -5    1    3    3    0  502  0.45550645417E+01 -0.36000354935E+02 -0.10078418046E+03  0.10722087110E+03  0.47000000000E+01 0.  1.
        -11    1    1    2    0    0  0.31367690727E+02 -0.17386846299E+02 -0.42480635735E+02  0.55595313276E+02  0.00000000000E+00 0.  1.
         11    1    1    2    0    0 -0.29984298621E+02 -0.48343240956E+02 -0.12426094470E+03  0.13666348996E+03  0.00000000000E+00 0. -1.
<mgrwt>
<rscale>  0 0.12814445E+03</rscale>
<asrwt>0</asrwt>
<pdfrwt beam="2">  1        2 0.11293118E+00 0.14123587E+03</pdfrwt>
<pdfrwt beam="1">  1       -2 0.33463467E-02 0.14123587E+03</pdfrwt>
<totfact> 0.13596915E+04</totfact>
</mgrwt>
</event>
<event>
 7    1  0.7800420E-006  0.1328253E+03  0.7546771E-02  0.1237231E+00
          2   -1    0    0  501    0  0.00000000000E+00  0.00000000000E+00  0.33808736954E+03  0.33808736954E+03  0.00000000000E+00 0. -1.
         -2   -1    0    0    0  501 -0.00000000000E+00 -0.00000000000E+00 -0.40664266840E+02  0.40664266840E+02  0.00000000000E+00 0.  1.
         23    2    1    2    0    0 -0.94302029144E+01 -0.43928914327E+02  0.19397777566E+03  0.23509560744E+03  0.12499555571E+03 0.  0.
          5    1    3    3  502    0 -0.12201175698E+01 -0.87567397924E+02  0.11895307149E+03  0.14778856885E+03  0.47000000000E+01 0.  1.
         -5    1    3    3    0  502 -0.82100853446E+01  0.43638483597E+02  0.75024704165E+02  0.87307038589E+02  0.47000000000E+01 0.  1.
        -11    1    1    2    0    0  0.31510484649E+02  0.58226483736E+02  0.95448623134E+02  0.11616227318E+03  0.00000000000E+00 0. -1.
         11    1    1    2    0    0 -0.22080281735E+02 -0.14297569409E+02  0.79967039049E+01  0.27493755761E+02  0.00000000000E+00 0.  1.
<mgrwt>
<rscale>  0 0.12362684E+03</rscale>
<asrwt>0</asrwt>
<pdfrwt beam="1">  1        2 0.52013440E-01 0.13282533E+03</pdfrwt>
<pdfrwt beam="2">  1       -2 0.62560413E-02 0.13282533E+03</pdfrwt>
<totfact> 0.12543836E+04</totfact>
</mgrwt>
</event>
<event>
 7    1  0.7800420E-006  0.1681097E+03  0.7546771E-02  0.1182463E+00
          2   -1    0    0  501    0  0.00000000000E+00  0.00000000000E+00  0.52790710353E+03  0.52790710353E+03  0.00000000000E+00 0. -1.
         -2   -1    0    0    0  501 -0.00000000000E+00 -0.00000000000E+00 -0.53518234135E+02  0.53518234135E+02  0.00000000000E+00 0.  1.
         23    2    1    2    0    0 -0.11175495700E+03 -0.12277957653E+02  0.17491262997E+03  0.24260107750E+03  0.12498374303E+03 0.  0.
          5    1    3    3  502    0 -0.21037230802E+02 -0.38627961254E+02  0.13110149506E+03  0.13836320493E+03  0.47000000000E+01 0. -1.
         -5    1    3    3    0  502 -0.90717726203E+02  0.26350003601E+02  0.43811134911E+02  0.10423787258E+03  0.47000000000E+01 0. -1.
        -11    1    1    2    0    0  0.60754521457E+02  0.62313890219E+02  0.16332541338E+03  0.18506572737E+03  0.00000000000E+00 0. -1.
         11    1    1    2    0    0  0.51000435547E+02 -0.50035932566E+02  0.13615082605E+03  0.15375853280E+03  0.00000000000E+00 0.  1.
<mgrwt>
<rscale>  0 0.16564869E+03</rscale>
<asrwt>0</asrwt>
<pdfrwt beam="1">  1        2 0.81216474E-01 0.16810965E+03</pdfrwt>
<pdfrwt beam="2">  1       -2 0.82335748E-02 0.16810965E+03</pdfrwt>
<totfact> 0.51549400E+03</totfact>
</mgrwt>
</event>
<event>
 7    1  0.7800420E-006  0.3011052E+03  0.7546771E-02  0.1086624E+00
         -1   -1    0    0    0  501 -0.00000000000E+00  0.00000000000E+00  0.19811627266E+03  0.19811627266E+03  0.00000000000E+00 0.  1.
          1   -1    0    0  501    0  0.00000000000E+00 -0.00000000000E+00 -0.44200999665E+03  0.44200999665E+03  0.00000000000E+00 0. -1.
         23    2    1    2    0    0 -0.19725420238E+03 -0.19003658472E+03 -0.84517057701E+02  0.31274183302E+03  0.12506477198E+03 0.  0.
          5    1    3    3  502    0 -0.95034854391E+01 -0.48591577482E+02 -0.57584931633E+02  0.76089237010E+02  0.47000000000E+01 0.  1.
         -5    1    3    3    0  502 -0.18775071694E+03 -0.14144500724E+03 -0.26932126068E+02  0.23665259601E+03  0.47000000000E+01 0.  1.
        -11    1    1    2    0    0  0.59842148695E+02  0.29639414755E+02 -0.73712490977E+02  0.99464109072E+02  0.00000000000E+00 0. -1.
         11    1    1    2    0    0  0.13741205369E+03  0.16039716996E+03 -0.85664175313E+02  0.22792032723E+03  0.00000000000E+00 0.  1.
<mgrwt>
<rscale>  0 0.29724825E+03</rscale>
<asrwt>0</asrwt>
<pdfrwt beam="2">  1        1 0.68001537E-01 0.30110517E+03</pdfrwt>
<pdfrwt beam="1">  1       -1 0.30479427E-01 0.30110517E+03</pdfrwt>
<totfact> 0.53089091E+02</totfact>
</mgrwt>
</event>
<event>
 7    1  0.7800420E-006  0.1266890E+03  0.7546771E-02  0.1256290E+00
          3   -1    0    0  501    0  0.00000000000E+00  0.00000000000E+00  0.43655774955E+02  0.43655774955E+02  0.00000000000E+00 0. -1.
         -3   -1    0    0    0  501 -0.00000000000E+00 -0.00000000000E+00 -0.27052208201E+03  0.27052208201E+03  0.00000000000E+00 0.  1.
         23    2    1    2    0    0 -0.20310527507E+02  0.36174645431E+01 -0.86410978713E+02  0.15335242337E+03  0.12499801972E+03 0.  0.
          5    1    3    3  502    0 -0.35436243943E+02 -0.51518384875E+02 -0.20495281323E+02  0.65969825841E+02  0.47000000000E+01 0.  1.
         -5    1    3    3    0  502  0.15125716436E+02  0.55135849419E+02 -0.65915697390E+02  0.87382597531E+02  0.47000000000E+01 0.  1.
        -11    1    1    2    0    0 -0.19323321428E+01 -0.19908612049E+02 -0.25184106547E+01  0.20160087635E+02  0.00000000000E+00 0. -1.
         11    1    1    2    0    0  0.22242859650E+02  0.16291147505E+02 -0.13793691769E+03  0.14066534596E+03  0.00000000000E+00 0.  1.
<mgrwt>
<rscale>  0 0.11234398E+03</rscale>
<asrwt>0</asrwt>
<pdfrwt beam="1">  1        3 0.67162731E-02 0.12668902E+03</pdfrwt>
<pdfrwt beam="2">  1       -3 0.41618782E-01 0.12668902E+03</pdfrwt>
<totfact> 0.18488720E+03</totfact>
</mgrwt>
</event>
<event>
 7    1  0.7800420E-006  0.1421315E+03  0.7546771E-02  0.1221236E+00
          2   -1    0    0  501    0  0.00000000000E+00  0.00000000000E+00  0.37338636452E+03  0.37338636452E+03  0.00000000000E+00 0. -1.
         -2   -1    0    0    0  501 -0.00000000000E+00 -0.00000000000E+00 -0.47654288411E+02  0.47654288411E+02  0.00000000000E+00 0.  1.
         23    2    1    2    0    0  0.62303700168E+02 -0.26348870980E+02  0.24030058786E+03  0.27918761979E+03  0.12500136183E+03 0.  0.
          5    1    3    3  502    0  0.80047674728E+01 -0.17551676841E+02 -0.10446004233E+02  0.22435388712E+02  0.47000000000E+01 0. -1.
         -5    1    3    3    0  502  0.54298932695E+02 -0.87971941394E+01  0.25074659209E+03  0.25675223107E+03  0.47000000000E+01 0. -1.
        -11    1    1    2    0    0 -0.74789130478E+02  0.88500352842E+00  0.31981113904E+02  0.81344876393E+02  0.00000000000E+00 0.  1.
         11    1    1    2    0    0  0.12485430310E+02  0.25463867452E+02  0.53450374350E+02  0.60508156755E+02  0.00000000000E+00 0. -1.
<mgrwt>
<rscale>  0 0.13428254E+03</rscale>
<asrwt>0</asrwt>
<pdfrwt beam="1">  1        2 0.57444054E-01 0.14213147E+03</pdfrwt>
<pdfrwt beam="2">  1       -2 0.73314292E-02 0.14213147E+03</pdfrwt>
<totfact> 0.89011161E+03</totfact>
</mgrwt>
</event>
<event>
 7    1  0.7800420E-006  0.1363606E+03  0.7546771E-02  0.1230801E+00
          2   -1    0    0  501    0  0.00000000000E+00  0.00000000000E+00  0.12098598903E+04  0.12098598903E+04  0.00000000000E+00 0.  1.
         -2   -1    0    0    0  501 -0.00000000000E+00 -0.00000000000E+00 -0.12519823526E+02  0.12519823526E+02  0.00000000000E+00 0. -1.
         23    2    1    2    0    0 -0.48487007638E+02 -0.24855549569E+02  0.79080374205E+03  0.80247416229E+03  0.12500173782E+03 0.  0.
          5    1    3    3  502    0 -0.38428365966E+02 -0.64868957220E+02  0.67932799660E+03  0.68351542622E+03  0.47000000000E+01 0.  1.
         -5    1    3    3    0  502 -0.10058641672E+02  0.40013407651E+02  0.11147574545E+03  0.11895873607E+03  0.47000000000E+01 0.  1.
        -11    1    1    2    0    0  0.75121880042E+02  0.21300105350E+02  0.31224304960E+03  0.32185821937E+03  0.00000000000E+00 0.  1.
         11    1    1    2    0    0 -0.26634872404E+02  0.35554442194E+01  0.94293275159E+02  0.98047332201E+02  0.00000000000E+00 0. -1.
<mgrwt>
<rscale>  0 0.12777079E+03</rscale>
<asrwt>0</asrwt>
<pdfrwt beam="1">  1        2 0.18613220E+00 0.13636063E+03</pdfrwt>
<pdfrwt beam="2">  1       -2 0.19261276E-02 0.13636063E+03</pdfrwt>
<totfact> 0.15515887E+04</totfact>
</mgrwt>
</event>
<event>
 6    1  0.7800420E-006  0.1979029E+03  0.7546771E-02  0.1178149E+00
          3   -1    0    0  501    0  0.00000000000E+00  0.00000000000E+00  0.44115937972E+02  0.44115937972E+02  0.00000000000E+00 0. -1.
         -3   -1    0    0    0  501 -0.00000000000E+00 -0.00000000000E+00 -0.60401333835E+03  0.60401333835E+03  0.00000000000E+00 0.  1.
          5    1    1    2  502    0  0.54754830434E+02  0.99009534547E+02 -0.82463831729E+02  0.14008337849E+03  0.47000000000E+01 0. -1.
         -5    1    1    2    0  502 -0.11883139743E+02 -0.64631243296E+02 -0.15906687071E+03  0.17217074658E+03  0.47000000000E+01 0.  1.
        -11    1    1    2    0    0 -0.48223014610E+02  0.46391417734E+01 -0.26587239758E+03  0.27025009264E+03  0.00000000000E+00 0.  1.
         11    1    1    2    0    0  0.53513239187E+01 -0.39017433025E+02 -0.52494300353E+02  0.65625058606E+02  0.00000000000E+00 0. -1.
<mgrwt>
<rscale>  0 0.16971193E+03</rscale>
<asrwt>0</asrwt>
<pdfrwt beam="1">  1        3 0.67870674E-02 0.19790290E+03</pdfrwt>
<pdfrwt beam="2">  1       -3 0.92925129E-01 0.19790290E+03</pdfrwt>
<totfact> 0.36382153E+02</totfact>
</mgrwt>
</event>
<event>
 7    1  0.7800420E-006  0.1272463E+03  0.7546771E-02  0.1247406E+00
          2   -1    0    0  501    0  0.00000000000E+00  0.00000000000E+00  0.11499070959E+03  0.11499070959E+03  0.00000000000E+00 0. -1.
         -2   -1    0    0    0  501 -0.00000000000E+00 -0.00000000000E+00 -0.14192701318E+03  0.14192701318E+03  0.00000000000E+00 0.  1.
         23    2    1    2    0    0  0.22764320619E+01  0.23712292015E+02  0.50055078843E+02  0.13673744055E+03  0.12499664713E+03 0.  0.
          5    1    3    3  502    0  0.42710880546E+02 -0.11144089408E+02  0.67141015407E+02  0.80488607862E+02  0.47000000000E+01 0. -1.
         -5    1    3    3    0  502 -0.40434448484E+02  0.34856381423E+02 -0.17085936563E+02  0.56248832685E+02  0.47000000000E+01 0. -1.
        -11    1    1    2    0    0  0.71830606823E+01  0.11367716024E+02  0.15670916402E+02  0.20649429756E+02  0.00000000000E+00 0. -1.
         11    1    1    2    0    0 -0.94594927441E+01 -0.35080008039E+02 -0.92662298838E+02  0.99530852468E+02  0.00000000000E+00 0.  1.
<mgrwt>
<rscale>  0 0.11742509E+03</rscale>
<asrwt>0</asrwt>
<pdfrwt beam="1">  1        2 0.17690879E-01 0.12724628E+03</pdfrwt>
<pdfrwt beam="2">  1       -2 0.21834925E-01 0.12724628E+03</pdfrwt>
<totfact> 0.54781774E+03</totfact>
</mgrwt>
</event>
<event>
 7    1  0.7800420E-006  0.1677323E+03  0.7546771E-02  0.1186949E+00
          1   -1    0    0  501    0  0.00000000000E+00  0.00000000000E+00  0.31056287202E+03  0.31056287202E+03  0.00000000000E+00 0. -1.
         -1   -1    0    0    0  501 -0.00000000000E+00 -0.00000000000E+00 -0.80025204389E+02  0.80025204389E+02  0.00000000000E+00 0.  1.
         23    2    1    2    0    0  0.10853827491E+03  0.26985916193E+02  0.15139974818E+03  0.22595574436E+03  0.12500127146E+03 0.  0.
          5    1    3    3  502    0  0.11814661248E+03  0.52934049357E+02  0.14950680501E+03  0.19782570704E+03  0.47000000000E+01 0. -1.
         -5    1    3    3    0  502 -0.96083375702E+01 -0.25948133164E+02  0.18929431670E+01  0.28130037315E+02  0.47000000000E+01 0. -1.
        -11    1    1    2    0    0 -0.26416148791E+02 -0.42365042123E+02  0.61547558555E+02  0.79250941162E+02  0.00000000000E+00 0. -1.
         11    1    1    2    0    0 -0.82122126123E+02  0.15379125930E+02  0.17590360898E+02  0.85381390887E+02  0.00000000000E+00 0.  1.
<mgrwt>
<rscale>  0 0.16155756E+03</rscale>
<asrwt>0</asrwt>
<pdfrwt beam="1">  1        1 0.47778903E-01 0.16773227E+03</pdfrwt>
<pdfrwt beam="2">  1       -1 0.12311570E-01 0.16773227E+03</pdfrwt>
<totfact> 0.35986707E+03</totfact>
</mgrwt>
</event>
<event>
 7    1  0.7800420E-006  0.1496992E+03  0.7546771E-02  0.1211821E+00
         -2   -1    0    0    0  501 -0.00000000000E+00  0.00000000000E+00  0.11466305216E+03  0.11466305216E+03  0.00000000000E+00 0.  1.
          2   -1    0    0  501    0  0.00000000000E+00 -0.00000000000E+00 -0.16460236670E+03  0.16460236670E+03  0.00000000000E+00 0. -1.
         23    2    1    2    0    0 -0.74730967898E+02  0.34664895727E+02 -0.58475659095E+02  0.16071485077E+03  0.12499395182E+03 0.  0.
          5    1    3    3  502    0 -0.71320730148E+00 -0.42136909070E+02 -0.10624376557E+02  0.43714930491E+02  0.47000000000E+01 0. -1.
         -5    1    3    3    0  502 -0.74017760597E+02  0.76801804797E+02 -0.47851282539E+02  0.11699992028E+03  0.47000000000E+01 0. -1.
        -11    1    1    2    0    0  0.16321348109E+02  0.18469662276E+02 -0.22820929754E+02  0.33590320980E+02  0.00000000000E+00 0. -1.
         11    1    1    2    0    0  0.58409619789E+02 -0.53134558003E+02  0.31357274309E+02  0.84960247117E+02  0.00000000000E+00 0.  1.
<mgrwt>
<rscale>  0 0.14112644E+03</rscale>
<asrwt>0</asrwt>
<pdfrwt beam="2">  1        2 0.25323441E-01 0.14969923E+03</pdfrwt>
<pdfrwt beam="1">  1       -2 0.17640470E-01 0.14969923E+03</pdfrwt>
<totfact> 0.53033715E+03</totfact>
</mgrwt>
</event>
<event>
 7    1  0.7800420E-006  0.1336902E+03  0.7546771E-02  0.1235152E+00
         -1   -1    0    0    0  501 -0.00000000000E+00  0.00000000000E+00  0.81664868783E+02  0.81664868783E+02  0.00000000000E+00 0.  1.
          1   -1    0    0  501    0  0.00000000000E+00 -0.00000000000E+00 -0.17019469406E+03  0.17019469406E+03  0.00000000000E+00 0. -1.
         23    2    1    2    0    0  0.30221457809E+02 -0.36587340932E+02 -0.46636593563E+02  0.14159106252E+03  0.12498434741E+03 0.  0.
          5    1    3    3  502    0  0.27643919547E+02  0.29950122757E+02 -0.60803877112E+02  0.73351193671E+02  0.47000000000E+01 0. -1.
         -5    1    3    3    0  502  0.25775382623E+01 -0.66537463689E+02  0.14167283549E+02  0.68239868851E+02  0.47000000000E+01 0. -1.
        -11    1    1    2    0    0 -0.21068679142E+02 -0.97778973736E+01  0.21193578876E+02  0.31443032669E+02  0.00000000000E+00 0.  1.
         11    1    1    2    0    0 -0.91527786671E+01  0.46365238305E+02 -0.63086810594E+02  0.78825467657E+02  0.00000000000E+00 0. -1.
<mgrwt>
<rscale>  0 0.12494680E+03</rscale>
<asrwt>0</asrwt>
<pdfrwt beam="2">  1        1 0.26183799E-01 0.13369015E+03</pdfrwt>
<pdfrwt beam="1">  1       -1 0.12563826E-01 0.13369015E+03</pdfrwt>
<totfact> 0.72739498E+03</totfact>
</mgrwt>
</event>
<event>
 7    1  0.7800420E-006  0.1379460E+03  0.7546771E-02  0.1227671E+00
         -2   -1    0    0    0  501 -0.00000000000E+00  0.00000000000E+00  0.23273750146E+02  0.23273750146E+02  0.00000000000E+00 0.  1.
          2   -1    0    0  501    0  0.00000000000E+00 -0.00000000000E+00 -0.14220425536E+04  0.14220425536E+04  0.00000000000E+00 0. -1.
         23    2    1    2    0    0  0.28189578508E+02  0.51041393378E+02 -0.12681356611E+04  0.12756163810E+04  0.12501688092E+03 0.  0.
          5    1    3    3  502    0  0.45494066728E+02 -0.96313394926E+01 -0.95554904736E+03  0.95669145743E+03  0.47000000000E+01 0.  1.
         -5    1    3    3    0  502 -0.17304488220E+02  0.60672732870E+02 -0.31258661370E+03  0.31892492360E+03  0.47000000000E+01 0.  1.
        -11    1    1    2    0    0  0.59631187515E+01 -0.38337838952E+02 -0.52781319055E+01  0.39156191811E+02  0.00000000000E+00 0.  1.
         11    1    1    2    0    0 -0.34152697260E+02 -0.12703554426E+02 -0.12535501051E+03  0.13054373093E+03  0.00000000000E+00 0. -1.
<mgrwt>
<rscale>  0 0.12985485E+03</rscale>
<asrwt>0</asrwt>
<pdfrwt beam="2">  1        2 0.21877580E+00 0.13794599E+03</pdfrwt>
<pdfrwt beam="1">  1       -2 0.35805766E-02 0.13794599E+03</pdfrwt>
<totfact> 0.48145454E+03</totfact>
</mgrwt>
</event>
<event>
 7    1  0.7800420E-006  0.2808190E+03  0.7546771E-02  0.1096946E+00
         -2   -1    0    0    0  501 -0.00000000000E+00  0.00000000000E+00  0.58217957715E+03  0.58217957715E+03  0.00000000000E+00 0.  1.
          2   -1    0    0  501    0  0.00000000000E+00 -0.00000000000E+00 -0.13659550365E+03  0.13659550365E+03  0.00000000000E+00 0. -1.
         23    2    1    2    0    0  0.24915519626E+03  0.34006586129E+02  0.30869778016E+03  0.41731721521E+03  0.12499831563E+03 0.  0.
          5    1    3    3  502    0  0.12361335386E+03 -0.45494835959E+00  0.62079327928E+02  0.13840665153E+03  0.47000000000E+01 0. -1.
         -5    1    3    3    0  502  0.12554184240E+03  0.34461534488E+02  0.24661845224E+03  0.27891056369E+03  0.47000000000E+01 0. -1.
        -11    1    1    2    0    0 -0.21456189116E+03 -0.60058097083E+02  0.12894303057E+03  0.25742976769E+03  0.00000000000E+00 0.  1.
         11    1    1    2    0    0 -0.34593305108E+02  0.26051510954E+02  0.79432627727E+01  0.44028097901E+02  0.00000000000E+00 0. -1.
<mgrwt>
<rscale>  0 0.27770978E+03</rscale>
<asrwt>0</asrwt>
<pdfrwt beam="2">  1        2 0.21014693E-01 0.28081905E+03</pdfrwt>
<pdfrwt beam="1">  1       -2 0.89566088E-01 0.28081905E+03</pdfrwt>
<totfact> 0.29089536E+02</totfact>
</mgrwt>
</event>
<event>
 7    1  0.7800420E-006  0.1287170E+03  0.7546771E-02  0.1243594E+00
          3   -1    0    0  501    0  0.00000000000E+00  0.00000000000E+00  0.81112567456E+02  0.81112567456E+02  0.00000000000E+00 0. -1.
         -3   -1    0    0    0  501 -0.00000000000E+00 -0.00000000000E+00 -0.16132392851E+03  0.16132392851E+03  0.00000000000E+00 0.  1.
         23    2    1    2    0    0 -0.15391902448E+02  0.26566800728E+02 -0.23912046705E+02  0.13091922636E+03  0.12500140916E+03 0.  0.
          5    1    3    3  502    0 -0.55129656504E+01 -0.47336057835E+02 -0.29092259870E+02  0.56031640579E+02  0.47000000000E+01 0.  1.
         -5    1    3    3    0  502 -0.98789367973E+01  0.73902858564E+02  0.51802131642E+01  0.74887585784E+02  0.47000000000E+01 0.  1.
        -11    1    1    2    0    0  0.16840048644E+02 -0.14165119923E+02 -0.80948440206E+02  0.83886159959E+02  0.00000000000E+00 0.  1.
         11    1    1    2    0    0 -0.14481461962E+01 -0.12401680805E+02  0.24649125862E+02  0.27631109640E+02  0.00000000000E+00 0. -1.
<mgrwt>
<rscale>  0 0.11969920E+03</rscale>
<asrwt>0</asrwt>
<pdfrwt beam="1">  1        3 0.12478857E-01 0.12871697E+03</pdfrwt>
<pdfrwt beam="2">  1       -3 0.24819066E-01 0.12871697E+03</pdfrwt>
<totfact> 0.17601723E+03</totfact>
</mgrwt>
</event>
<event>
 7    1  0.7800420E-006  0.1488467E+03  0.7546771E-02  0.1211006E+00
          1   -1    0    0  501    0  0.00000000000E+00  0.00000000000E+00  0.59298529503E+02  0.59298529503E+02  0.00000000000E+00 0. -1.
         -1   -1    0    0    0  501 -0.00000000000E+00 -0.00000000000E+00 -0.31488009202E+03  0.31488009202E+03  0.00000000000E+00 0.  1.
         23    2    1    2    0    0 -0.48553626243E+02  0.64589574790E+02 -0.16283282461E+03  0.22061248033E+03  0.12500427957E+03 0.  0.
          5    1    3    3  502    0 -0.14865004541E+02 -0.34948950637E+02 -0.19866702140E+02  0.43118132665E+02  0.47000000000E+01 0.  1.
         -5    1    3    3    0  502 -0.33688621702E+02  0.99538525427E+02 -0.14296612247E+03  0.17749434766E+03  0.47000000000E+01 0.  1.
        -11    1    1    2    0    0 -0.22404018641E+02 -0.26946904287E+01 -0.17704924007E+01  0.22634841531E+02  0.00000000000E+00 0. -1.
         11    1    1    2    0    0  0.70957644884E+02 -0.61894884361E+02 -0.90978245506E+02  0.13093129967E+03  0.00000000000E+00 0.  1.
<mgrwt>
<rscale>  0 0.14174058E+03</rscale>
<asrwt>0</asrwt>
<pdfrwt beam="1">  1        1 0.91228507E-02 0.14884669E+03</pdfrwt>
<pdfrwt beam="2">  1       -1 0.48443091E-01 0.14884669E+03</pdfrwt>
<totfact> 0.30667323E+03</totfact>
</mgrwt>
</event>
<event>
 7    1  0.7800420E-006  0.1722148E+03  0.7546771E-02  0.1181855E+00
          1   -1    0    0  501    0  0.00000000000E+00  0.00000000000E+00  0.41611402801E+03  0.41611402801E+03  0.00000000000E+00 0. -1.
         -1   -1    0    0    0  501 -0.00000000000E+00 -0.00000000000E+00 -0.64807134879E+02  0.64807134879E+02  0.00000000000E+00 0.  1.
         23    2    1    2    0    0  0.91479459740E+02  0.75402700738E+02  0.23608710267E+03  0.29222432332E+03  0.12491547646E+03 0.  0.
          5    1    3    3  502    0  0.42155020717E+02 -0.20997591097E+02  0.21849520702E+02  0.52129033738E+02  0.47000000000E+01 0. -1.
         -5    1    3    3    0  502  0.49324439022E+02  0.96400291835E+02  0.21423758197E+03  0.24009528958E+03  0.47000000000E+01 0. -1.
        -11    1    1    2    0    0  0.25939500484E-01  0.17779973861E+02  0.21764425108E+02  0.28103706938E+02  0.00000000000E+00 0.  1.
         11    1    1    2    0    0 -0.91505399240E+02 -0.93182674600E+02  0.93455365349E+02  0.16059313263E+03  0.00000000000E+00 0. -1.
<mgrwt>
<rscale>  0 0.16621343E+03</rscale>
<asrwt>0</asrwt>
<pdfrwt beam="1">  1        1 0.64017541E-01 0.17221479E+03</pdfrwt>
<pdfrwt beam="2">  1       -1 0.99703287E-02 0.17221479E+03</pdfrwt>
<totfact> 0.34513817E+03</totfact>
</mgrwt>
</event>
<event>
 7    1  0.7800420E-006  0.1435296E+03  0.7546771E-02  0.1218810E+00
         -1   -1    0    0    0  501 -0.00000000000E+00  0.00000000000E+00  0.19849792429E+03  0.19849792429E+03  0.00000000000E+00 0.  1.
          1   -1    0    0  501    0  0.00000000000E+00 -0.00000000000E+00 -0.10141188878E+03  0.10141188878E+03  0.00000000000E+00 0. -1.
         23    2    1    2    0    0  0.54692316621E+02  0.44563081456E+02 -0.77918537902E+01  0.14374090590E+03  0.12499446915E+03 0.  0.
          5    1    3    3  502    0  0.36797385091E+02 -0.15759932975E+02 -0.52662545679E+02  0.66316338517E+02  0.47000000000E+01 0. -1.
         -5    1    3    3    0  502  0.17894931530E+02  0.60323014430E+02  0.44870691889E+02  0.77424567387E+02  0.47000000000E+01 0. -1.
        -11    1    1    2    0    0  0.10538267911E+02 -0.31656890283E+02  0.77278649457E+02  0.84173650597E+02  0.00000000000E+00 0.  1.
         11    1    1    2    0    0 -0.65230584531E+02 -0.12906191172E+02  0.27599239838E+02  0.71995256570E+02  0.00000000000E+00 0. -1.
<mgrwt>
<rscale>  0 0.13600378E+03</rscale>
<asrwt>0</asrwt>
<pdfrwt beam="2">  1        1 0.15601829E-01 0.14352956E+03</pdfrwt>
<pdfrwt beam="1">  1       -1 0.30538142E-01 0.14352956E+03</pdfrwt>
<totfact> 0.33845262E+03</totfact>
</mgrwt>
</event>
<event>
 7    1  0.7800420E-006  0.1359284E+03  0.7546771E-02  0.1230158E+00
         -1   -1    0    0    0  501 -0.00000000000E+00  0.00000000000E+00  0.21130357967E+02  0.21130357967E+02  0.00000000000E+00 0.  1.
          1   -1    0    0  501    0  0.00000000000E+00 -0.00000000000E+00 -0.70299786651E+03  0.70299786651E+03  0.00000000000E+00 0. -1.
         23    2    1    2    0    0  0.46750635257E+02  0.26039773782E+02 -0.39823446998E+03  0.42079355579E+03  0.12495131772E+03 0.  0.
          5    1    3    3  502    0  0.35659635392E+02 -0.48425474558E+02 -0.18756376600E+03  0.19702510626E+03  0.47000000000E+01 0. -1.
         -5    1    3    3    0  502  0.11090999865E+02  0.74465248340E+02 -0.21067070398E+03  0.22376844953E+03  0.47000000000E+01 0. -1.
        -11    1    1    2    0    0 -0.99428352641E+01  0.31031714173E+02 -0.14925841837E+03  0.15277402499E+03  0.00000000000E+00 0. -1.
         11    1    1    2    0    0 -0.36807799993E+02 -0.57071487955E+02 -0.13437462019E+03  0.15056064369E+03  0.00000000000E+00 0.  1.
<mgrwt>
<rscale>  0 0.12819531E+03</rscale>
<asrwt>0</asrwt>
<pdfrwt beam="2">  1        1 0.10815350E+00 0.13592838E+03</pdfrwt>
<pdfrwt beam="1">  1       -1 0.32508248E-02 0.13592838E+03</pdfrwt>
<totfact> 0.90039897E+03</totfact>
</mgrwt>
</event>
<event>
 7    1  0.7800420E-006  0.1399951E+03  0.7546771E-02  0.1224363E+00
          2   -1    0    0  501    0  0.00000000000E+00  0.00000000000E+00  0.10739128442E+04  0.10739128442E+04  0.00000000000E+00 0.  1.
         -2   -1    0    0    0  501 -0.00000000000E+00 -0.00000000000E+00 -0.15948720909E+02  0.15948720909E+02  0.00000000000E+00 0. -1.
         23    2    1    2    0    0  0.46170996771E+02  0.42918165991E+02  0.73869970078E+03  0.75184830361E+03  0.12499957515E+03 0.  0.
          5    1    3    3  502    0  0.66206605337E+02 -0.74096366583E+01  0.58528827580E+03  0.58908630361E+03  0.47000000000E+01 0. -1.
         -5    1    3    3    0  502 -0.20035608566E+02  0.50327802650E+02  0.15341142498E+03  0.16276200000E+03  0.47000000000E+01 0. -1.
        -11    1    1    2    0    0 -0.53470422165E+02 -0.28563434435E+02  0.31576749526E+03  0.32153392807E+03  0.00000000000E+00 0.  1.
         11    1    1    2    0    0  0.72994253938E+01 -0.14354731556E+02  0.34969272031E+01  0.16479333391E+02  0.00000000000E+00 0. -1.
<mgrwt>
<rscale>  0 0.13210675E+03</rscale>
<asrwt>0</asrwt>
<pdfrwt beam="1">  1        2 0.16521730E+00 0.13999508E+03</pdfrwt>
<pdfrwt beam="2">  1       -2 0.24536502E-02 0.13999508E+03</pdfrwt>
<totfact> 0.13036767E+04</totfact>
</mgrwt>
</event>
<event>
 7    1  0.7800420E-006  0.1223745E+03  0.7546771E-02  0.1248266E+00
         -1   -1    0    0    0  501 -0.00000000000E+00  0.00000000000E+00  0.11685195903E+02  0.11685195903E+02  0.00000000000E+00 0.  1.
          1   -1    0    0  501    0  0.00000000000E+00 -0.00000000000E+00 -0.14543214135E+04  0.14543214135E+04  0.00000000000E+00 0. -1.
         23    2    1    2    0    0 -0.38631267025E+02 -0.32151654391E+02 -0.11421948692E+04  0.11487317556E+04  0.11157698413E+03 0.  0.
          5    1    3    3  502    0  0.27639159118E+02 -0.10418904962E+02 -0.73295487139E+03  0.73356486433E+03  0.47000000000E+01 0. -1.
         -5    1    3    3    0  502 -0.66270426143E+02 -0.21732749429E+02 -0.40923999780E+03  0.41516689124E+03  0.47000000000E+01 0.  1.
        -11    1    1    2    0    0  0.41657683668E+02  0.54347099285E+02 -0.27490824596E+03  0.28330815997E+03  0.00000000000E+00 0.  1.
         11    1    1    2    0    0 -0.30264166431E+01 -0.22195444894E+02 -0.25533102485E+02  0.33966693897E+02  0.00000000000E+00 0. -1.
<mgrwt>
<rscale>  0 0.11691998E+03</rscale>
<asrwt>0</asrwt>
<pdfrwt beam="2">  1        1 0.22374174E+00 0.12237454E+03</pdfrwt>
<pdfrwt beam="1">  1       -1 0.17977226E-02 0.12237454E+03</pdfrwt>
<totfact> 0.60050613E+03</totfact>
</mgrwt>
</event>
<event>
 7    1  0.7800420E-006  0.1623986E+03  0.7546771E-02  0.1193562E+00
          3   -1    0    0  501    0  0.00000000000E+00  0.00000000000E+00  0.58375647188E+02  0.58375647188E+02  0.00000000000E+00 0. -1.
         -3   -1    0    0    0  501 -0.00000000000E+00 -0.00000000000E+00 -0.39090732478E+03  0.39090732478E+03  0.00000000000E+00 0.  1.
         23    2    1    2    0    0  0.86318163104E+02 -0.56775574421E+02 -0.15246827345E+03  0.22275522022E+03  0.12529574052E+03 0.  0.
          5    1    3    3  502    0  0.76741894066E+02 -0.95106182766E+02 -0.12085558841E+03  0.17193797590E+03  0.47000000000E+01 0.  1.
         -5    1    3    3    0  502  0.95762690389E+01  0.38330608345E+02 -0.31612685042E+02  0.50817244320E+02  0.47000000000E+01 0.  1.
        -11    1    1    2    0    0 -0.94869499117E+02  0.33440761622E+02 -0.17394039022E+03  0.20093224169E+03  0.00000000000E+00 0.  1.
         11    1    1    2    0    0  0.85513360125E+01  0.23334812799E+02 -0.61230139209E+01  0.25595510064E+02  0.00000000000E+00 0. -1.
<mgrwt>
<rscale>  0 0.15576558E+03</rscale>
<asrwt>0</asrwt>
<pdfrwt beam="1">  1        3 0.89808688E-02 0.16239863E+03</pdfrwt>
<pdfrwt beam="2">  1       -3 0.60139588E-01 0.16239863E+03</pdfrwt>
<totfact> 0.57411070E+02</totfact>
</mgrwt>
</event>
<event>
 7    1  0.7800420E-006  0.1478723E+03  0.7546771E-02  0.1212127E+00
          2   -1    0    0  501    0  0.00000000000E+00  0.00000000000E+00  0.85269870778E+02  0.85269870778E+02  0.00000000000E+00 0. -1.
         -2   -1    0    0    0  501 -0.00000000000E+00 -0.00000000000E+00 -0.24181531762E+03  0.24181531762E+03  0.00000000000E+00 0.  1.
         23    2    1    2    0    0  0.13289409170E+02 -0.77873176074E+02 -0.29042605995E+02  0.15069734056E+03  0.12500150216E+03 0.  0.
          5    1    3    3  502    0  0.43177397881E+02 -0.83047065976E+02 -0.56569046598E+02  0.10946803135E+03  0.47000000000E+01 0. -1.
         -5    1    3    3    0  502 -0.29887988712E+02  0.51738899022E+01  0.27526440603E+02  0.41229309213E+02  0.47000000000E+01 0. -1.
        -11    1    1    2    0    0  0.78790364898E+01  0.65596973833E+02 -0.13541271153E+03  0.15067064955E+03  0.00000000000E+00 0.  1.
         11    1    1    2    0    0 -0.21168445659E+02  0.12276202241E+02  0.79098706866E+01  0.25717198280E+02  0.00000000000E+00 0. -1.
<mgrwt>
<rscale>  0 0.14089700E+03</rscale>
<asrwt>0</asrwt>
<pdfrwt beam="1">  1        2 0.13118442E-01 0.14787229E+03</pdfrwt>
<pdfrwt beam="2">  1       -2 0.37202356E-01 0.14787229E+03</pdfrwt>
<totfact> 0.30288094E+03</totfact>
</mgrwt>
</event>
<event>
 7    1  0.7800420E-006  0.1963812E+03  0.7546771E-02  0.1157389E+00
         -2   -1    0    0    0  501 -0.00000000000E+00  0.00000000000E+00  0.31581853633E+02  0.31581853633E+02  0.00000000000E+00 0.  1.
          2   -1    0    0  501    0  0.00000000000E+00 -0.00000000000E+00 -0.11005798557E+04  0.11005798557E+04  0.00000000000E+00 0. -1.
         23    2    1    2    0    0  0.15121769427E+03 -0.84925191488E+01 -0.55367273632E+03  0.58746836540E+03  0.12500666966E+03 0.  0.
          5    1    3    3  502    0  0.17126558558E+03 -0.16532206494E+02 -0.45803151337E+03  0.48930580611E+03  0.47000000000E+01 0. -1.
         -5    1    3    3    0  502 -0.20047891309E+02  0.80396873451E+01 -0.95641222951E+02  0.98162559289E+02  0.47000000000E+01 0. -1.
        -11    1    1    2    0    0  0.11270560876E+02  0.17107277398E+01 -0.16723950746E+02  0.20239630936E+02  0.00000000000E+00 0. -1.
         11    1    1    2    0    0 -0.16248825515E+03  0.67817914090E+01 -0.49860131503E+03  0.52445371303E+03  0.00000000000E+00 0.  1.
<mgrwt>
<rscale>  0 0.19119370E+03</rscale>
<asrwt>0</asrwt>
<pdfrwt beam="2">  1        2 0.16931999E+00 0.19638121E+03</pdfrwt>
<pdfrwt beam="1">  1       -2 0.48587464E-02 0.19638121E+03</pdfrwt>
<totfact> 0.46257518E+03</totfact>
</mgrwt>
</event>
<event>
 7    1  0.7800420E-006  0.1252727E+03  0.7546771E-02  0.1243551E+00
         -1   -1    0    0    0  501 -0.00000000000E+00  0.00000000000E+00  0.15939420787E+03  0.15939420787E+03  0.00000000000E+00 0.  1.
          1   -1    0    0  501    0  0.00000000000E+00 -0.00000000000E+00 -0.82884243344E+02  0.82884243344E+02  0.00000000000E+00 0. -1.
         23    2    1    2    0    0  0.23846762455E+02 -0.44434503965E+02  0.45156778246E+02  0.13316299548E+03  0.11467412751E+03 0.  0.
          5    1    3    3  502    0  0.45078583438E+02 -0.68138671789E+02  0.56062235971E+02  0.99196882915E+02  0.47000000000E+01 0. -1.
         -5    1    3    3    0  502 -0.21231820982E+02  0.23704167824E+02 -0.10905457724E+02  0.33966112563E+02  0.47000000000E+01 0.  1.
        -11    1    1    2    0    0 -0.17122639899E+02  0.32330416133E+02 -0.29319017711E+02  0.46883316905E+02  0.00000000000E+00 0. -1.
         11    1    1    2    0    0 -0.67241225560E+01  0.12104087832E+02  0.60672203988E+02  0.62232138829E+02  0.00000000000E+00 0.  1.
<mgrwt>
<rscale>  0 0.11972528E+03</rscale>
<asrwt>0</asrwt>
<pdfrwt beam="2">  1        1 0.12751422E-01 0.12527270E+03</pdfrwt>
<pdfrwt beam="1">  1       -1 0.24522186E-01 0.12527270E+03</pdfrwt>
<totfact> 0.62775763E+03</totfact>
</mgrwt>
</event>
<event>
 7    1  0.7800420E-006  0.1308272E+03  0.7546771E-02  0.1240194E+00
          1   -1    0    0  501    0  0.00000000000E+00  0.00000000000E+00  0.45558796855E+03  0.45558796855E+03  0.00000000000E+00 0. -1.
         -1   -1    0    0    0  501 -0.00000000000E+00 -0.00000000000E+00 -0.30369057472E+02  0.30369057472E+02  0.00000000000E+00 0.  1.
         23    2    1    2    0    0 -0.38221653468E+02  0.58380062312E+01  0.29623266279E+03  0.32383569521E+03  0.12498315840E+03 0.  0.
          5    1    3    3  502    0 -0.16210429182E+02 -0.46668608928E+02  0.47742770104E+02  0.68863627342E+02  0.47000000000E+01 0.  1.
         -5    1    3    3    0  502 -0.22011224285E+02  0.52506615159E+02  0.24848989268E+03  0.25497206787E+03  0.47000000000E+01 0.  1.
        -11    1    1    2    0    0  0.62826575840E+01 -0.27911089353E+02  0.12735346902E+01  0.28637782487E+02  0.00000000000E+00 0.  1.
         11    1    1    2    0    0  0.31938995884E+02  0.22073083122E+02  0.12771271360E+03  0.13348354832E+03  0.00000000000E+00 0. -1.
<mgrwt>
<rscale>  0 0.12177730E+03</rscale>
<asrwt>0</asrwt>
<pdfrwt beam="1">  1        1 0.70090451E-01 0.13082724E+03</pdfrwt>
<pdfrwt beam="2">  1       -1 0.46721630E-02 0.13082724E+03</pdfrwt>
<totfact> 0.94563139E+03</totfact>
</mgrwt>
</event>
<event>
 7    1  0.7800420E-006  0.1702467E+03  0.7546771E-02  0.1184260E+00
          1   -1    0    0  501    0  0.00000000000E+00  0.00000000000E+00  0.82005424709E+03  0.82005424709E+03  0.00000000000E+00 0. -1.
         -1   -1    0    0    0  501 -0.00000000000E+00 -0.00000000000E+00 -0.33119562744E+02  0.33119562744E+02  0.00000000000E+00 0.  1.
         23    2    1    2    0    0 -0.11512132888E+03  0.10352542348E+02  0.53795189862E+03  0.56424833420E+03  0.12499536757E+03 0.  0.
          5    1    3    3  502    0 -0.10178802002E+03  0.14606218217E+02  0.19091934893E+03  0.21690189125E+03  0.47000000000E+01 0. -1.
         -5    1    3    3    0  502 -0.13333308858E+02 -0.42536758685E+01  0.34703254969E+03  0.34734644295E+03  0.47000000000E+01 0. -1.
        -11    1    1    2    0    0  0.97492978224E+02  0.23136722403E+02  0.13041096825E+03  0.16446035804E+03  0.00000000000E+00 0.  1.
         11    1    1    2    0    0  0.17628350653E+02 -0.33489264751E+02  0.11857181748E+03  0.12446511760E+03  0.00000000000E+00 0. -1.
<mgrwt>
<rscale>  0 0.16399372E+03</rscale>
<asrwt>0</asrwt>
<pdfrwt beam="1">  1        1 0.12616218E+00 0.17024670E+03</pdfrwt>
<pdfrwt beam="2">  1       -1 0.50953180E-02 0.17024670E+03</pdfrwt>
<totfact> 0.37350815E+03</totfact>
</mgrwt>
</event>
<event>
 6    1  0.7800420E-006  0.1724053E+03  0.7546771E-02  0.1202136E+00
          1   -1    0    0  501    0  0.00000000000E+00  0.00000000000E+00  0.35811345447E+03  0.35811345447E+03  0.00000000000E+00 0. -1.
         -1   -1    0    0    0  501 -0.00000000000E+00 -0.00000000000E+00 -0.82520498148E+02  0.82520498148E+02  0.00000000000E+00 0.  1.
          5    1    1    2  502    0  0.80921378712E+02  0.42576619911E+02  0.25630025644E+03  0.27216346108E+03  0.47000000000E+01 0. -1.
         -5    1    1    2    0  502 -0.57482142811E+02 -0.87400562684E+01  0.40285385303E+02  0.70891378846E+02  0.47000000000E+01 0.  1.
        -11    1    1    2    0    0 -0.34217679751E+02 -0.55403708676E+02 -0.30186782195E+02  0.71775081762E+02  0.00000000000E+00 0.  1.
         11    1    1    2    0    0  0.10778443850E+02  0.21567145034E+02  0.91940967756E+01  0.25804030931E+02  0.00000000000E+00 0. -1.
<mgrwt>
<rscale>  0 0.14865502E+03</rscale>
<asrwt>0</asrwt>
<pdfrwt beam="1">  1        1 0.55094377E-01 0.17240528E+03</pdfrwt>
<pdfrwt beam="2">  1       -1 0.12695461E-01 0.17240528E+03</pdfrwt>
<totfact> 0.28731395E+03</totfact>
</mgrwt>
</event>
<event>
 7    1  0.7800420E-006  0.1776289E+03  0.7546771E-02  0.1175241E+00
          4   -1    0    0  501    0  0.00000000000E+00  0.00000000000E+00  0.82190848688E+03  0.82190848688E+03  0.00000000000E+00 0. -1.
         -4   -1    0    0    0  501 -0.00000000000E+00 -0.00000000000E+00 -0.34300879652E+02  0.34300879652E+02  0.00000000000E+00 0.  1.
         23    2    1    2    0    0  0.33900796044E+02 -0.12155564031E+03  0.40586753083E+03  0.44303554346E+03  0.12500800982E+03 0.  0.
          5    1    3    3  502    0  0.10148591975E+02 -0.82087634848E+02  0.38212031428E+03  0.39099795178E+03  0.47000000000E+01 0. -1.
         -5    1    3    3    0  502  0.23752204068E+02 -0.39468005463E+02  0.23747216554E+02  0.52037591676E+02  0.47000000000E+01 0. -1.
        -11    1    1    2    0    0  0.27189043337E+02  0.46319011633E+02  0.80875658532E+02  0.97085359654E+02  0.00000000000E+00 0.  1.
         11    1    1    2    0    0 -0.61089839380E+02  0.75236628679E+02  0.30086441786E+03  0.31608846342E+03  0.00000000000E+00 0. -1.
<mgrwt>
<rscale>  0 0.17252412E+03</rscale>
<asrwt>0</asrwt>
<pdfrwt beam="1">  1        4 0.12644744E+00 0.17762894E+03</pdfrwt>
<pdfrwt beam="2">  1       -4 0.52770590E-02 0.17762894E+03</pdfrwt>
<totfact> 0.18674101E+02</totfact>
</mgrwt>
</event>
<event>
 7    1  0.7800420E-006  0.1628330E+03  0.7546771E-02  0.1189603E+00
         -2   -1    0    0    0  501 -0.00000000000E+00  0.00000000000E+00  0.34077198513E+02  0.34077198513E+02  0.00000000000E+00 0.  1.
          2   -1    0    0  501    0  0.00000000000E+00 -0.00000000000E+00 -0.75098433428E+03  0.75098433428E+03  0.00000000000E+00 0. -1.
         23    2    1    2    0    0  0.10694879121E+03  0.50815914773E+02 -0.46271163027E+03  0.49052688486E+03  0.11177777441E+03 0.  0.
          5    1    3    3  502    0  0.27703397023E+02 -0.35688971064E+02 -0.12932089890E+03  0.13706628234E+03  0.47000000000E+01 0. -1.
         -5    1    3    3    0  502  0.79245394187E+02  0.86504885837E+02 -0.33339073137E+03  0.35346060252E+03  0.47000000000E+01 0.  1.
        -11    1    1    2    0    0  0.12629394507E+02 -0.16927918615E+02 -0.63425732912E+02  0.66849679353E+02  0.00000000000E+00 0.  1.
         11    1    1    2    0    0 -0.11957818572E+03 -0.33887996158E+02 -0.19076977259E+03  0.22768496858E+03  0.00000000000E+00 0. -1.
<mgrwt>
<rscale>  0 0.15919976E+03</rscale>
<asrwt>0</asrwt>
<pdfrwt beam="2">  1        2 0.11553605E+00 0.16283296E+03</pdfrwt>
<pdfrwt beam="1">  1       -2 0.52426460E-02 0.16283296E+03</pdfrwt>
<totfact> 0.68203762E+03</totfact>
</mgrwt>
</event>
<event>
 7    1  0.2049286E-005  0.1527263E+03  0.7546771E-02  0.1206155E+00
         -1   -1    0    0    0  501 -0.00000000000E+00  0.00000000000E+00  0.62940928686E+02  0.62940928686E+02  0.00000000000E+00 0.  1.
          1   -1    0    0  501    0  0.00000000000E+00 -0.00000000000E+00 -0.30878639690E+03  0.30878639690E+03  0.00000000000E+00 0. -1.
         23    2    1    2    0    0  0.35700812884E+02 -0.80163056581E+02 -0.14469098825E+03  0.21038252560E+03  0.12499864526E+03 0.  0.
          5    1    3    3  502    0 -0.25790255903E+02 -0.36472311299E+02  0.24322248788E+01  0.44981913131E+02  0.47000000000E+01 0. -1.
         -5    1    3    3    0  502  0.61491068787E+02 -0.43690745282E+02 -0.14712321313E+03  0.16540061247E+03  0.47000000000E+01 0. -1.
        -11    1    1    2    0    0 -0.49630323746E+02  0.70783450262E+02 -0.11190307581E+03  0.14140637978E+03  0.00000000000E+00 0. -1.
         11    1    1    2    0    0  0.13929510862E+02  0.93796063190E+01  0.10748595849E+02  0.19938420205E+02  0.00000000000E+00 0.  1.
<mgrwt>
<rscale>  0 0.14546792E+03</rscale>
<asrwt>0</asrwt>
<pdfrwt beam="2">  1        1 0.47505598E-01 0.15272631E+03</pdfrwt>
<pdfrwt beam="1">  1       -1 0.96832200E-02 0.15272631E+03</pdfrwt>
<totfact> 0.52224787E+03</totfact>
</mgrwt>
</event>
<event>
 7    1  0.7800420E-006  0.1530220E+03  0.7546771E-02  0.1205332E+00
          4   -1    0    0  501    0  0.00000000000E+00  0.00000000000E+00  0.28710381426E+02  0.28710381426E+02  0.00000000000E+00 0. -1.
         -4   -1    0    0    0  501 -0.00000000000E+00 -0.00000000000E+00 -0.78744911403E+03  0.78744911403E+03  0.00000000000E+00 0.  1.
         23    2    1    2    0    0  0.65837663352E+02 -0.58783447858E+02 -0.26219707898E+03  0.30358366560E+03  0.12500256850E+03 0.  0.
          5    1    3    3  502    0  0.87081246353E+02 -0.52544320745E+02 -0.11068598765E+03  0.15039124633E+03  0.47000000000E+01 0.  1.
         -5    1    3    3    0  502 -0.21243583001E+02 -0.62391271125E+01 -0.15151109133E+03  0.15319241927E+03  0.47000000000E+01 0.  1.
        -11    1    1    2    0    0 -0.20426715915E+01  0.61373871958E+02 -0.19892458793E+03  0.20818721466E+03  0.00000000000E+00 0. -1.
         11    1    1    2    0    0 -0.63794991760E+02 -0.25904240998E+01 -0.29761706569E+03  0.30438861520E+03  0.00000000000E+00 0.  1.
<mgrwt>
<rscale>  0 0.14611304E+03</rscale>
<asrwt>0</asrwt>
<pdfrwt beam="1">  1        4 0.44169823E-02 0.15302200E+03</pdfrwt>
<pdfrwt beam="2">  1       -4 0.12114600E+00 0.15302200E+03</pdfrwt>
<totfact> 0.26961612E+02</totfact>
</mgrwt>
</event>
<event>
 7    1  0.7800420E-006  0.1787622E+03  0.7546771E-02  0.1173321E+00
         -1   -1    0    0    0  501 -0.00000000000E+00  0.00000000000E+00  0.72883524609E+02  0.72883524609E+02  0.00000000000E+00 0.  1.
          1   -1    0    0  501    0  0.00000000000E+00 -0.00000000000E+00 -0.41286412921E+03  0.41286412921E+03  0.00000000000E+00 0. -1.
         23    2    1    2    0    0  0.55756397045E+01  0.12767403909E+03 -0.22363616017E+03  0.28630236357E+03  0.12499665290E+03 0.  0.
          5    1    3    3  502    0 -0.12926599602E+02  0.95798449853E+02 -0.50382862060E+02  0.10910986555E+03  0.47000000000E+01 0. -1.
         -5    1    3    3    0  502  0.18502239306E+02  0.31875589235E+02 -0.17325329811E+03  0.17719249802E+03  0.47000000000E+01 0. -1.
        -11    1    1    2    0    0  0.35004564227E+02 -0.17506685148E+02 -0.53476824544E+02  0.66268954306E+02  0.00000000000E+00 0. -1.
         11    1    1    2    0    0 -0.40580203931E+02 -0.11016735394E+03 -0.62867619892E+02  0.13317633595E+03  0.00000000000E+00 0.  1.
<mgrwt>
<rscale>  0 0.17441432E+03</rscale>
<asrwt>0</asrwt>
<pdfrwt beam="2">  1        1 0.63517558E-01 0.17876216E+03</pdfrwt>
<pdfrwt beam="1">  1       -1 0.11212850E-01 0.17876216E+03</pdfrwt>
<totfact> 0.29130774E+03</totfact>
</mgrwt>
</event>
<event>
 7    1  0.7800420E-006  0.1712220E+03  0.7546771E-02  0.1182997E+00
          2   -1    0    0  501    0  0.00000000000E+00  0.00000000000E+00  0.44983342603E+03  0.44983342603E+03  0.00000000000E+00 0. -1.
         -2   -1    0    0    0  501 -0.00000000000E+00 -0.00000000000E+00 -0.61469547540E+02  0.61469547540E+02  0.00000000000E+00 0.  1.
         23    2    1    2    0    0 -0.36526519202E+02 -0.11116196912E+03  0.27806017054E+03  0.32654925501E+03  0.12500315004E+03 0.  0.
          5    1    3    3  502    0 -0.70595329931E+02 -0.72250075289E+02  0.24484063036E+03  0.26490148784E+03  0.47000000000E+01 0.  1.
         -5    1    3    3    0  502  0.34068810729E+02 -0.38911893832E+02  0.33219540181E+02  0.61647767161E+02  0.47000000000E+01 0.  1.
        -11    1    1    2    0    0 -0.16272391389E+02  0.34134135523E+02  0.76682820976E+02  0.85499619662E+02  0.00000000000E+00 0.  1.
         11    1    1    2    0    0  0.52798910591E+02  0.77027833597E+02  0.33620886976E+02  0.99254098904E+02  0.00000000000E+00 0. -1.
<mgrwt>
<rscale>  0 0.16515472E+03</rscale>
<asrwt>0</asrwt>
<pdfrwt beam="1">  1        2 0.69205140E-01 0.17122195E+03</pdfrwt>
<pdfrwt beam="2">  1       -2 0.94568538E-02 0.17122195E+03</pdfrwt>
<totfact> 0.49566247E+03</totfact>
</mgrwt>
</event>
<event>
 7    1  0.7800420E-006  0.1337391E+03  0.7546771E-02  0.1234212E+00
         -2   -1    0    0    0  501 -0.00000000000E+00  0.00000000000E+00  0.49997916170E+02  0.49997916170E+02  0.00000000000E+00 0.  1.
          2   -1    0    0  501    0  0.00000000000E+00 -0.00000000000E+00 -0.28461458948E+03  0.28461458948E+03  0.00000000000E+00 0. -1.
         23    2    1    2    0    0  0.24874842248E+02  0.40498819361E+02 -0.14689229236E+03  0.19865421611E+03  0.12500895918E+03 0.  0.
          5    1    3    3  502    0  0.86732692631E+01  0.19688393050E+02 -0.16490729793E+03  0.16637116737E+03  0.47000000000E+01 0.  1.
         -5    1    3    3    0  502  0.16201572985E+02  0.20810426312E+02  0.18015005565E+02  0.32283048740E+02  0.47000000000E+01 0.  1.
        -11    1    1    2    0    0 -0.63586520151E+01 -0.67847326999E+02 -0.43817460716E+02  0.81016431049E+02  0.00000000000E+00 0.  1.
         11    1    1    2    0    0 -0.18516190233E+02  0.27348507638E+02 -0.43906920226E+02  0.54941858491E+02  0.00000000000E+00 0. -1.
<mgrwt>
<rscale>  0 0.12555007E+03</rscale>
<asrwt>0</asrwt>
<pdfrwt beam="2">  1        2 0.43786861E-01 0.13373912E+03</pdfrwt>
<pdfrwt beam="1">  1       -2 0.76919870E-02 0.13373912E+03</pdfrwt>
<totfact> 0.10980782E+04</totfact>
</mgrwt>
</event>
<event>
 7    1  0.8891090E-006  0.1621887E+03  0.7546771E-02  0.1193585E+00
          1   -1    0    0  501    0  0.00000000000E+00  0.00000000000E+00  0.38323738927E+03  0.38323738927E+03  0.00000000000E+00 0. -1.
         -1   -1    0    0    0  501 -0.00000000000E+00 -0.00000000000E+00 -0.59730946373E+02  0.59730946373E+02  0.00000000000E+00 0.  1.
         23    2    1    2    0    0  0.10295641561E+03 -0.89744979963E+01  0.20291033498E+03  0.25976485239E+03  0.12499843746E+03 0.  0.
          5    1    3    3  502    0  0.72332152168E+02  0.30709472244E+01  0.21980125300E+02  0.75806245536E+02  0.47000000000E+01 0. -1.
         -5    1    3    3    0  502  0.30624263439E+02 -0.12045445221E+02  0.18093020968E+03  0.18395860685E+03  0.47000000000E+01 0. -1.
        -11    1    1    2    0    0 -0.31554369984E+02  0.84373839028E+01 -0.10172462440E+02  0.34210330374E+02  0.00000000000E+00 0.  1.
         11    1    1    2    0    0 -0.71402045623E+02  0.53711409349E+00  0.13076857036E+03  0.14899315288E+03  0.00000000000E+00 0. -1.
<mgrwt>
<rscale>  0 0.15574605E+03</rscale>
<asrwt>0</asrwt>
<pdfrwt beam="1">  1        1 0.58959597E-01 0.16218870E+03</pdfrwt>
<pdfrwt beam="2">  1       -1 0.91893766E-02 0.16218870E+03</pdfrwt>
<totfact> 0.43297765E+03</totfact>
</mgrwt>
</event>
<event>
 7    1  0.7800420E-006  0.1331677E+03  0.7546771E-02  0.1237441E+00
          2   -1    0    0  501    0  0.00000000000E+00  0.00000000000E+00  0.15222770071E+04  0.15222770071E+04  0.00000000000E+00 0. -1.
         -2   -1    0    0    0  501 -0.00000000000E+00 -0.00000000000E+00 -0.10955837669E+02  0.10955837669E+02  0.00000000000E+00 0.  1.
         23    2    1    2    0    0  0.49674727037E+02 -0.23245105441E+02  0.11825978994E+04  0.11900720283E+04  0.12134960806E+03 0.  0.
          5    1    3    3  502    0  0.56591498694E+02  0.60631519364E+01  0.11082379416E+04  0.11097084233E+04  0.47000000000E+01 0. -1.
         -5    1    3    3    0  502 -0.69167716571E+01 -0.29308257377E+02  0.74359957819E+02  0.80363604993E+02  0.47000000000E+01 0.  1.
        -11    1    1    2    0    0 -0.19260746426E+01  0.41992471723E+02  0.20426484678E+03  0.20854545086E+03  0.00000000000E+00 0. -1.
         11    1    1    2    0    0 -0.47748652395E+02 -0.18747366282E+02  0.12445842331E+03  0.13461536569E+03  0.00000000000E+00 0.  1.
<mgrwt>
<rscale>  0 0.12349452E+03</rscale>
<asrwt>0</asrwt>
<pdfrwt beam="1">  1        2 0.23419630E+00 0.13316772E+03</pdfrwt>
<pdfrwt beam="2">  1       -2 0.16855147E-02 0.13316772E+03</pdfrwt>
<totfact> 0.12812606E+04</totfact>
</mgrwt>
</event>
<event>
 7    1  0.7800420E-006  0.1315839E+03  0.7546771E-02  0.1256555E+00
          2   -1    0    0  501    0  0.00000000000E+00  0.00000000000E+00  0.50874928628E+03  0.50874928628E+03  0.00000000000E+00 0. -1.
         -2   -1    0    0    0  501 -0.00000000000E+00 -0.00000000000E+00 -0.20463400740E+02  0.20463400740E+02  0.00000000000E+00 0.  1.
         23    2    1    2    0    0  0.35163209321E+02  0.21282584530E+02  0.35985410344E+03  0.38315700681E+03  0.12499966564E+03 0.  0.
          5    1    3    3  502    0 -0.45745641627E+01  0.54427735060E+02  0.29502460844E+03  0.30007484827E+03  0.47000000000E+01 0.  1.
         -5    1    3    3    0  502  0.39737773484E+02 -0.33145150530E+02  0.64829495003E+02  0.83082158539E+02  0.47000000000E+01 0.  1.
        -11    1    1    2    0    0 -0.46438699775E+02 -0.10767607749E+02  0.11846595686E+03  0.12769760040E+03  0.00000000000E+00 0. -1.
         11    1    1    2    0    0  0.11275490453E+02 -0.10514976781E+02  0.99658252448E+01  0.18358079814E+02  0.00000000000E+00 0.  1.
<mgrwt>
<rscale>  0 0.11219669E+03</rscale>
<asrwt>0</asrwt>
<pdfrwt beam="1">  1        2 0.78269111E-01 0.13158387E+03</pdfrwt>
<pdfrwt beam="2">  1       -2 0.31482159E-02 0.13158387E+03</pdfrwt>
<totfact> 0.22524538E+04</totfact>
</mgrwt>
</event>
<event>
 7    1  0.7800420E-006  0.1279052E+03  0.7546771E-02  0.1245257E+00
          2   -1    0    0  501    0  0.00000000000E+00  0.00000000000E+00  0.78355313408E+03  0.78355313408E+03  0.00000000000E+00 0. -1.
         -2   -1    0    0    0  501 -0.00000000000E+00 -0.00000000000E+00 -0.22002457900E+02  0.22002457900E+02  0.00000000000E+00 0.  1.
         23    2    1    2    0    0 -0.15107875182E+02 -0.22504238381E+02  0.63296198704E+03  0.64575584454E+03  0.12500018032E+03 0.  0.
          5    1    3    3  502    0  0.11811426735E+01 -0.70323991146E+02  0.26107706901E+03  0.27042593217E+03  0.47000000000E+01 0.  1.
         -5    1    3    3    0  502 -0.16289017855E+02  0.47819752765E+02  0.37188491804E+03  0.37532991237E+03  0.47000000000E+01 0.  1.
        -11    1    1    2    0    0 -0.14069415603E+02  0.35807970514E+02  0.12083025320E+03  0.12680737083E+03  0.00000000000E+00 0. -1.
         11    1    1    2    0    0  0.29177290785E+02 -0.13303732133E+02  0.77584359346E+01  0.32992376610E+02  0.00000000000E+00 0.  1.
<mgrwt>
<rscale>  0 0.11870032E+03</rscale>
<asrwt>0</asrwt>
<pdfrwt beam="1">  1        2 0.12054661E+00 0.12790517E+03</pdfrwt>
<pdfrwt beam="2">  1       -2 0.33849941E-02 0.12790517E+03</pdfrwt>
<totfact> 0.12263070E+04</totfact>
</mgrwt>
</event>
<event>
 7    1  0.7800420E-006  0.1454700E+03  0.7546771E-02  0.1214535E+00
         -2   -1    0    0    0  501 -0.00000000000E+00  0.00000000000E+00  0.42454948568E+02  0.42454948568E+02  0.00000000000E+00 0.  1.
          2   -1    0    0  501    0  0.00000000000E+00 -0.00000000000E+00 -0.44919179650E+03  0.44919179650E+03  0.00000000000E+00 0. -1.
         23    2    1    2    0    0 -0.61185827431E+02 -0.42357232543E+02 -0.28262031769E+03  0.31786125316E+03  0.12499476654E+03 0.  0.
          5    1    3    3  502    0 -0.89923463742E+02 -0.62587129161E+02 -0.22272751117E+03  0.24825996919E+03  0.47000000000E+01 0. -1.
         -5    1    3    3    0  502  0.28737636312E+02  0.20229896618E+02 -0.59892806520E+02  0.69601283974E+02  0.47000000000E+01 0. -1.
        -11    1    1    2    0    0 -0.23533884834E+01  0.55257705750E+02 -0.43706849159E+02  0.70492844640E+02  0.00000000000E+00 0.  1.
         11    1    1    2    0    0  0.63539215914E+02 -0.12900473207E+02 -0.80409681083E+02  0.10329264727E+03  0.00000000000E+00 0. -1.
<mgrwt>
<rscale>  0 0.13910732E+03</rscale>
<asrwt>0</asrwt>
<pdfrwt beam="2">  1        2 0.69106437E-01 0.14547004E+03</pdfrwt>
<pdfrwt beam="1">  1       -2 0.65315299E-02 0.14547004E+03</pdfrwt>
<totfact> 0.87252273E+03</totfact>
</mgrwt>
</event>
<event>
 7    1  0.7800420E-006  0.1645884E+03  0.7546771E-02  0.1190917E+00
         -2   -1    0    0    0  501 -0.00000000000E+00  0.00000000000E+00  0.23325295234E+02  0.23325295234E+02  0.00000000000E+00 0. -1.
          2   -1    0    0  501    0  0.00000000000E+00 -0.00000000000E+00 -0.99620086512E+03  0.99620086512E+03  0.00000000000E+00 0.  1.
         23    2    1    2    0    0  0.10466294858E+03 -0.22571999188E+02 -0.50196942922E+03  0.52826382131E+03  0.12500211633E+03 0.  0.
          5    1    3    3  502    0  0.15075960455E+02 -0.31024338350E+02 -0.34896974909E+03  0.35070182482E+03  0.47000000000E+01 0. -1.
         -5    1    3    3    0  502  0.89586988125E+02  0.84523391620E+01 -0.15299968013E+03  0.17756199649E+03  0.47000000000E+01 0. -1.
        -11    1    1    2    0    0 -0.23983876955E+02 -0.19182526729E+02 -0.37662070346E+02  0.48596576302E+02  0.00000000000E+00 0. -1.
         11    1    1    2    0    0 -0.80679071624E+02  0.41754525917E+02 -0.43324407032E+03  0.44266576274E+03  0.00000000000E+00 0.  1.
<mgrwt>
<rscale>  0 0.15804945E+03</rscale>
<asrwt>0</asrwt>
<pdfrwt beam="2">  1        2 0.15326166E+00 0.16458845E+03</pdfrwt>
<pdfrwt beam="1">  1       -2 0.35885072E-02 0.16458845E+03</pdfrwt>
<totfact> 0.83467751E+03</totfact>
</mgrwt>
</event>
<event>
 7    1  0.7800420E-006  0.1304571E+03  0.7546771E-02  0.1240643E+00
          1   -1    0    0  501    0  0.00000000000E+00  0.00000000000E+00  0.33908185619E+03  0.33908185619E+03  0.00000000000E+00 0. -1.
         -1   -1    0    0    0  501 -0.00000000000E+00 -0.00000000000E+00 -0.45914176230E+02  0.45914176230E+02  0.00000000000E+00 0.  1.
         23    2    1    2    0    0  0.36388303706E+02 -0.89377213056E+01  0.24050389048E+03  0.27360771097E+03  0.12496026031E+03 0.  0.
          5    1    3    3  502    0 -0.62676244246E+01 -0.77977364471E+01 -0.12673506622E+02  0.16816526982E+02  0.47000000000E+01 0.  1.
         -5    1    3    3    0  502  0.42655928130E+02 -0.11399848585E+01  0.25317739711E+03  0.25679118399E+03  0.47000000000E+01 0.  1.
        -11    1    1    2    0    0  0.20655827312E+02 -0.23273807946E+02  0.26404608576E+02  0.40810987396E+02  0.00000000000E+00 0.  1.
         11    1    1    2    0    0 -0.57044131017E+02  0.32211529251E+02  0.26259180901E+02  0.70577334052E+02  0.00000000000E+00 0. -1.
<mgrwt>
<rscale>  0 0.12149992E+03</rscale>
<asrwt>0</asrwt>
<pdfrwt beam="1">  1        1 0.52166438E-01 0.13045711E+03</pdfrwt>
<pdfrwt beam="2">  1       -1 0.70637196E-02 0.13045711E+03</pdfrwt>
<totfact> 0.74193795E+03</totfact>
</mgrwt>
</event>
<event>
 7    1  0.7800420E-006  0.1513006E+03  0.7546771E-02  0.1208221E+00
          1   -1    0    0  501    0  0.00000000000E+00  0.00000000000E+00  0.46494073334E+03  0.46494073334E+03  0.00000000000E+00 0. -1.
         -1   -1    0    0    0  501 -0.00000000000E+00 -0.00000000000E+00 -0.41024223510E+02  0.41024223510E+02  0.00000000000E+00 0.  1.
         23    2    1    2    0    0  0.84932705444E+02  0.74082903062E+01  0.25683933463E+03  0.29809112521E+03  0.12499371142E+03 0.  0.
          5    1    3    3  502    0  0.59124623842E+02  0.34865777090E+02  0.25026770213E+03  0.25955222265E+03  0.47000000000E+01 0.  1.
         -5    1    3    3    0  502  0.25808081601E+02 -0.27457486783E+02  0.65716325073E+01  0.38538902556E+02  0.47000000000E+01 0.  1.
        -11    1    1    2    0    0 -0.80774374633E+01  0.33760772423E+02  0.32699004124E+02  0.47689198161E+02  0.00000000000E+00 0. -1.
         11    1    1    2    0    0 -0.76855267981E+02 -0.41169062729E+02  0.13437817107E+03  0.16018463348E+03  0.00000000000E+00 0.  1.
<mgrwt>
<rscale>  0 0.14386508E+03</rscale>
<asrwt>0</asrwt>
<pdfrwt beam="1">  1        1 0.71529340E-01 0.15130061E+03</pdfrwt>
<pdfrwt beam="2">  1       -1 0.63114193E-02 0.15130061E+03</pdfrwt>
<totfact> 0.59473062E+03</totfact>
</mgrwt>
</event>
<event>
 7    1  0.7800420E-006  0.1362478E+03  0.7546771E-02  0.1229683E+00
          1   -1    0    0  501    0  0.00000000000E+00  0.00000000000E+00  0.33465881912E+03  0.33465881912E+03  0.00000000000E+00 0. -1.
         -1   -1    0    0    0  501 -0.00000000000E+00 -0.00000000000E+00 -0.59031746022E+02  0.59031746022E+02  0.00000000000E+00 0.  1.
         23    2    1    2    0    0 -0.30626300219E+01 -0.54116440932E+02  0.24705472061E+03  0.28213382727E+03  0.12500197051E+03 0.  0.
          5    1    3    3  502    0 -0.56219185528E+02  0.28520552944E+01  0.82267104153E+02  0.99793273653E+02  0.47000000000E+01 0.  1.
         -5    1    3    3    0  502  0.53156555506E+02 -0.56968496227E+02  0.16478761646E+03  0.18234055361E+03  0.47000000000E+01 0.  1.
        -11    1    1    2    0    0  0.13760532957E+02  0.16508687591E+02  0.58496862963E+02  0.62319916638E+02  0.00000000000E+00 0. -1.
         11    1    1    2    0    0 -0.10697902935E+02  0.37607753341E+02 -0.29924510471E+02  0.49236821237E+02  0.00000000000E+00 0.  1.
<mgrwt>
<rscale>  0 0.12851023E+03</rscale>
<asrwt>0</asrwt>
<pdfrwt beam="1">  1        1 0.51485971E-01 0.13624779E+03</pdfrwt>
<pdfrwt beam="2">  1       -1 0.90818073E-02 0.13624779E+03</pdfrwt>
<totfact> 0.51766013E+03</totfact>
</mgrwt>
</event>
<event>
 7    1  0.7800420E-006  0.1212982E+03  0.7546771E-02  0.1250601E+00
          1   -1    0    0  501    0  0.00000000000E+00  0.00000000000E+00  0.13855018047E+04  0.13855018047E+04  0.00000000000E+00 0. -1.
         -1   -1    0    0    0  501 -0.00000000000E+00 -0.00000000000E+00 -0.94187619534E+01  0.94187619534E+01  0.00000000000E+00 0.  1.
         23    2    1    2    0    0 -0.12437152351E+02 -0.41430452758E+02  0.92372967621E+03  0.93165968845E+03  0.11332296847E+03 0.  0.
          5    1    3    3  502    0  0.31791528035E+00  0.34012703996E+02  0.49047807676E+03  0.49167855240E+03  0.47000000000E+01 0. -1.
         -5    1    3    3    0  502 -0.12755067632E+02 -0.75443156754E+02  0.43325159945E+03  0.43998113605E+03  0.47000000000E+01 0.  1.
        -11    1    1    2    0    0  0.50694303151E+02  0.13452689033E+02  0.22775363837E+03  0.23371479843E+03  0.00000000000E+00 0. -1.
         11    1    1    2    0    0 -0.38257150799E+02  0.27977763725E+02  0.22459972814E+03  0.22954607976E+03  0.00000000000E+00 0.  1.
<mgrwt>
<rscale>  0 0.11556348E+03</rscale>
<asrwt>0</asrwt>
<pdfrwt beam="1">  1        1 0.21315396E+00 0.12129823E+03</pdfrwt>
<pdfrwt beam="2">  1       -1 0.14490414E-02 0.12129823E+03</pdfrwt>
<totfact> 0.90651965E+03</totfact>
</mgrwt>
</event>
<event>
 7    1  0.7800420E-006  0.1187191E+03  0.7546771E-02  0.1259157E+00
         -1   -1    0    0    0  501 -0.00000000000E+00  0.00000000000E+00  0.16140575015E+03  0.16140575015E+03  0.00000000000E+00 0.  1.
          1   -1    0    0  501    0  0.00000000000E+00 -0.00000000000E+00 -0.20351181622E+03  0.20351181622E+03  0.00000000000E+00 0. -1.
         23    2    1    2    0    0  0.89741224225E+01 -0.15845604314E+02 -0.17073212842E+03  0.20795114854E+03  0.11731411872E+03 0.  0.
          5    1    3    3  502    0 -0.11399048716E+02 -0.47096955806E+02 -0.16226234389E+03  0.16940844076E+03  0.47000000000E+01 0. -1.
         -5    1    3    3    0  502  0.20373171138E+02  0.31251351492E+02 -0.84697845345E+01  0.38542707771E+02  0.47000000000E+01 0.  1.
        -11    1    1    2    0    0 -0.48299574396E+02  0.12355086640E+02  0.62462597094E+02  0.79919165964E+02  0.00000000000E+00 0.  1.
         11    1    1    2    0    0  0.39325451974E+02  0.34905176741E+01  0.66163465261E+02  0.77047251878E+02  0.00000000000E+00 0. -1.
<mgrwt>
<rscale>  0 0.11076675E+03</rscale>
<asrwt>0</asrwt>
<pdfrwt beam="2">  1        1 0.31309510E-01 0.11871908E+03</pdfrwt>
<pdfrwt beam="1">  1       -1 0.24831654E-01 0.11871908E+03</pdfrwt>
<totfact> 0.19624548E+03</totfact>
</mgrwt>
</event>
<event>
 7    1  0.7800420E-006  0.1712751E+03  0.7546771E-02  0.1182822E+00
          1   -1    0    0  501    0  0.00000000000E+00  0.00000000000E+00  0.41774845317E+03  0.41774845317E+03  0.00000000000E+00 0. -1.
         -1   -1    0    0    0  501 -0.00000000000E+00 -0.00000000000E+00 -0.62927833817E+02  0.62927833817E+02  0.00000000000E+00 0.  1.
         23    2    1    2    0    0 -0.11407304925E+03  0.26508287749E+02  0.22872623209E+03  0.28574614491E+03  0.12497927909E+03 0.  0.
          5    1    3    3  502    0 -0.13192493450E+03  0.44116335249E+02  0.15801500642E+03  0.21057367270E+03  0.47000000000E+01 0. -1.
         -5    1    3    3    0  502  0.17851885248E+02 -0.17608047500E+02  0.70711225668E+02  0.75172472217E+02  0.47000000000E+01 0. -1.
        -11    1    1    2    0    0  0.16051969988E+02 -0.20707583279E+02 -0.91909306098E+01  0.27765859454E+02  0.00000000000E+00 0.  1.
         11    1    1    2    0    0  0.98021079262E+02 -0.58007044704E+01  0.13528531787E+03  0.16716428262E+03  0.00000000000E+00 0. -1.
<mgrwt>
<rscale>  0 0.16531595E+03</rscale>
<asrwt>0</asrwt>
<pdfrwt beam="1">  1        1 0.64268991E-01 0.17127513E+03</pdfrwt>
<pdfrwt beam="2">  1       -1 0.96812055E-02 0.17127513E+03</pdfrwt>
<totfact> 0.35919060E+03</totfact>
</mgrwt>
</event>
<event>
 7    1  0.7800420E-006  0.1570908E+03  0.7546771E-02  0.1200459E+00
         -1   -1    0    0    0  501 -0.00000000000E+00  0.00000000000E+00  0.73737613542E+02  0.73737613542E+02  0.00000000000E+00 0.  1.
          1   -1    0    0  501    0  0.00000000000E+00 -0.00000000000E+00 -0.40817164040E+03  0.40817164040E+03  0.00000000000E+00 0. -1.
         23    2    1    2    0    0  0.68895948698E+02 -0.65619881083E+02 -0.31207074560E+03  0.34937899151E+03  0.12499963564E+03 0.  0.
          5    1    3    3  502    0 -0.42077665246E+01 -0.27996012210E+02 -0.22339126080E+01  0.28784759237E+02  0.47000000000E+01 0.  1.
         -5    1    3    3    0  502  0.73103715223E+02 -0.37623868873E+02 -0.30983683299E+03  0.32059423227E+03  0.47000000000E+01 0.  1.
        -11    1    1    2    0    0 -0.90373031245E+02  0.59837992063E+02 -0.18692959401E+02  0.10998771205E+03  0.00000000000E+00 0. -1.
         11    1    1    2    0    0  0.21477082547E+02  0.57818890198E+01 -0.36703218617E+01  0.22542550387E+02  0.00000000000E+00 0.  1.
<mgrwt>
<rscale>  0 0.15001121E+03</rscale>
<asrwt>0</asrwt>
<pdfrwt beam="2">  1        1 0.62795637E-01 0.15709083E+03</pdfrwt>
<pdfrwt beam="1">  1       -1 0.11344248E-01 0.15709083E+03</pdfrwt>
<totfact> 0.28895379E+03</totfact>
</mgrwt>
</event>
<event>
 7    1  0.7800420E-006  0.1420817E+03  0.7546771E-02  0.1221693E+00
         -1   -1    0    0    0  501 -0.00000000000E+00  0.00000000000E+00  0.21413739894E+02  0.21413739894E+02  0.00000000000E+00 0.  1.
          1   -1    0    0  501    0  0.00000000000E+00 -0.00000000000E+00 -0.80538290659E+03  0.80538290659E+03  0.00000000000E+00 0. -1.
         23    2    1    2    0    0  0.21158932326E+02  0.64152651210E+02 -0.53741279456E+03  0.55587744098E+03  0.12499581817E+03 0.  0.
          5    1    3    3  502    0  0.61935786043E+02  0.62085647833E+02 -0.45921278004E+03  0.46753517153E+03  0.47000000000E+01 0. -1.
         -5    1    3    3    0  502 -0.40776853717E+02  0.20670033770E+01 -0.78200014519E+02  0.88342269456E+02  0.47000000000E+01 0. -1.
        -11    1    1    2    0    0 -0.42753162855E+02 -0.17258294920E+02 -0.51394011246E+02  0.69043653362E+02  0.00000000000E+00 0.  1.
         11    1    1    2    0    0  0.21594230528E+02 -0.46894356290E+02 -0.19516236089E+03  0.20187555214E+03  0.00000000000E+00 0. -1.
<mgrwt>
<rscale>  0 0.13396177E+03</rscale>
<asrwt>0</asrwt>
<pdfrwt beam="2">  1        1 0.12390505E+00 0.14208173E+03</pdfrwt>
<pdfrwt beam="1">  1       -1 0.32944219E-02 0.14208173E+03</pdfrwt>
<totfact> 0.72483170E+03</totfact>
</mgrwt>
</event>
<event>
 7    1  0.7800420E-006  0.1377458E+03  0.7546771E-02  0.1228985E+00
          1   -1    0    0  501    0  0.00000000000E+00  0.00000000000E+00  0.78324099489E+03  0.78324099489E+03  0.00000000000E+00 0. -1.
         -1   -1    0    0    0  501 -0.00000000000E+00 -0.00000000000E+00 -0.19075139255E+02  0.19075139255E+02  0.00000000000E+00 0.  1.
         23    2    1    2    0    0  0.57740155892E+02  0.28272197162E+01  0.46476258758E+03  0.48474545645E+03  0.12502790072E+03 0.  0.
          5    1    3    3  502    0 -0.37430781828E+02 -0.58627129351E+01  0.19004962231E+03  0.19384628904E+03  0.47000000000E+01 0. -1.
         -5    1    3    3    0  502  0.95170937720E+02  0.86899326513E+01  0.27471296526E+03  0.29089916741E+03  0.47000000000E+01 0. -1.
        -11    1    1    2    0    0  0.22055101493E+01  0.31925663471E+02  0.56022994991E+02  0.64518898245E+02  0.00000000000E+00 0.  1.
         11    1    1    2    0    0 -0.59945666041E+02 -0.34752883187E+02  0.24338027307E+03  0.25305177946E+03  0.00000000000E+00 0. -1.
<mgrwt>
<rscale>  0 0.12897444E+03</rscale>
<asrwt>0</asrwt>
<pdfrwt beam="1">  1        1 0.12049859E+00 0.13774576E+03</pdfrwt>
<pdfrwt beam="2">  1       -1 0.29346374E-02 0.13774576E+03</pdfrwt>
<totfact> 0.89322955E+03</totfact>
</mgrwt>
</event>
<event>
 7    1  0.7800420E-006  0.1849185E+03  0.7546771E-02  0.1168447E+00
          1   -1    0    0  501    0  0.00000000000E+00  0.00000000000E+00  0.11023509047E+03  0.11023509047E+03  0.00000000000E+00 0. -1.
         -1   -1    0    0    0  501 -0.00000000000E+00 -0.00000000000E+00 -0.28449852401E+03  0.28449852401E+03  0.00000000000E+00 0.  1.
         23    2    1    2    0    0 -0.61678432142E+01 -0.13612864731E+03 -0.57142886966E+02  0.19354622987E+03  0.12500313059E+03 0.  0.
          5    1    3    3  502    0 -0.47206342479E+02 -0.58327417872E+02  0.18512863605E+02  0.77429597472E+02  0.47000000000E+01 0.  1.
         -5    1    3    3    0  502  0.41038499264E+02 -0.77801229438E+02 -0.75655750572E+02  0.11611663239E+03  0.47000000000E+01 0.  1.
        -11    1    1    2    0    0  0.19871990550E+02  0.63626591230E+02 -0.48409852806E+01  0.66833182316E+02  0.00000000000E+00 0. -1.
         11    1    1    2    0    0 -0.13704147336E+02  0.72502056080E+02 -0.11227956129E+03  0.13435420229E+03  0.00000000000E+00 0.  1.
<mgrwt>
<rscale>  0 0.17933671E+03</rscale>
<asrwt>0</asrwt>
<pdfrwt beam="1">  1        1 0.16959245E-01 0.18491845E+03</pdfrwt>
<pdfrwt beam="2">  1       -1 0.43769004E-01 0.18491845E+03</pdfrwt>
<totfact> 0.16428322E+03</totfact>
</mgrwt>
</event>
<event>
 7    1  0.7800420E-006  0.1186202E+03  0.7546771E-02  0.1250943E+00
         -1   -1    0    0    0  501 -0.00000000000E+00  0.00000000000E+00  0.30643615995E+03  0.30643615995E+03  0.00000000000E+00 0.  1.
          1   -1    0    0  501    0  0.00000000000E+00 -0.00000000000E+00 -0.43572937979E+02  0.43572937979E+02  0.00000000000E+00 0. -1.
         23    2    1    2    0    0 -0.68247556791E+01  0.36120091070E+02  0.97645119791E+02  0.15364022949E+03  0.11278081588E+03 0.  0.
          5    1    3    3  502    0 -0.20177692910E+02  0.70169925820E+02  0.89988756929E+02  0.11597855041E+03  0.47000000000E+01 0. -1.
         -5    1    3    3    0  502  0.13352937231E+02 -0.34049834750E+02  0.76563628627E+01  0.37661679085E+02  0.47000000000E+01 0.  1.
        -11    1    1    2    0    0 -0.11311624357E+02 -0.61230785085E+02  0.59196477670E+02  0.85914986215E+02  0.00000000000E+00 0. -1.
         11    1    1    2    0    0  0.18136380036E+02  0.25110694015E+02  0.10602162451E+03  0.11045388223E+03  0.00000000000E+00 0.  1.
<mgrwt>
<rscale>  0 0.11536635E+03</rscale>
<asrwt>0</asrwt>
<pdfrwt beam="2">  1        1 0.67035291E-02 0.11862020E+03</pdfrwt>
<pdfrwt beam="1">  1       -1 0.47144023E-01 0.11862020E+03</pdfrwt>
<totfact> 0.48033756E+03</totfact>
</mgrwt>
</event>
<event>
 7    1  0.7800420E-006  0.1606943E+03  0.7546771E-02  0.1194284E+00
          4   -1    0    0  501    0  0.00000000000E+00  0.00000000000E+00  0.77884797321E+02  0.77884797321E+02  0.00000000000E+00 0. -1.
         -4   -1    0    0    0  501 -0.00000000000E+00 -0.00000000000E+00 -0.30635120448E+03  0.30635120448E+03  0.00000000000E+00 0.  1.
         23    2    1    2    0    0 -0.75205600543E+02  0.67396839237E+02 -0.16672042314E+03  0.23155639240E+03  0.12499778829E+03 0.  0.
          5    1    3    3  502    0  0.12444369289E+01  0.69041915117E+02 -0.12846638297E+03  0.14592476219E+03  0.47000000000E+01 0.  1.
         -5    1    3    3    0  502 -0.76450037471E+02 -0.16450758799E+01 -0.38254040174E+02  0.85631630217E+02  0.47000000000E+01 0.  1.
        -11    1    1    2    0    0  0.25074809851E+02 -0.67978503125E+02 -0.71287984907E+02  0.10164546113E+03  0.00000000000E+00 0.  1.
         11    1    1    2    0    0  0.50130790691E+02  0.58166388855E+00  0.95420008915E+01  0.51034148266E+02  0.00000000000E+00 0. -1.
<mgrwt>
<rscale>  0 0.15514955E+03</rscale>
<asrwt>0</asrwt>
<pdfrwt beam="1">  1        4 0.11982277E-01 0.16069432E+03</pdfrwt>
<pdfrwt beam="2">  1       -4 0.47130954E-01 0.16069432E+03</pdfrwt>
<totfact> 0.41795767E+02</totfact>
</mgrwt>
</event>
<event>
 7    1  0.7800420E-006  0.1594111E+03  0.7546771E-02  0.1197406E+00
         -1   -1    0    0    0  501 -0.00000000000E+00  0.00000000000E+00  0.99588881802E+02  0.99588881802E+02  0.00000000000E+00 0.  1.
          1   -1    0    0  501    0  0.00000000000E+00 -0.00000000000E+00 -0.29796636540E+03  0.29796636540E+03  0.00000000000E+00 0. -1.
         23    2    1    2    0    0  0.53123858848E+02  0.83453252512E+02 -0.20977682089E+03  0.26347336200E+03  0.12500123265E+03 0.  0.
          5    1    3    3  502    0 -0.25978267010E+02  0.40500591359E+02 -0.14397644489E+03  0.15187651215E+03  0.47000000000E+01 0. -1.
         -5    1    3    3    0  502  0.79102125859E+02  0.42952661153E+02 -0.65800376001E+02  0.11159684985E+03  0.47000000000E+01 0. -1.
        -11    1    1    2    0    0 -0.43525537076E+02 -0.94774459234E+02  0.31637544761E+02  0.10898442430E+03  0.00000000000E+00 0.  1.
         11    1    1    2    0    0 -0.95983217727E+01  0.11321206722E+02 -0.20238207464E+02  0.25097460904E+02  0.00000000000E+00 0. -1.
<mgrwt>
<rscale>  0 0.15252380E+03</rscale>
<asrwt>0</asrwt>
<pdfrwt beam="2">  1        1 0.45840979E-01 0.15941110E+03</pdfrwt>
<pdfrwt beam="1">  1       -1 0.15321367E-01 0.15941110E+03</pdfrwt>
<totfact> 0.26856374E+03</totfact>
</mgrwt>
</event>
<event>
 7    1  0.7800420E-006  0.1348966E+03  0.7546771E-02  0.1232946E+00
          3   -1    0    0  501    0  0.00000000000E+00  0.00000000000E+00  0.88445611618E+03  0.88445611618E+03  0.00000000000E+00 0. -1.
         -3   -1    0    0    0  501 -0.00000000000E+00 -0.00000000000E+00 -0.16203549167E+02  0.16203549167E+02  0.00000000000E+00 0.  1.
         23    2    1    2    0    0 -0.43988236776E+02 -0.25292702641E+02  0.52298652139E+03  0.54010369636E+03  0.12498966152E+03 0.  0.
          5    1    3    3  502    0  0.12109190631E+02 -0.51544478541E+02  0.38662067761E+03  0.39025774062E+03  0.47000000000E+01 0. -1.
         -5    1    3    3    0  502 -0.56097427407E+02  0.26251775901E+02  0.13636584379E+03  0.14984595574E+03  0.47000000000E+01 0. -1.
        -11    1    1    2    0    0 -0.19635884842E+02  0.13816682439E+02  0.28526909828E+02  0.37286100245E+02  0.00000000000E+00 0.  1.
         11    1    1    2    0    0  0.63624121619E+02  0.11476020202E+02  0.31673913579E+03  0.32326986874E+03  0.00000000000E+00 0. -1.
<mgrwt>
<rscale>  0 0.12636837E+03</rscale>
<asrwt>0</asrwt>
<pdfrwt beam="1">  1        3 0.13607013E+00 0.13489663E+03</pdfrwt>
<pdfrwt beam="2">  1       -3 0.24928544E-02 0.13489663E+03</pdfrwt>
<totfact> 0.68896170E+02</totfact>
</mgrwt>
</event>
<event>
 7    1  0.7800420E-006  0.1310907E+03  0.7546771E-02  0.1239238E+00
          2   -1    0    0  501    0  0.00000000000E+00  0.00000000000E+00  0.25901434749E+03  0.25901434749E+03  0.00000000000E+00 0. -1.
         -2   -1    0    0    0  501 -0.00000000000E+00 -0.00000000000E+00 -0.57917978059E+02  0.57917978059E+02  0.00000000000E+00 0.  1.
         23    2    1    2    0    0 -0.67982486641E+00 -0.39494059753E+02  0.16570992318E+03  0.21129257516E+03  0.12499812302E+03 0.  0.
          5    1    3    3  502    0  0.12722903095E+02 -0.54876923524E+02  0.17817414340E+03  0.18692636084E+03  0.47000000000E+01 0.  1.
         -5    1    3    3    0  502 -0.13402727961E+02  0.15382863771E+02 -0.12464220221E+02  0.24366214320E+02  0.47000000000E+01 0.  1.
        -11    1    1    2    0    0  0.10363664080E+02  0.34611399675E+02  0.64854591992E+02  0.74239292987E+02  0.00000000000E+00 0. -1.
         11    1    1    2    0    0 -0.96838392133E+01  0.48826600779E+01 -0.29468145746E+02  0.31400457402E+02  0.00000000000E+00 0.  1.
<mgrwt>
<rscale>  0 0.12236994E+03</rscale>
<asrwt>0</asrwt>
<pdfrwt beam="1">  1        2 0.39848361E-01 0.13109071E+03</pdfrwt>
<pdfrwt beam="2">  1       -2 0.89104583E-02 0.13109071E+03</pdfrwt>
<totfact> 0.96505476E+03</totfact>
</mgrwt>
</event>
<event>
 7    1  0.7800420E-006  0.1320737E+03  0.7546771E-02  0.1237863E+00
          2   -1    0    0  501    0  0.00000000000E+00  0.00000000000E+00  0.48514221148E+03  0.48514221148E+03  0.00000000000E+00 0. -1.
         -2   -1    0    0    0  501 -0.00000000000E+00 -0.00000000000E+00 -0.27818185451E+02  0.27818185451E+02  0.00000000000E+00 0.  1.
         23    2    1    2    0    0  0.19636098736E+02 -0.37844208019E+02  0.26996147021E+03  0.30053728473E+03  0.12500281461E+03 0.  0.
          5    1    3    3  502    0 -0.38405058160E+00 -0.52697645411E+01  0.26085776308E+03  0.26095359832E+03  0.47000000000E+01 0. -1.
         -5    1    3    3    0  502  0.20020149318E+02 -0.32574443478E+02  0.91037071257E+01  0.39583686413E+02  0.47000000000E+01 0. -1.
        -11    1    1    2    0    0  0.22921621566E+02  0.76394988132E+01  0.13961118899E+03  0.14168643819E+03  0.00000000000E+00 0. -1.
         11    1    1    2    0    0 -0.42557720303E+02  0.30204709206E+02  0.47751366833E+02  0.70736674010E+02  0.00000000000E+00 0.  1.
<mgrwt>
<rscale>  0 0.12322945E+03</rscale>
<asrwt>0</asrwt>
<pdfrwt beam="1">  1        2 0.74637257E-01 0.13207371E+03</pdfrwt>
<pdfrwt beam="2">  1       -2 0.42797212E-02 0.13207371E+03</pdfrwt>
<totfact> 0.15068511E+04</totfact>
</mgrwt>
</event>
<event>
 6    1  0.7800420E-006  0.1344196E+03  0.7546771E-02  0.1237417E+00
         -2   -1    0    0    0  501 -0.00000000000E+00  0.00000000000E+00  0.17669064703E+03  0.17669064703E+03  0.00000000000E+00 0.  1.
          2   -1    0    0  501    0  0.00000000000E+00 -0.00000000000E+00 -0.17164147853E+03  0.17164147853E+03  0.00000000000E+00 0. -1.
          5    1    1    2  502    0  0.31971534562E+02 -0.52942808690E+02 -0.93801897825E+01  0.62731156331E+02  0.47000000000E+01 0. -1.
         -5    1    1    2    0  502 -0.12589431543E+02  0.30081477751E+02 -0.11779318210E+03  0.12231399282E+03  0.47000000000E+01 0.  1.
        -11    1    1    2    0    0  0.22080594335E+01 -0.27645698632E+02  0.10339073916E+02  0.29598253813E+02  0.00000000000E+00 0. -1.
         11    1    1    2    0    0 -0.21590162452E+02  0.50507029571E+02  0.12188346646E+03  0.13368872259E+03  0.00000000000E+00 0.  1.
<mgrwt>
<rscale>  0 0.12350980E+03</rscale>
<asrwt>0</asrwt>
<pdfrwt beam="2">  1        2 0.26406381E-01 0.13441964E+03</pdfrwt>
<pdfrwt beam="1">  1       -2 0.27183176E-01 0.13441964E+03</pdfrwt>
<totfact> 0.23976505E+03</totfact>
</mgrwt>
</event>
<event>
 7    1  0.7800420E-006  0.1271831E+03  0.7546771E-02  0.1246193E+00
         -2   -1    0    0    0  501 -0.00000000000E+00  0.00000000000E+00  0.49553724292E+02  0.49553724292E+02  0.00000000000E+00 0.  1.
          2   -1    0    0  501    0  0.00000000000E+00 -0.00000000000E+00 -0.27569593100E+03  0.27569593100E+03  0.00000000000E+00 0. -1.
         23    2    1    2    0    0  0.23115746411E+02 -0.39110237596E+01 -0.17868565132E+03  0.21932649680E+03  0.12500366543E+03 0.  0.
          5    1    3    3  502    0 -0.52586075568E+01  0.22301883785E+02 -0.17888909617E+03  0.18041182251E+03  0.47000000000E+01 0. -1.
         -5    1    3    3    0  502  0.28374353968E+02 -0.26212907544E+02  0.20344485073E+00  0.38914674287E+02  0.47000000000E+01 0. -1.
        -11    1    1    2    0    0  0.12059422530E+02  0.41178801311E+02 -0.16010641720E+02  0.45798078535E+02  0.00000000000E+00 0.  1.
         11    1    1    2    0    0 -0.35175168941E+02 -0.37267777552E+02 -0.31445913671E+02  0.60125079961E+02  0.00000000000E+00 0. -1.
<mgrwt>
<rscale>  0 0.11814263E+03</rscale>
<asrwt>0</asrwt>
<pdfrwt beam="2">  1        2 0.42414757E-01 0.12718314E+03</pdfrwt>
<pdfrwt beam="1">  1       -2 0.76236501E-02 0.12718314E+03</pdfrwt>
<totfact> 0.11467934E+04</totfact>
</mgrwt>
</event>
<event>
 7    1  0.7800420E-006  0.1262313E+03  0.7546771E-02  0.1248552E+00
         -1   -1    0    0    0  501 -0.00000000000E+00  0.00000000000E+00  0.22260040057E+02  0.22260040057E+02  0.00000000000E+00 0.  1.
          1   -1    0    0  501    0  0.00000000000E+00 -0.00000000000E+00 -0.61786315316E+03  0.61786315316E+03  0.00000000000E+00 0. -1.
         23    2    1    2    0    0  0.10681430462E+02 -0.13613993040E+02 -0.45263095152E+03  0.46990331440E+03  0.12503964512E+03 0.  0.
          5    1    3    3  502    0  0.16945902582E+02  0.43154922625E+02 -0.34344674756E+03  0.34659381035E+03  0.47000000000E+01 0.  1.
         -5    1    3    3    0  502 -0.62644721198E+01 -0.56768915665E+02 -0.10918420395E+03  0.12330950405E+03  0.47000000000E+01 0.  1.
        -11    1    1    2    0    0  0.17154772156E+02  0.38254725576E+02 -0.30729208353E+02  0.51980712602E+02  0.00000000000E+00 0.  1.
         11    1    1    2    0    0 -0.27836202618E+02 -0.24640732536E+02 -0.11224295324E+03  0.11823916621E+03  0.00000000000E+00 0. -1.
<mgrwt>
<rscale>  0 0.11675297E+03</rscale>
<asrwt>0</asrwt>
<pdfrwt beam="2">  1        1 0.95055853E-01 0.12623132E+03</pdfrwt>
<pdfrwt beam="1">  1       -1 0.34246222E-02 0.12623132E+03</pdfrwt>
<totfact> 0.99485173E+03</totfact>
</mgrwt>
</event>
<event>
 7    1  0.7800420E-006  0.1695789E+03  0.7546771E-02  0.1184528E+00
         -1   -1    0    0    0  501 -0.00000000000E+00  0.00000000000E+00  0.17583773527E+03  0.17583773527E+03  0.00000000000E+00 0.  1.
          1   -1    0    0  501    0  0.00000000000E+00 -0.00000000000E+00 -0.14343098812E+03  0.14343098812E+03  0.00000000000E+00 0. -1.
         23    2    1    2    0    0 -0.11046419546E+03 -0.30482541903E+02  0.75061299012E+01  0.16974492510E+03  0.12500189508E+03 0.  0.
          5    1    3    3  502    0 -0.76264390302E+02  0.43448218746E+02  0.11709527052E+01  0.87906007022E+02  0.47000000000E+01 0. -1.
         -5    1    3    3    0  502 -0.34199805154E+02 -0.73930760648E+02  0.63351771960E+01  0.81838918081E+02  0.47000000000E+01 0. -1.
        -11    1    1    2    0    0  0.46262925004E+02 -0.30136341543E+01 -0.32917969613E+02  0.56858886238E+02  0.00000000000E+00 0. -1.
         11    1    1    2    0    0  0.64201270452E+02  0.33496176057E+02  0.57818586867E+02  0.92664912050E+02  0.00000000000E+00 0.  1.
<mgrwt>
<rscale>  0 0.16374935E+03</rscale>
<asrwt>0</asrwt>
<pdfrwt beam="2">  1        1 0.22066306E-01 0.16957888E+03</pdfrwt>
<pdfrwt beam="1">  1       -1 0.27051959E-01 0.16957888E+03</pdfrwt>
<totfact> 0.26798206E+03</totfact>
</mgrwt>
</event>
<event>
 7    1  0.7800420E-006  0.1273728E+03  0.7546771E-02  0.1246407E+00
          1   -1    0    0  501    0  0.00000000000E+00  0.00000000000E+00  0.45229643023E+03  0.45229643023E+03  0.00000000000E+00 0. -1.
         -1   -1    0    0    0  501 -0.00000000000E+00 -0.00000000000E+00 -0.27763367088E+02  0.27763367088E+02  0.00000000000E+00 0.  1.
         23    2    1    2    0    0  0.23842300532E+02  0.54681655261E+01  0.28149224892E+03  0.30896880327E+03  0.12500191625E+03 0.  0.
          5    1    3    3  502    0  0.81513998216E+01 -0.59476038991E+02  0.12510538898E+03  0.13884269114E+03  0.47000000000E+01 0. -1.
         -5    1    3    3    0  502  0.15690900711E+02  0.64944204517E+02  0.15638685994E+03  0.17012611213E+03  0.47000000000E+01 0. -1.
        -11    1    1    2    0    0  0.17043455086E+02 -0.36146202822E+02  0.83834532284E+02  0.92872257122E+02  0.00000000000E+00 0.  1.
         11    1    1    2    0    0 -0.40885755619E+02  0.30678037296E+02  0.59206281943E+02  0.78218736927E+02  0.00000000000E+00 0. -1.
<mgrwt>
<rscale>  0 0.11801536E+03</rscale>
<asrwt>0</asrwt>
<pdfrwt beam="1">  1        1 0.69584061E-01 0.12737282E+03</pdfrwt>
<pdfrwt beam="2">  1       -1 0.42712876E-02 0.12737282E+03</pdfrwt>
<totfact> 0.10869969E+04</totfact>
</mgrwt>
</event>
<event>
 7    1  0.7800420E-006  0.2106649E+03  0.7546771E-02  0.1144784E+00
          2   -1    0    0  501    0  0.00000000000E+00  0.00000000000E+00  0.69366954776E+03  0.69366954776E+03  0.00000000000E+00 0. -1.
         -2   -1    0    0    0  501 -0.00000000000E+00 -0.00000000000E+00 -0.58667397019E+02  0.58667397019E+02  0.00000000000E+00 0.  1.
         23    2    1    2    0    0  0.13580646015E+03  0.10154722415E+03  0.34444201571E+03  0.40375735563E+03  0.12499786673E+03 0.  0.
          5    1    3    3  502    0  0.46204047668E+02  0.10486884689E+03  0.24020314568E+03  0.26618025897E+03  0.47000000000E+01 0.  1.
         -5    1    3    3    0  502  0.89602412487E+02 -0.33216227429E+01  0.10423887004E+03  0.13757709667E+03  0.47000000000E+01 0.  1.
        -11    1    1    2    0    0 -0.57500513168E+02  0.76182905229E+01  0.80121268050E+02  0.98912916037E+02  0.00000000000E+00 0.  1.
         11    1    1    2    0    0 -0.78305946987E+02 -0.10916551467E+03  0.21043886698E+03  0.24966667311E+03  0.00000000000E+00 0. -1.
<mgrwt>
<rscale>  0 0.20598724E+03</rscale>
<asrwt>0</asrwt>
<pdfrwt beam="1">  1        2 0.10671839E+00 0.21066490E+03</pdfrwt>
<pdfrwt beam="2">  1       -2 0.90257538E-02 0.21066490E+03</pdfrwt>
<totfact> 0.32828684E+03</totfact>
</mgrwt>
</event>
<event>
 7    1  0.7800420E-006  0.1863944E+03  0.7546771E-02  0.1166831E+00
         -2   -1    0    0    0  501 -0.00000000000E+00  0.00000000000E+00  0.27007127598E+03  0.27007127598E+03  0.00000000000E+00 0.  1.
          2   -1    0    0  501    0  0.00000000000E+00 -0.00000000000E+00 -0.11643306125E+03  0.11643306125E+03  0.00000000000E+00 0. -1.
         23    2    1    2    0    0  0.35352274504E+02 -0.13367785593E+03  0.10410138403E+03  0.21349462693E+03  0.12499322019E+03 0.  0.
          5    1    3    3  502    0  0.71901206691E+02 -0.11548097808E+03  0.10574302793E+03  0.17236391089E+03  0.47000000000E+01 0. -1.
         -5    1    3    3    0  502 -0.36548932187E+02 -0.18196877847E+02 -0.16416439000E+01  0.41130716041E+02  0.47000000000E+01 0. -1.
        -11    1    1    2    0    0 -0.39990159670E+02  0.39916623236E+02 -0.15758097152E+02  0.58658906458E+02  0.00000000000E+00 0. -1.
         11    1    1    2    0    0  0.46378851656E+01  0.93761232695E+02  0.65294927863E+02  0.11435080384E+03  0.00000000000E+00 0.  1.
<mgrwt>
<rscale>  0 0.18100836E+03</rscale>
<asrwt>0</asrwt>
<pdfrwt beam="2">  1        2 0.17912779E-01 0.18639436E+03</pdfrwt>
<pdfrwt beam="1">  1       -2 0.41549427E-01 0.18639436E+03</pdfrwt>
<totfact> 0.17223350E+03</totfact>
</mgrwt>
</event>
<event>
 7    1  0.7800420E-006  0.1531221E+03  0.7546771E-02  0.1205825E+00
          1   -1    0    0  501    0  0.00000000000E+00  0.00000000000E+00  0.22067994852E+03  0.22067994852E+03  0.00000000000E+00 0. -1.
         -1   -1    0    0    0  501 -0.00000000000E+00 -0.00000000000E+00 -0.88050913675E+02  0.88050913675E+02  0.00000000000E+00 0.  1.
         23    2    1    2    0    0 -0.13605221253E+02  0.87390391209E+02  0.69855663621E+02  0.16830383535E+03  0.12499673889E+03 0.  0.
          5    1    3    3  502    0  0.23971105558E+02 -0.37991757157E+01 -0.22260654926E+02  0.33266716031E+02  0.47000000000E+01 0. -1.
         -5    1    3    3    0  502 -0.37576326811E+02  0.91189566925E+02  0.92116318547E+02  0.13503711932E+03  0.47000000000E+01 0. -1.
        -11    1    1    2    0    0  0.61686879968E+01 -0.56115116739E+02 -0.13161979865E+02  0.57967204109E+02  0.00000000000E+00 0.  1.
         11    1    1    2    0    0  0.74365332558E+01 -0.31275274470E+02  0.75935351091E+02  0.82459822734E+02  0.00000000000E+00 0. -1.
<mgrwt>
<rscale>  0 0.14572670E+03</rscale>
<asrwt>0</asrwt>
<pdfrwt beam="1">  1        1 0.33950761E-01 0.15312207E+03</pdfrwt>
<pdfrwt beam="2">  1       -1 0.13546295E-01 0.15312207E+03</pdfrwt>
<totfact> 0.47210909E+03</totfact>
</mgrwt>
</event>
<event>
 7    1  0.7800420E-006  0.1928677E+03  0.7546771E-02  0.1160549E+00
         -2   -1    0    0    0  501 -0.00000000000E+00  0.00000000000E+00  0.36010744361E+02  0.36010744361E+02  0.00000000000E+00 0.  1.
          2   -1    0    0  501    0  0.00000000000E+00 -0.00000000000E+00 -0.10349417132E+04  0.10349417132E+04  0.00000000000E+00 0. -1.
         23    2    1    2    0    0  0.11693256238E+03  0.88876402044E+02 -0.69454156727E+03  0.72082310282E+03  0.12500287158E+03 0.  0.
          5    1    3    3  502    0  0.70187933449E+02  0.75918130000E+02 -0.63728245942E+03  0.64563219526E+03  0.47000000000E+01 0.  1.
         -5    1    3    3    0  502  0.46744628930E+02  0.12958272044E+02 -0.57259107849E+02  0.75190907561E+02  0.47000000000E+01 0.  1.
        -11    1    1    2    0    0 -0.44798924633E+02  0.55580704532E+01 -0.40210325518E+02  0.60454165065E+02  0.00000000000E+00 0.  1.
         11    1    1    2    0    0 -0.72133637746E+02 -0.94434472497E+02 -0.26417907601E+03  0.28967518964E+03  0.00000000000E+00 0. -1.
<mgrwt>
<rscale>  0 0.18770329E+03</rscale>
<asrwt>0</asrwt>
<pdfrwt beam="2">  1        2 0.15922179E+00 0.19286772E+03</pdfrwt>
<pdfrwt beam="1">  1       -2 0.55401148E-02 0.19286772E+03</pdfrwt>
<totfact> 0.41414052E+03</totfact>
</mgrwt>
</event>
<event>
 7    1  0.7800420E-006  0.1361328E+03  0.7546771E-02  0.1226047E+00
          1   -1    0    0  501    0  0.00000000000E+00  0.00000000000E+00  0.26924035174E+03  0.26924035174E+03  0.00000000000E+00 0. -1.
         -1   -1    0    0    0  501 -0.00000000000E+00 -0.00000000000E+00 -0.59488865347E+02  0.59488865347E+02  0.00000000000E+00 0.  1.
         23    2    1    2    0    0 -0.40286968121E+02  0.60993227528E+02  0.12231763022E+03  0.18301295276E+03  0.11484304336E+03 0.  0.
          5    1    3    3  502    0 -0.65612771924E+02 -0.43105100692E+01  0.58092901513E+02  0.87866327696E+02  0.47000000000E+01 0. -1.
         -5    1    3    3    0  502  0.25325803804E+02  0.65303737597E+02  0.64224728711E+02  0.95146625061E+02  0.47000000000E+01 0.  1.
        -11    1    1    2    0    0  0.37112809847E+02  0.15225743374E+02  0.26429679290E+02  0.48038649684E+02  0.00000000000E+00 0.  1.
         11    1    1    2    0    0  0.31741582733E+01 -0.76218970902E+02  0.61004176876E+02  0.97677614643E+02  0.00000000000E+00 0. -1.
<mgrwt>
<rscale>  0 0.13095398E+03</rscale>
<asrwt>0</asrwt>
<pdfrwt beam="1">  1        1 0.41421592E-01 0.13613280E+03</pdfrwt>
<pdfrwt beam="2">  1       -1 0.91521333E-02 0.13613280E+03</pdfrwt>
<totfact> 0.66977906E+03</totfact>
</mgrwt>
</event>
<event>
 7    1  0.7800420E-006  0.1344466E+03  0.7546771E-02  0.1231268E+00
         -3   -1    0    0    0  501 -0.00000000000E+00  0.00000000000E+00  0.46912860235E+02  0.46912860235E+02  0.00000000000E+00 0.  1.
          3   -1    0    0  501    0  0.00000000000E+00 -0.00000000000E+00 -0.32050744224E+03  0.32050744224E+03  0.00000000000E+00 0. -1.
         23    2    1    2    0    0 -0.43276820238E+02 -0.24053517000E+02 -0.17536685676E+03  0.22097380462E+03  0.12499773208E+03 0.  0.
          5    1    3    3  502    0 -0.17455245807E+02 -0.27944348587E+02 -0.18846719714E+03  0.19138324540E+03  0.47000000000E+01 0. -1.
         -5    1    3    3    0  502 -0.25821574431E+02  0.38908315879E+01  0.13100340376E+02  0.29590559212E+02  0.47000000000E+01 0. -1.
        -11    1    1    2    0    0  0.47717009178E+02 -0.22762981885E+02 -0.80252367057E+02  0.96101554241E+02  0.00000000000E+00 0. -1.
         11    1    1    2    0    0 -0.44401889404E+01  0.46816498885E+02 -0.17975358180E+02  0.50344943612E+02  0.00000000000E+00 0.  1.
<mgrwt>
<rscale>  0 0.12746411E+03</rscale>
<asrwt>0</asrwt>
<pdfrwt beam="2">  1        3 0.49308837E-01 0.13444660E+03</pdfrwt>
<pdfrwt beam="1">  1       -3 0.72173632E-02 0.13444660E+03</pdfrwt>
<totfact> 0.11931528E+03</totfact>
</mgrwt>
</event>
<event>
 7    1  0.7800420E-006  0.1327780E+03  0.7546771E-02  0.1235318E+00
          2   -1    0    0  501    0  0.00000000000E+00  0.00000000000E+00  0.22987342527E+03  0.22987342527E+03  0.00000000000E+00 0. -1.
         -2   -1    0    0    0  501 -0.00000000000E+00 -0.00000000000E+00 -0.66581402064E+02  0.66581402064E+02  0.00000000000E+00 0.  1.
         23    2    1    2    0    0 -0.33109307200E+02  0.30047781899E+02  0.13398203025E+03  0.18862973123E+03  0.12502358039E+03 0.  0.
          5    1    3    3  502    0  0.58585035884E+01  0.70545600030E+02  0.47479410038E+02  0.85366200135E+02  0.47000000000E+01 0.  1.
         -5    1    3    3    0  502 -0.38967810788E+02 -0.40497818131E+02  0.86502620210E+02  0.10326353110E+03  0.47000000000E+01 0.  1.
        -11    1    1    2    0    0  0.20480371432E+02 -0.49554656641E+02  0.52466619953E+02  0.75019036372E+02  0.00000000000E+00 0. -1.
         11    1    1    2    0    0  0.12628935768E+02  0.19506874743E+02 -0.23156627000E+02  0.32806059728E+02  0.00000000000E+00 0.  1.
<mgrwt>
<rscale>  0 0.12484101E+03</rscale>
<asrwt>0</asrwt>
<pdfrwt beam="1">  1        2 0.35365142E-01 0.13277798E+03</pdfrwt>
<pdfrwt beam="2">  1       -2 0.10243293E-01 0.13277798E+03</pdfrwt>
<totfact> 0.88211649E+03</totfact>
</mgrwt>
</event>
<event>
 7    1  0.7800420E-006  0.1718815E+03  0.7546771E-02  0.1181920E+00
          4   -1    0    0  501    0  0.00000000000E+00  0.00000000000E+00  0.12864646247E+03  0.12864646247E+03  0.00000000000E+00 0. -1.
         -4   -1    0    0    0  501 -0.00000000000E+00 -0.00000000000E+00 -0.20331559246E+03  0.20331559246E+03  0.00000000000E+00 0.  1.
         23    2    1    2    0    0  0.31516191501E+02  0.11369533706E+03 -0.55701371471E+02  0.18068177809E+03  0.12499344845E+03 0.  0.
          5    1    3    3  502    0  0.24293773609E+02 -0.20561927189E+01 -0.59578348582E+02  0.64545216588E+02  0.47000000000E+01 0.  1.
         -5    1    3    3    0  502  0.72224178918E+01  0.11575152978E+03  0.38769771106E+01  0.11613656150E+03  0.47000000000E+01 0.  1.
        -11    1    1    2    0    0 -0.54242861487E+02 -0.56791016337E+02  0.16827636201E+02  0.80316106099E+02  0.00000000000E+00 0. -1.
         11    1    1    2    0    0  0.22726669986E+02 -0.56904320720E+02 -0.35795394720E+02  0.70964170737E+02  0.00000000000E+00 0.  1.
<mgrwt>
<rscale>  0 0.16615266E+03</rscale>
<asrwt>0</asrwt>
<pdfrwt beam="1">  1        4 0.19791764E-01 0.17188154E+03</pdfrwt>
<pdfrwt beam="2">  1       -4 0.31279322E-01 0.17188154E+03</pdfrwt>
<totfact> 0.39150443E+02</totfact>
</mgrwt>
</event>
<event>
 7    1  0.7800420E-006  0.1517708E+03  0.7546771E-02  0.1205902E+00
         -1   -1    0    0    0  501 -0.00000000000E+00  0.00000000000E+00  0.92119066249E+02  0.92119066249E+02  0.00000000000E+00 0.  1.
          1   -1    0    0  501    0  0.00000000000E+00 -0.00000000000E+00 -0.33635372280E+03  0.33635372280E+03  0.00000000000E+00 0. -1.
         23    2    1    2    0    0 -0.46362502040E+02 -0.72511500733E+02 -0.25760971679E+03  0.29899355112E+03  0.12500791212E+03 0.  0.
          5    1    3    3  502    0  0.74734977153E+01 -0.92950239445E+02 -0.14570549736E+03  0.17305427513E+03  0.47000000000E+01 0.  1.
         -5    1    3    3    0  502 -0.53835999756E+02  0.20438738712E+02 -0.11190421944E+03  0.12593927599E+03  0.47000000000E+01 0.  1.
        -11    1    1    2    0    0 -0.23483260067E+02  0.19312497669E+02  0.26960143735E+02  0.40636011367E+02  0.00000000000E+00 0.  1.
         11    1    1    2    0    0  0.69845762108E+02  0.53199003064E+02 -0.13585083489E+02  0.88843226556E+02  0.00000000000E+00 0. -1.
<mgrwt>
<rscale>  0 0.14566621E+03</rscale>
<asrwt>0</asrwt>
<pdfrwt beam="2">  1        1 0.51746727E-01 0.15177081E+03</pdfrwt>
<pdfrwt beam="1">  1       -1 0.14172164E-01 0.15177081E+03</pdfrwt>
<totfact> 0.26050508E+03</totfact>
</mgrwt>
</event>
<event>
 7    1  0.7800420E-006  0.1383679E+03  0.7546771E-02  0.1226544E+00
          2   -1    0    0  501    0  0.00000000000E+00  0.00000000000E+00  0.49489758565E+03  0.49489758565E+03  0.00000000000E+00 0. -1.
         -2   -1    0    0    0  501 -0.00000000000E+00 -0.00000000000E+00 -0.31832820033E+02  0.31832820033E+02  0.00000000000E+00 0.  1.
         23    2    1    2    0    0  0.42001747934E+02  0.42016093776E+02  0.21862254371E+03  0.25873052013E+03  0.12496466085E+03 0.  0.
          5    1    3    3  502    0  0.18745879886E+02  0.61095331808E+02  0.21910288917E+03  0.22828099707E+03  0.47000000000E+01 0.  1.
         -5    1    3    3    0  502  0.23255868047E+02 -0.19079238032E+02 -0.48034546261E+00  0.30449523055E+02  0.47000000000E+01 0.  1.
        -11    1    1    2    0    0 -0.20261248150E+02 -0.44937757410E+02  0.24076305999E+03  0.24575754571E+03  0.00000000000E+00 0. -1.
         11    1    1    2    0    0 -0.21740499784E+02  0.29216636341E+01  0.36791619157E+01  0.22242339842E+02  0.00000000000E+00 0.  1.
<mgrwt>
<rscale>  0 0.13061665E+03</rscale>
<asrwt>0</asrwt>
<pdfrwt beam="1">  1        2 0.76138084E-01 0.13836786E+03</pdfrwt>
<pdfrwt beam="2">  1       -2 0.48973573E-02 0.13836786E+03</pdfrwt>
<totfact> 0.12095189E+04</totfact>
</mgrwt>
</event>
<event>
 7    1  0.7800420E-006  0.1421052E+03  0.7546771E-02  0.1221263E+00
          1   -1    0    0  501    0  0.00000000000E+00  0.00000000000E+00  0.19507546387E+03  0.19507546387E+03  0.00000000000E+00 0. -1.
         -1   -1    0    0    0  501 -0.00000000000E+00 -0.00000000000E+00 -0.98896165757E+02  0.98896165757E+02  0.00000000000E+00 0.  1.
         23    2    1    2    0    0 -0.67596468422E+02 -0.13888318699E+01  0.11025346801E+03  0.17986026073E+03  0.12499069879E+03 0.  0.
          5    1    3    3  502    0 -0.74972645028E+02 -0.51599990862E+02  0.71286837810E+02  0.11570375882E+03  0.47000000000E+01 0.  1.
         -5    1    3    3    0  502  0.73761766064E+01  0.50211158992E+02  0.38966630205E+02  0.64156501916E+02  0.47000000000E+01 0.  1.
        -11    1    1    2    0    0  0.36387759735E+02 -0.13572410182E+02 -0.50604549440E+02  0.63789496006E+02  0.00000000000E+00 0.  1.
         11    1    1    2    0    0  0.31208708687E+02  0.14961242052E+02  0.36530379537E+02  0.50321872886E+02  0.00000000000E+00 0. -1.
<mgrwt>
<rscale>  0 0.13426337E+03</rscale>
<asrwt>0</asrwt>
<pdfrwt beam="1">  1        1 0.30011610E-01 0.14210519E+03</pdfrwt>
<pdfrwt beam="2">  1       -1 0.15214795E-01 0.14210519E+03</pdfrwt>
<totfact> 0.45697943E+03</totfact>
</mgrwt>
</event>
<event>
 7    1  0.7800420E-006  0.1300425E+03  0.7546771E-02  0.1241454E+00
         -3   -1    0    0    0  501 -0.00000000000E+00  0.00000000000E+00  0.70576139715E+02  0.70576139715E+02  0.00000000000E+00 0.  1.
          3   -1    0    0  501    0  0.00000000000E+00 -0.00000000000E+00 -0.18356774942E+03  0.18356774942E+03  0.00000000000E+00 0. -1.
         23    2    1    2    0    0 -0.25902673280E+02 -0.24823523725E+02 -0.68733984247E+02  0.14708977243E+03  0.12499553892E+03 0.  0.
          5    1    3    3  502    0 -0.39385603286E+01 -0.69720914063E+02 -0.66950784497E+02  0.96855643408E+02  0.47000000000E+01 0. -1.
         -5    1    3    3    0  502 -0.21964112952E+02  0.44897390338E+02 -0.17831997501E+01  0.50234129018E+02  0.47000000000E+01 0. -1.
        -11    1    1    2    0    0 -0.28949264140E+02 -0.34960310498E+00  0.47138869990E+01  0.29332624281E+02  0.00000000000E+00 0.  1.
         11    1    1    2    0    0  0.54851937420E+02  0.25173126830E+02 -0.48971512462E+02  0.77721492433E+02  0.00000000000E+00 0. -1.
<mgrwt>
<rscale>  0 0.12100126E+03</rscale>
<asrwt>0</asrwt>
<pdfrwt beam="2">  1        3 0.28241192E-01 0.13004246E+03</pdfrwt>
<pdfrwt beam="1">  1       -3 0.10857868E-01 0.13004246E+03</pdfrwt>
<totfact> 0.17594841E+03</totfact>
</mgrwt>
</event>
<event>
 7    1  0.7800420E-006  0.1317665E+03  0.7546771E-02  0.1238381E+00
          2   -1    0    0  501    0  0.00000000000E+00  0.00000000000E+00  0.98040489999E+03  0.98040489999E+03  0.00000000000E+00 0. -1.
         -2   -1    0    0    0  501 -0.00000000000E+00 -0.00000000000E+00 -0.17192024317E+02  0.17192024317E+02  0.00000000000E+00 0.  1.
         23    2    1    2    0    0 -0.40375479552E+02 -0.10177358581E+02  0.75873036647E+03  0.77008712984E+03  0.12501464140E+03 0.  0.
          5    1    3    3  502    0 -0.81895801761E+02 -0.44877416417E+01  0.36641820764E+03  0.37551491989E+03  0.47000000000E+01 0. -1.
         -5    1    3    3    0  502  0.41520322209E+02 -0.56896169393E+01  0.39231215883E+03  0.39457220995E+03  0.47000000000E+01 0. -1.
        -11    1    1    2    0    0 -0.27390842671E+02  0.56351972053E+01  0.34170365323E+02  0.44154587259E+02  0.00000000000E+00 0.  1.
         11    1    1    2    0    0  0.67766322222E+02  0.45421613757E+01  0.17031214388E+03  0.18335520721E+03  0.00000000000E+00 0. -1.
<mgrwt>
<rscale>  0 0.12290475E+03</rscale>
<asrwt>0</asrwt>
<pdfrwt beam="1">  1        2 0.15083148E+00 0.13176653E+03</pdfrwt>
<pdfrwt beam="2">  1       -2 0.26449276E-02 0.13176653E+03</pdfrwt>
<totfact> 0.13215715E+04</totfact>
</mgrwt>
</event>
<event>
 7    1  0.7800420E-006  0.1506377E+03  0.7546771E-02  0.1209108E+00
         -1   -1    0    0    0  501 -0.00000000000E+00  0.00000000000E+00  0.47168504764E+02  0.47168504764E+02  0.00000000000E+00 0.  1.
          1   -1    0    0  501    0  0.00000000000E+00 -0.00000000000E+00 -0.75220806182E+03  0.75220806182E+03  0.00000000000E+00 0. -1.
         23    2    1    2    0    0 -0.43076898193E+02  0.72189437181E+02 -0.64533967625E+03  0.66268772842E+03  0.12499917462E+03 0.  0.
          5    1    3    3  502    0  0.17414192215E+02  0.80981121296E+02 -0.27279278259E+03  0.28513012526E+03  0.47000000000E+01 0.  1.
         -5    1    3    3    0  502 -0.60491090408E+02 -0.87916841143E+01 -0.37254689367E+03  0.37755760317E+03  0.47000000000E+01 0.  1.
        -11    1    1    2    0    0 -0.23648666975E+02 -0.44630604306E+02 -0.20218003425E+02  0.54405128002E+02  0.00000000000E+00 0. -1.
         11    1    1    2    0    0  0.66725565168E+02 -0.27558832875E+02 -0.39481877378E+02  0.82283710160E+02  0.00000000000E+00 0.  1.
<mgrwt>
<rscale>  0 0.14318366E+03</rscale>
<asrwt>0</asrwt>
<pdfrwt beam="2">  1        1 0.11572431E+00 0.15063774E+03</pdfrwt>
<pdfrwt beam="1">  1       -1 0.72566937E-02 0.15063774E+03</pdfrwt>
<totfact> 0.24964654E+03</totfact>
</mgrwt>
</event>
<event>
 7    1  0.7800420E-006  0.2457257E+03  0.7546771E-02  0.1119834E+00
         -2   -1    0    0    0  501 -0.00000000000E+00  0.00000000000E+00  0.10091910036E+03  0.10091910036E+03  0.00000000000E+00 0.  1.
          2   -1    0    0  501    0  0.00000000000E+00 -0.00000000000E+00 -0.66684923611E+03  0.66684923611E+03  0.00000000000E+00 0. -1.
         23    2    1    2    0    0  0.89755328845E+02 -0.19157272179E+03 -0.45782849227E+03  0.51960374298E+03  0.12499997840E+03 0.  0.
          5    1    3    3  502    0  0.57618424693E+02 -0.20269722422E+03 -0.38009776418E+03  0.43462909233E+03  0.47000000000E+01 0.  1.
         -5    1    3    3    0  502  0.32136904152E+02  0.11124502438E+02 -0.77730728095E+02  0.84974650650E+02  0.47000000000E+01 0.  1.
        -11    1    1    2    0    0  0.39625114320E+01  0.31339905627E+02 -0.38774516451E+02  0.50013541242E+02  0.00000000000E+00 0. -1.
         11    1    1    2    0    0 -0.93717840277E+02  0.16023281616E+03 -0.69327127033E+02  0.19815105224E+03  0.00000000000E+00 0.  1.
<mgrwt>
<rscale>  0 0.23993863E+03</rscale>
<asrwt>0</asrwt>
<pdfrwt beam="2">  1        2 0.10259219E+00 0.24572570E+03</pdfrwt>
<pdfrwt beam="1">  1       -2 0.15526015E-01 0.24572570E+03</pdfrwt>
<totfact> 0.14370653E+03</totfact>
</mgrwt>
</event>
<event>
 7    1  0.7800420E-006  0.1436738E+03  0.7546771E-02  0.1218938E+00
          1   -1    0    0  501    0  0.00000000000E+00  0.00000000000E+00  0.59100688145E+03  0.59100688145E+03  0.00000000000E+00 0. -1.
         -1   -1    0    0    0  501 -0.00000000000E+00 -0.00000000000E+00 -0.29172728513E+02  0.29172728513E+02  0.00000000000E+00 0.  1.
         23    2    1    2    0    0 -0.21852652078E+02 -0.67383020184E+02  0.36390194271E+03  0.39123750405E+03  0.12499660336E+03 0.  0.
          5    1    3    3  502    0 -0.35674421503E+02 -0.91026196097E+02  0.34236279313E+03  0.35607977314E+03  0.47000000000E+01 0.  1.
         -5    1    3    3    0  502  0.13821769424E+02  0.23643175913E+02  0.21539149588E+02  0.35157730903E+02  0.47000000000E+01 0.  1.
        -11    1    1    2    0    0 -0.34260304237E+01  0.24483164352E+02 -0.12442855832E+00  0.24722024667E+02  0.00000000000E+00 0.  1.
         11    1    1    2    0    0  0.25278682502E+02  0.42899855832E+02  0.19805663878E+03  0.20422008125E+03  0.00000000000E+00 0. -1.
<mgrwt>
<rscale>  0 0.13591213E+03</rscale>
<asrwt>0</asrwt>
<pdfrwt beam="1">  1        1 0.90924126E-01 0.14367380E+03</pdfrwt>
<pdfrwt beam="2">  1       -1 0.44881125E-02 0.14367380E+03</pdfrwt>
<totfact> 0.71664577E+03</totfact>
</mgrwt>
</event>
<event>
 7    1  0.7800420E-006  0.1587561E+03  0.7546771E-02  0.1190639E+00
         -3   -1    0    0    0  501 -0.00000000000E+00  0.00000000000E+00  0.58398714374E+02  0.58398714374E+02  0.00000000000E+00 0.  1.
          3   -1    0    0  501    0  0.00000000000E+00 -0.00000000000E+00 -0.48849818087E+03  0.48849818087E+03  0.00000000000E+00 0. -1.
         23    2    1    2    0    0  0.64626343513E+02 -0.69417383315E+02 -0.31131502663E+03  0.34862125350E+03  0.12499758082E+03 0.  0.
          5    1    3    3  502    0  0.67911267837E+02  0.13778365269E+02 -0.10294914849E+03  0.12418695915E+03  0.47000000000E+01 0. -1.
         -5    1    3    3    0  502 -0.32849243247E+01 -0.83195748584E+02 -0.20836587813E+03  0.22443429435E+03  0.47000000000E+01 0. -1.
        -11    1    1    2    0    0 -0.53734720339E+01  0.94253123509E+02 -0.67169285514E+02  0.11586301571E+03  0.00000000000E+00 0. -1.
         11    1    1    2    0    0 -0.59252871479E+02 -0.24835740194E+02 -0.51615154354E+02  0.82412626026E+02  0.00000000000E+00 0.  1.
<mgrwt>
<rscale>  0 0.15829170E+03</rscale>
<asrwt>0</asrwt>
<pdfrwt beam="2">  1        3 0.75153564E-01 0.15875606E+03</pdfrwt>
<pdfrwt beam="1">  1       -3 0.89844179E-02 0.15875606E+03</pdfrwt>
<totfact> 0.35791635E+02</totfact>
</mgrwt>
</event>
<event>
 7    1  0.7800420E-006  0.1379053E+03  0.7546771E-02  0.1227532E+00
          2   -1    0    0  501    0  0.00000000000E+00  0.00000000000E+00  0.53326768980E+03  0.53326768980E+03  0.00000000000E+00 0. -1.
         -2   -1    0    0    0  501 -0.00000000000E+00 -0.00000000000E+00 -0.39033758612E+02  0.39033758612E+02  0.00000000000E+00 0.  1.
         23    2    1    2    0    0  0.17022042606E+02  0.55702028603E+02  0.41624495907E+03  0.43849485207E+03  0.12500161365E+03 0.  0.
          5    1    3    3  502    0  0.18383300811E+02  0.57417816388E+02  0.71215289299E+02  0.93426221252E+02  0.47000000000E+01 0.  1.
         -5    1    3    3    0  502 -0.13612582050E+01 -0.17157877849E+01  0.34502966978E+03  0.34506863082E+03  0.47000000000E+01 0.  1.
        -11    1    1    2    0    0 -0.20119423844E+02 -0.12437690533E+02  0.86438313814E+02  0.89616234337E+02  0.00000000000E+00 0. -1.
         11    1    1    2    0    0  0.30973812380E+01 -0.43264338070E+02 -0.84493416959E+01  0.44190362006E+02  0.00000000000E+00 0.  1.
<mgrwt>
<rscale>  0 0.12994864E+03</rscale>
<asrwt>0</asrwt>
<pdfrwt beam="1">  1        2 0.82041178E-01 0.13790529E+03</pdfrwt>
<pdfrwt beam="2">  1       -2 0.60051940E-02 0.13790529E+03</pdfrwt>
<totfact> 0.81868421E+03</totfact>
</mgrwt>
</event>
<event>
 7    1  0.7800420E-006  0.1504053E+03  0.7546771E-02  0.1208846E+00
         -3   -1    0    0    0  501 -0.00000000000E+00  0.00000000000E+00  0.68822316747E+02  0.68822316747E+02  0.00000000000E+00 0.  1.
          3   -1    0    0  501    0  0.00000000000E+00 -0.00000000000E+00 -0.27995923319E+03  0.27995923319E+03  0.00000000000E+00 0. -1.
         23    2    1    2    0    0 -0.68979738672E+02  0.47249657913E+02 -0.14078871844E+03  0.20601754804E+03  0.12502412704E+03 0.  0.
          5    1    3    3  502    0 -0.83992225893E+02  0.26118038371E+02 -0.31420161885E+02  0.93520920182E+02  0.47000000000E+01 0.  1.
         -5    1    3    3    0  502  0.15012487221E+02  0.21131619542E+02 -0.10936855655E+03  0.11249662786E+03  0.47000000000E+01 0.  1.
        -11    1    1    2    0    0  0.78597137446E+02 -0.53493529807E+02 -0.28323804307E+02  0.99203354965E+02  0.00000000000E+00 0.  1.
         11    1    1    2    0    0 -0.96173987739E+01  0.62438718947E+01 -0.42024393701E+02  0.43560646934E+02  0.00000000000E+00 0. -1.
<mgrwt>
<rscale>  0 0.14338465E+03</rscale>
<asrwt>0</asrwt>
<pdfrwt beam="2">  1        3 0.43070650E-01 0.15040534E+03</pdfrwt>
<pdfrwt beam="1">  1       -3 0.10588049E-01 0.15040534E+03</pdfrwt>
<totfact> 0.84578945E+02</totfact>
</mgrwt>
</event>
<event>
 7    1  0.7800420E-006  0.1628787E+03  0.7546771E-02  0.1192784E+00
         -2   -1    0    0    0  501 -0.00000000000E+00  0.00000000000E+00  0.21569241527E+02  0.21569241527E+02  0.00000000000E+00 0.  1.
          2   -1    0    0  501    0  0.00000000000E+00 -0.00000000000E+00 -0.10956680682E+04  0.10956680682E+04  0.00000000000E+00 0. -1.
         23    2    1    2    0    0 -0.59822486031E+02  0.85587814468E+02 -0.68809540400E+03  0.70711013295E+03  0.12500180512E+03 0.  0.
          5    1    3    3  502    0 -0.87137145367E+01 -0.28861202385E+02 -0.69137888684E+02  0.75571393238E+02  0.47000000000E+01 0.  1.
         -5    1    3    3    0  502 -0.51108771494E+02  0.11444901685E+03 -0.61895751532E+03  0.63153873971E+03  0.47000000000E+01 0.  1.
        -11    1    1    2    0    0  0.53417181050E+02 -0.23515005950E+02 -0.28864646520E+03  0.29448791590E+03  0.00000000000E+00 0. -1.
         11    1    1    2    0    0  0.64053049810E+01 -0.62072808517E+02 -0.97356957430E+02  0.11563926085E+03  0.00000000000E+00 0.  1.
<mgrwt>
<rscale>  0 0.15643242E+03</rscale>
<asrwt>0</asrwt>
<pdfrwt beam="2">  1        2 0.16856435E+00 0.16287865E+03</pdfrwt>
<pdfrwt beam="1">  1       -2 0.33183443E-02 0.16287865E+03</pdfrwt>
<totfact> 0.81859240E+03</totfact>
</mgrwt>
</event>
<event>
 7    1  0.7800420E-006  0.1877235E+03  0.7546771E-02  0.1165352E+00
          2   -1    0    0  501    0  0.00000000000E+00  0.00000000000E+00  0.78424786658E+03  0.78424786658E+03  0.00000000000E+00 0.  1.
         -2   -1    0    0    0  501 -0.00000000000E+00 -0.00000000000E+00 -0.47222868102E+02  0.47222868102E+02  0.00000000000E+00 0. -1.
         23    2    1    2    0    0  0.10528319498E+03  0.92412089617E+02  0.54487376766E+03  0.57630508173E+03  0.12496231068E+03 0.  0.
          5    1    3    3  502    0  0.11106517797E+02  0.92575614023E+02  0.26311818636E+03  0.27918966500E+03  0.47000000000E+01 0. -1.
         -5    1    3    3    0  502  0.94176677180E+02 -0.16352440557E+00  0.28175558130E+03  0.29711541673E+03  0.47000000000E+01 0. -1.
        -11    1    1    2    0    0 -0.91203258352E+02 -0.69490401718E+02  0.19689705973E+03  0.22784951699E+03  0.00000000000E+00 0.  1.
         11    1    1    2    0    0 -0.14079936625E+02 -0.22921687899E+02 -0.47458289110E+01  0.27316135956E+02  0.00000000000E+00 0. -1.
<mgrwt>
<rscale>  0 0.18255593E+03</rscale>
<asrwt>0</asrwt>
<pdfrwt beam="1">  1        2 0.12065351E+00 0.18772353E+03</pdfrwt>
<pdfrwt beam="2">  1       -2 0.72650572E-02 0.18772353E+03</pdfrwt>
<totfact> 0.39482211E+03</totfact>
</mgrwt>
</event>
<event>
 7    1  0.7800420E-006  0.2262152E+03  0.7546771E-02  0.1132361E+00
          1   -1    0    0  501    0  0.00000000000E+00  0.00000000000E+00  0.52063390325E+03  0.52063390325E+03  0.00000000000E+00 0. -1.
         -1   -1    0    0    0  501 -0.00000000000E+00 -0.00000000000E+00 -0.10667017545E+03  0.10667017545E+03  0.00000000000E+00 0.  1.
         23    2    1    2    0    0 -0.10783567081E+03  0.15466095112E+03  0.33223618876E+03  0.40193806434E+03  0.12499912295E+03 0.  0.
          5    1    3    3  502    0 -0.59709181846E+02  0.13524623080E+03  0.31336190596E+03  0.34651768129E+03  0.47000000000E+01 0.  1.
         -5    1    3    3    0  502 -0.48126488965E+02  0.19414720318E+02  0.18874282805E+02  0.55420383042E+02  0.47000000000E+01 0.  1.
        -11    1    1    2    0    0  0.93441148473E+02 -0.62981501908E+02  0.21457591864E+02  0.11470983419E+03  0.00000000000E+00 0.  1.
         11    1    1    2    0    0  0.14394522338E+02 -0.91679449208E+02  0.60269947165E+02  0.11065618018E+03  0.00000000000E+00 0. -1.
<mgrwt>
<rscale>  0 0.22205423E+03</rscale>
<asrwt>0</asrwt>
<pdfrwt beam="1">  1        1 0.80097522E-01 0.22621521E+03</pdfrwt>
<pdfrwt beam="2">  1       -1 0.16410797E-01 0.22621521E+03</pdfrwt>
<totfact> 0.11890036E+03</totfact>
</mgrwt>
</event>
<event>
 7    1  0.7800420E-006  0.1489148E+03  0.7546771E-02  0.1210939E+00
         -1   -1    0    0    0  501 -0.00000000000E+00  0.00000000000E+00  0.14649102218E+03  0.14649102218E+03  0.00000000000E+00 0.  1.
          1   -1    0    0  501    0  0.00000000000E+00 -0.00000000000E+00 -0.15447275658E+03  0.15447275658E+03  0.00000000000E+00 0. -1.
         23    2    1    2    0    0  0.44823911343E+01 -0.80811963614E+02 -0.69083977179E+02  0.16415908201E+03  0.12499977204E+03 0.  0.
          5    1    3    3  502    0  0.59061268750E+02 -0.72296748151E+02 -0.43896483029E+02  0.10326686052E+03  0.47000000000E+01 0. -1.
         -5    1    3    3    0  502 -0.54578877616E+02 -0.85152154625E+01 -0.25187494150E+02  0.60892221488E+02  0.47000000000E+01 0. -1.
        -11    1    1    2    0    0 -0.15855409578E+02 -0.66336988521E+00  0.51608705168E+02  0.53993448876E+02  0.00000000000E+00 0.  1.
         11    1    1    2    0    0  0.11373018444E+02  0.81475333499E+02  0.94935376117E+01  0.82811247869E+02  0.00000000000E+00 0. -1.
<mgrwt>
<rscale>  0 0.14179134E+03</rscale>
<asrwt>0</asrwt>
<pdfrwt beam="2">  1        1 0.23765039E-01 0.14891477E+03</pdfrwt>
<pdfrwt beam="1">  1       -1 0.22537080E-01 0.14891477E+03</pdfrwt>
<totfact> 0.32761472E+03</totfact>
</mgrwt>
</event>
<event>
 7    1  0.7800420E-006  0.1318479E+03  0.7546771E-02  0.1237584E+00
         -1   -1    0    0    0  501 -0.00000000000E+00  0.00000000000E+00  0.51408233735E+02  0.51408233735E+02  0.00000000000E+00 0.  1.
          1   -1    0    0  501    0  0.00000000000E+00 -0.00000000000E+00 -0.26422468341E+03  0.26422468341E+03  0.00000000000E+00 0. -1.
         23    2    1    2    0    0  0.38519509360E+02 -0.16606831971E+02 -0.12410100879E+03  0.18106606542E+03  0.12499728075E+03 0.  0.
          5    1    3    3  502    0 -0.22508524018E+01 -0.40626183404E+02  0.70491523502E+01  0.41561203824E+02  0.47000000000E+01 0. -1.
         -5    1    3    3    0  502  0.40770361762E+02  0.24019351432E+02 -0.13115016114E+03  0.13950486160E+03  0.47000000000E+01 0. -1.
        -11    1    1    2    0    0 -0.66137871412E+02  0.12471342079E+02 -0.39660427425E+02  0.78119792062E+02  0.00000000000E+00 0.  1.
         11    1    1    2    0    0  0.27618362052E+02  0.41354898922E+01 -0.49055013456E+02  0.56447059660E+02  0.00000000000E+00 0. -1.
<mgrwt>
<rscale>  0 0.12340442E+03</rscale>
<asrwt>0</asrwt>
<pdfrwt beam="2">  1        1 0.40649952E-01 0.13184787E+03</pdfrwt>
<pdfrwt beam="1">  1       -1 0.79089589E-02 0.13184787E+03</pdfrwt>
<totfact> 0.85304132E+03</totfact>
</mgrwt>
</event>
<event>
 7    1  0.7800420E-006  0.1307671E+03  0.7546771E-02  0.1239648E+00
          1   -1    0    0  501    0  0.00000000000E+00  0.00000000000E+00  0.98767175118E+02  0.98767175118E+02  0.00000000000E+00 0. -1.
         -1   -1    0    0    0  501 -0.00000000000E+00 -0.00000000000E+00 -0.15162950698E+03  0.15162950698E+03  0.00000000000E+00 0.  1.
         23    2    1    2    0    0  0.44335474711E+01 -0.38124133895E+02  0.12548246506E+02  0.13136781724E+03  0.12500775571E+03 0.  0.
          5    1    3    3  502    0  0.12904110218E+02  0.41047308780E+02  0.25981094383E+02  0.50482718666E+02  0.47000000000E+01 0. -1.
         -5    1    3    3    0  502 -0.84705627473E+01 -0.79171442675E+02 -0.13432847878E+02  0.80885098569E+02  0.47000000000E+01 0. -1.
        -11    1    1    2    0    0  0.30365537068E+02  0.34084111355E+02 -0.94402583413E+00  0.45658336293E+02  0.00000000000E+00 0. -1.
         11    1    1    2    0    0 -0.34799084539E+02  0.40400225399E+01 -0.64466552528E+02  0.73370528564E+02  0.00000000000E+00 0.  1.
<mgrwt>
<rscale>  0 0.12211522E+03</rscale>
<asrwt>0</asrwt>
<pdfrwt beam="1">  1        1 0.15194950E-01 0.13076714E+03</pdfrwt>
<pdfrwt beam="2">  1       -1 0.23327616E-01 0.13076714E+03</pdfrwt>
<totfact> 0.54410467E+03</totfact>
</mgrwt>
</event>
<event>
 7    1  0.9673653E-006  0.2558007E+03  0.7546771E-02  0.1111892E+00
          1   -1    0    0  501    0  0.00000000000E+00  0.00000000000E+00  0.54987409632E+03  0.54987409632E+03  0.00000000000E+00 0.  1.
         -1   -1    0    0    0  501 -0.00000000000E+00 -0.00000000000E+00 -0.11357605539E+03  0.11357605539E+03  0.00000000000E+00 0. -1.
         23    2    1    2    0    0  0.19649598093E+03 -0.10582108847E+03  0.25475857228E+03  0.36102069222E+03  0.12500094711E+03 0.  0.
          5    1    3    3  502    0  0.55327709767E+02 -0.99845500544E+02  0.10713154841E+03  0.15661908604E+03  0.47000000000E+01 0.  1.
         -5    1    3    3    0  502  0.14116827116E+03 -0.59755879224E+01  0.14762702387E+03  0.20440160618E+03  0.47000000000E+01 0.  1.
        -11    1    1    2    0    0 -0.14178052054E+03  0.10708384334E+03  0.17119301126E+03  0.24673003995E+03  0.00000000000E+00 0.  1.
         11    1    1    2    0    0 -0.54715460390E+02 -0.12627548760E+01  0.10346457387E+02  0.55699419530E+02  0.00000000000E+00 0. -1.
<mgrwt>
<rscale>  0 0.25224775E+03</rscale>
<asrwt>0</asrwt>
<pdfrwt beam="1">  1        1 0.84596013E-01 0.25580072E+03</pdfrwt>
<pdfrwt beam="2">  1       -1 0.17473240E-01 0.25580072E+03</pdfrwt>
<totfact> 0.99931255E+02</totfact>
</mgrwt>
</event>
<event>
 7    1  0.7800420E-006  0.1257341E+03  0.7546771E-02  0.1248387E+00
          3   -1    0    0  501    0  0.00000000000E+00  0.00000000000E+00  0.33112499110E+03  0.33112499110E+03  0.00000000000E+00 0. -1.
         -3   -1    0    0    0  501 -0.00000000000E+00 -0.00000000000E+00 -0.80721025499E+02  0.80721025499E+02  0.00000000000E+00 0.  1.
         23    2    1    2    0    0  0.48892294327E+01  0.15221799513E+02  0.28529882387E+03  0.31177632285E+03  0.12471346697E+03 0.  0.
          5    1    3    3  502    0 -0.30532788150E+02  0.55360614415E+02  0.20934488844E+03  0.21873367618E+03  0.47000000000E+01 0.  1.
         -5    1    3    3    0  502  0.35422017583E+02 -0.40138814901E+02  0.75953935434E+02  0.93042646669E+02  0.47000000000E+01 0.  1.
        -11    1    1    2    0    0  0.28595234066E+02 -0.83456904159E+01 -0.53438875933E+02  0.61180482351E+02  0.00000000000E+00 0.  1.
         11    1    1    2    0    0 -0.33484463498E+02 -0.68761090975E+01  0.18544017661E+02  0.38889211397E+02  0.00000000000E+00 0. -1.
<mgrwt>
<rscale>  0 0.11684959E+03</rscale>
<asrwt>0</asrwt>
<pdfrwt beam="1">  1        3 0.50942306E-01 0.12573407E+03</pdfrwt>
<pdfrwt beam="2">  1       -3 0.12418619E-01 0.12573407E+03</pdfrwt>
<totfact> 0.45312012E+02</totfact>
</mgrwt>
</event>
<event>
 7    1  0.7800420E-006  0.1751575E+03  0.7546771E-02  0.1178487E+00
         -2   -1    0    0    0  501 -0.00000000000E+00  0.00000000000E+00  0.14960522942E+02  0.14960522942E+02  0.00000000000E+00 0.  1.
          2   -1    0    0  501    0  0.00000000000E+00 -0.00000000000E+00 -0.19152824838E+04  0.19152824838E+04  0.00000000000E+00 0. -1.
         23    2    1    2    0    0  0.10390400744E+03  0.65266485042E+02 -0.12444661442E+04  0.12567323182E+04  0.12499751425E+03 0.  0.
          5    1    3    3  502    0  0.73156683428E+01 -0.97700612408E+01 -0.63303151853E+03  0.63316661832E+03  0.47000000000E+01 0. -1.
         -5    1    3    3    0  502  0.96588339102E+02  0.75036546283E+02 -0.61143462572E+03  0.62356569987E+03  0.47000000000E+01 0. -1.
        -11    1    1    2    0    0 -0.58738422402E+02 -0.72852442952E+02 -0.55377989216E+03  0.56163141798E+03  0.00000000000E+00 0. -1.
         11    1    1    2    0    0 -0.45165585042E+02  0.75859579096E+01 -0.10207592443E+03  0.11187927055E+03  0.00000000000E+00 0.  1.
<mgrwt>
<rscale>  0 0.16938897E+03</rscale>
<asrwt>0</asrwt>
<pdfrwt beam="2">  1        2 0.29465872E+00 0.17515746E+03</pdfrwt>
<pdfrwt beam="1">  1       -2 0.23016199E-02 0.17515746E+03</pdfrwt>
<totfact> 0.51479728E+03</totfact>
</mgrwt>
</event>
<event>
 7    1  0.7800420E-006  0.1526594E+03  0.7546771E-02  0.1205789E+00
          1   -1    0    0  501    0  0.00000000000E+00  0.00000000000E+00  0.41894645498E+03  0.41894645498E+03  0.00000000000E+00 0. -1.
         -1   -1    0    0    0  501 -0.00000000000E+00 -0.00000000000E+00 -0.48122999889E+02  0.48122999889E+02  0.00000000000E+00 0.  1.
         23    2    1    2    0    0 -0.46925922681E+02  0.74018353825E+02  0.24305317800E+03  0.28701868861E+03  0.12499648537E+03 0.  0.
          5    1    3    3  502    0 -0.10422478586E+02 -0.28706355165E+02  0.15311340161E+02  0.34484924594E+02  0.47000000000E+01 0.  1.
         -5    1    3    3    0  502 -0.36503444095E+02  0.10272470899E+03  0.22774183784E+03  0.25253376402E+03  0.47000000000E+01 0.  1.
        -11    1    1    2    0    0  0.55752371237E+02 -0.52081051510E+02  0.34324630193E+02  0.83659686008E+02  0.00000000000E+00 0.  1.
         11    1    1    2    0    0 -0.88264485563E+01 -0.21937302315E+02  0.93445646907E+02  0.96391080255E+02  0.00000000000E+00 0. -1.
<mgrwt>
<rscale>  0 0.14575462E+03</rscale>
<asrwt>0</asrwt>
<pdfrwt beam="1">  1        1 0.64453298E-01 0.15265936E+03</pdfrwt>
<pdfrwt beam="2">  1       -1 0.74035387E-02 0.15265936E+03</pdfrwt>
<totfact> 0.53506612E+03</totfact>
</mgrwt>
</event>
<event>
 7    1  0.7800420E-006  0.1124794E+03  0.7546771E-02  0.1264902E+00
          3   -1    0    0  501    0  0.00000000000E+00  0.00000000000E+00  0.43293359207E+02  0.43293359207E+02  0.00000000000E+00 0. -1.
         -3   -1    0    0    0  501 -0.00000000000E+00 -0.00000000000E+00 -0.28419791245E+03  0.28419791245E+03  0.00000000000E+00 0.  1.
         23    2    1    2    0    0 -0.67936549264E+01  0.14159953184E+02 -0.70853609016E+02  0.13293550675E+03  0.11137754272E+03 0.  0.
          5    1    3    3  502    0  0.14699827795E+02 -0.17418190573E+02  0.22246238416E+02  0.32194152011E+02  0.47000000000E+01 0. -1.
         -5    1    3    3    0  502 -0.21493482721E+02  0.31578143757E+02 -0.93099847433E+02  0.10074135474E+03  0.47000000000E+01 0.  1.
        -11    1    1    2    0    0 -0.72639802808E+01  0.29584073285E+02 -0.17275151022E+02  0.35020189098E+02  0.00000000000E+00 0. -1.
         11    1    1    2    0    0  0.14057635207E+02 -0.43744026468E+02 -0.15277579320E+03  0.15953557580E+03  0.00000000000E+00 0.  1.
<mgrwt>
<rscale>  0 0.10769344E+03</rscale>
<asrwt>0</asrwt>
<pdfrwt beam="1">  1        3 0.66605169E-02 0.11247940E+03</pdfrwt>
<pdfrwt beam="2">  1       -3 0.43722755E-01 0.11247940E+03</pdfrwt>
<totfact> 0.16669478E+03</totfact>
</mgrwt>
</event>
<event>
 7    1  0.7800420E-006  0.1390177E+03  0.7546771E-02  0.1226157E+00
         -2   -1    0    0    0  501 -0.00000000000E+00  0.00000000000E+00  0.97975286995E+02  0.97975286995E+02  0.00000000000E+00 0.  1.
          2   -1    0    0  501    0  0.00000000000E+00 -0.00000000000E+00 -0.16180921772E+03  0.16180921772E+03  0.00000000000E+00 0. -1.
         23    2    1    2    0    0  0.59172335300E+02  0.11515622084E+02 -0.57341040595E+02  0.15037925106E+03  0.12526751133E+03 0.  0.
          5    1    3    3  502    0  0.78102329104E+02  0.30828307263E+02 -0.79023542846E+02  0.11540003754E+03  0.47000000000E+01 0.  1.
         -5    1    3    3    0  502 -0.18929993805E+02 -0.19312685179E+02  0.21682502251E+02  0.34979213516E+02  0.47000000000E+01 0.  1.
        -11    1    1    2    0    0  0.14790477442E+02 -0.24353240351E+02  0.13776086369E+02  0.31648366375E+02  0.00000000000E+00 0.  1.
         11    1    1    2    0    0 -0.73962812742E+02  0.12837618267E+02 -0.20268976495E+02  0.77756887281E+02  0.00000000000E+00 0. -1.
<mgrwt>
<rscale>  0 0.13087919E+03</rscale>
<asrwt>0</asrwt>
<pdfrwt beam="2">  1        2 0.24893725E-01 0.13901771E+03</pdfrwt>
<pdfrwt beam="1">  1       -2 0.15073121E-01 0.13901771E+03</pdfrwt>
<totfact> 0.69740342E+03</totfact>
</mgrwt>
</event>
<event>
 7    1  0.7800420E-006  0.1272062E+03  0.7546771E-02  0.1254388E+00
         -2   -1    0    0    0  501 -0.00000000000E+00  0.00000000000E+00  0.37791507041E+02  0.37791507041E+02  0.00000000000E+00 0.  1.
          2   -1    0    0  501    0  0.00000000000E+00 -0.00000000000E+00 -0.40210450734E+03  0.40210450734E+03  0.00000000000E+00 0. -1.
         23    2    1    2    0    0  0.14821459758E+02 -0.18359213900E+02 -0.32782827256E+03  0.35164300140E+03  0.12499875096E+03 0.  0.
          5    1    3    3  502    0  0.93826344042E+01  0.51111376140E+01 -0.32686948676E+03  0.32707783314E+03  0.47000000000E+01 0. -1.
         -5    1    3    3    0  502  0.54388253539E+01 -0.23470351514E+02 -0.95878579727E+00  0.24565168260E+02  0.47000000000E+01 0. -1.
        -11    1    1    2    0    0 -0.15586250381E+00  0.23589122311E+02 -0.57469581933E+02  0.62122651522E+02  0.00000000000E+00 0. -1.
         11    1    1    2    0    0 -0.14665597254E+02 -0.52299084106E+01  0.20984854189E+02  0.26130361463E+02  0.00000000000E+00 0.  1.
<mgrwt>
<rscale>  0 0.11340677E+03</rscale>
<asrwt>0</asrwt>
<pdfrwt beam="2">  1        2 0.61862235E-01 0.12720623E+03</pdfrwt>
<pdfrwt beam="1">  1       -2 0.58140777E-02 0.12720623E+03</pdfrwt>
<totfact> 0.11616970E+04</totfact>
</mgrwt>
</event>
<event>
 7    1  0.7800420E-006  0.2236671E+03  0.7546771E-02  0.1134396E+00
          2   -1    0    0  501    0  0.00000000000E+00  0.00000000000E+00  0.10426310122E+04  0.10426310122E+04  0.00000000000E+00 0.  1.
         -2   -1    0    0    0  501 -0.00000000000E+00 -0.00000000000E+00 -0.11207221101E+03  0.11207221101E+03  0.00000000000E+00 0. -1.
         23    2    1    2    0    0  0.47345202966E+02 -0.17933541737E+03  0.92095414602E+03  0.94772542963E+03  0.12499676287E+03 0.  0.
          5    1    3    3  502    0  0.36048841611E+02 -0.12762645999E+03  0.35014647224E+03  0.37444982880E+03  0.47000000000E+01 0.  1.
         -5    1    3    3    0  502  0.11296361354E+02 -0.51708957378E+02  0.57080767378E+03  0.57327560082E+03  0.47000000000E+01 0.  1.
        -11    1    1    2    0    0 -0.46946181849E+02  0.12045194448E+03  0.46618563753E+02  0.13742599975E+03  0.00000000000E+00 0.  1.
         11    1    1    2    0    0 -0.39902111694E+00  0.58883472885E+02 -0.37013908587E+02  0.69551793835E+02  0.00000000000E+00 0. -1.
<mgrwt>
<rscale>  0 0.21931353E+03</rscale>
<asrwt>0</asrwt>
<pdfrwt beam="1">  1        2 0.16040476E+00 0.22366705E+03</pdfrwt>
<pdfrwt beam="2">  1       -2 0.17241879E-01 0.22366705E+03</pdfrwt>
<totfact> 0.67463670E+02</totfact>
</mgrwt>
</event>
<event>
 7    1  0.7800420E-006  0.1400634E+03  0.7546771E-02  0.1224471E+00
          1   -1    0    0  501    0  0.00000000000E+00  0.00000000000E+00  0.40756323149E+03  0.40756323149E+03  0.00000000000E+00 0. -1.
         -1   -1    0    0    0  501 -0.00000000000E+00 -0.00000000000E+00 -0.40299582402E+02  0.40299582402E+02  0.00000000000E+00 0.  1.
         23    2    1    2    0    0  0.78673972699E+01 -0.62706698684E+02  0.25075084462E+03  0.28721725828E+03  0.12499496539E+03 0.  0.
          5    1    3    3  502    0 -0.93783201437E+01 -0.67216747654E+02  0.47123704248E+02  0.82757341402E+02  0.47000000000E+01 0. -1.
         -5    1    3    3    0  502  0.17245717414E+02  0.45100489702E+01  0.20362714038E+03  0.20445991688E+03  0.47000000000E+01 0. -1.
        -11    1    1    2    0    0 -0.24034040836E+01  0.15578017866E+02 -0.14431558159E+02  0.21371028583E+02  0.00000000000E+00 0.  1.
         11    1    1    2    0    0 -0.54639931863E+01  0.47128680818E+02  0.13094436262E+03  0.13927452703E+03  0.00000000000E+00 0. -1.
<mgrwt>
<rscale>  0 0.13203216E+03</rscale>
<asrwt>0</asrwt>
<pdfrwt beam="1">  1        1 0.62702033E-01 0.14006344E+03</pdfrwt>
<pdfrwt beam="2">  1       -1 0.61999360E-02 0.14006344E+03</pdfrwt>
<totfact> 0.71943888E+03</totfact>
</mgrwt>
</event>
<event>
 7    1  0.7800420E-006  0.1399023E+03  0.7546771E-02  0.1224372E+00
         -1   -1    0    0    0  501 -0.00000000000E+00  0.00000000000E+00  0.77949422326E+02  0.77949422326E+02  0.00000000000E+00 0.  1.
          1   -1    0    0  501    0  0.00000000000E+00 -0.00000000000E+00 -0.20226314868E+03  0.20226314868E+03  0.00000000000E+00 0. -1.
         23    2    1    2    0    0 -0.14084379211E+02 -0.61232250719E+02 -0.70877548775E+02  0.15683199653E+03  0.12499955980E+03 0.  0.
          5    1    3    3  502    0  0.11406119503E+01 -0.58529360194E+01 -0.94316431429E+02  0.94621546664E+02  0.47000000000E+01 0.  1.
         -5    1    3    3    0  502 -0.15224991161E+02 -0.55379314700E+02  0.23438882654E+02  0.62210449866E+02  0.47000000000E+01 0.  1.
        -11    1    1    2    0    0 -0.17054920800E+02  0.22890993494E+02  0.20016921416E+02  0.34864667640E+02  0.00000000000E+00 0.  1.
         11    1    1    2    0    0  0.31139300011E+02  0.38341257226E+02 -0.73453098993E+02  0.88515906834E+02  0.00000000000E+00 0. -1.
<mgrwt>
<rscale>  0 0.13210010E+03</rscale>
<asrwt>0</asrwt>
<pdfrwt beam="2">  1        1 0.31117408E-01 0.13990228E+03</pdfrwt>
<pdfrwt beam="1">  1       -1 0.11992219E-01 0.13990228E+03</pdfrwt>
<totfact> 0.63220993E+03</totfact>
</mgrwt>
</event>
<event>
 7    1  0.7800420E-006  0.1267563E+03  0.7546771E-02  0.1246868E+00
          1   -1    0    0  501    0  0.00000000000E+00  0.00000000000E+00  0.28027139984E+03  0.28027139984E+03  0.00000000000E+00 0. -1.
         -1   -1    0    0    0  501 -0.00000000000E+00 -0.00000000000E+00 -0.44601829369E+02  0.44601829369E+02  0.00000000000E+00 0.  1.
         23    2    1    2    0    0  0.72997863008E+01 -0.19721960365E+02  0.15862261474E+03  0.20304751817E+03  0.12499967251E+03 0.  0.
          5    1    3    3  502    0 -0.42115183447E+02  0.33326281521E+02  0.73170734839E+02  0.90886611520E+02  0.47000000000E+01 0.  1.
         -5    1    3    3    0  502  0.49414969748E+02 -0.53048241886E+02  0.85451879896E+02  0.11216090665E+03  0.47000000000E+01 0.  1.
        -11    1    1    2    0    0  0.40179417682E+02 -0.54957306605E+01  0.35166983297E+02  0.53677792195E+02  0.00000000000E+00 0. -1.
         11    1    1    2    0    0 -0.47479203982E+02  0.25217691025E+02  0.41879972440E+02  0.68147918846E+02  0.00000000000E+00 0.  1.
<mgrwt>
<rscale>  0 0.11774245E+03</rscale>
<asrwt>0</asrwt>
<pdfrwt beam="1">  1        1 0.43118676E-01 0.12675630E+03</pdfrwt>
<pdfrwt beam="2">  1       -1 0.68618200E-02 0.12675630E+03</pdfrwt>
<totfact> 0.97870542E+03</totfact>
</mgrwt>
</event>
<event>
 7    1  0.7800420E-006  0.1294670E+03  0.7546771E-02  0.1235019E+00
          2   -1    0    0  501    0  0.00000000000E+00  0.00000000000E+00  0.15613561835E+03  0.15613561835E+03  0.00000000000E+00 0. -1.
         -2   -1    0    0    0  501 -0.00000000000E+00 -0.00000000000E+00 -0.10602377666E+03  0.10602377666E+03  0.00000000000E+00 0.  1.
         23    2    1    2    0    0  0.50091881675E+01 -0.67622068107E+02  0.70944857394E+02  0.14763089134E+03  0.11028994164E+03 0.  0.
          5    1    3    3  502    0  0.33273628254E+02 -0.79429517733E+02  0.77505259676E+02  0.11595403357E+03  0.47000000000E+01 0. -1.
         -5    1    3    3    0  502 -0.28264440086E+02  0.11807449625E+02 -0.65604022819E+01  0.31676857769E+02  0.47000000000E+01 0.  1.
        -11    1    1    2    0    0 -0.25280352576E+02  0.65493337347E+02  0.16389372446E+02  0.72090810735E+02  0.00000000000E+00 0.  1.
         11    1    1    2    0    0  0.20271164408E+02  0.21287307599E+01 -0.37222388156E+02  0.42437692929E+02  0.00000000000E+00 0. -1.
<mgrwt>
<rscale>  0 0.12503197E+03</rscale>
<asrwt>0</asrwt>
<pdfrwt beam="1">  1        2 0.24020864E-01 0.12946701E+03</pdfrwt>
<pdfrwt beam="2">  1       -2 0.16311350E-01 0.12946701E+03</pdfrwt>
<totfact> 0.63415033E+03</totfact>
</mgrwt>
</event>
<event>
 7    1  0.7800420E-006  0.2108166E+03  0.7546771E-02  0.1144617E+00
          2   -1    0    0  501    0  0.00000000000E+00  0.00000000000E+00  0.49786065627E+03  0.49786065627E+03  0.00000000000E+00 0. -1.
         -2   -1    0    0    0  501 -0.00000000000E+00 -0.00000000000E+00 -0.82936840399E+02  0.82936840399E+02  0.00000000000E+00 0.  1.
         23    2    1    2    0    0  0.46663045447E+02  0.16322117109E+03  0.24971896469E+03  0.32680759032E+03  0.12500019706E+03 0.  0.
          5    1    3    3  502    0  0.32477817510E+01 -0.15640646619E+02  0.12313632320E+00  0.16651818985E+02  0.47000000000E+01 0. -1.
         -5    1    3    3    0  502  0.43415263696E+02  0.17886181771E+03  0.24959582837E+03  0.31015577134E+03  0.47000000000E+01 0. -1.
        -11    1    1    2    0    0  0.18370596985E+02 -0.66391643932E+02  0.29204880086E+02  0.74821482466E+02  0.00000000000E+00 0.  1.
         11    1    1    2    0    0 -0.65033642432E+02 -0.96829527158E+02  0.13599997110E+03  0.17916842388E+03  0.00000000000E+00 0. -1.
<mgrwt>
<rscale>  0 0.20619260E+03</rscale>
<asrwt>0</asrwt>
<pdfrwt beam="1">  1        2 0.76593946E-01 0.21081660E+03</pdfrwt>
<pdfrwt beam="2">  1       -2 0.12759514E-01 0.21081660E+03</pdfrwt>
<totfact> 0.27692632E+03</totfact>
</mgrwt>
</event>
<event>
 7    1  0.7800420E-006  0.1275793E+03  0.7546771E-02  0.1245363E+00
          2   -1    0    0  501    0  0.00000000000E+00  0.00000000000E+00  0.25521262275E+03  0.25521262275E+03  0.00000000000E+00 0. -1.
         -2   -1    0    0    0  501 -0.00000000000E+00 -0.00000000000E+00 -0.49744721699E+02  0.49744721699E+02  0.00000000000E+00 0.  1.
         23    2    1    2    0    0 -0.14684504807E+01 -0.25367308307E+02  0.13908850357E+03  0.18873813359E+03  0.12502325610E+03 0.  0.
          5    1    3    3  502    0  0.10514596911E+02  0.31319012706E+02  0.12437757746E+03  0.12877619764E+03  0.47000000000E+01 0.  1.
         -5    1    3    3    0  502 -0.11983047392E+02 -0.56686321013E+02  0.14710926113E+02  0.59961935942E+02  0.47000000000E+01 0.  1.
        -11    1    1    2    0    0  0.70740412530E+01  0.59945454656E+02  0.42656666690E+02  0.73912724255E+02  0.00000000000E+00 0.  1.
         11    1    1    2    0    0 -0.56055907723E+01 -0.34578146350E+02  0.23722730785E+02  0.42306486604E+02  0.00000000000E+00 0. -1.
<mgrwt>
<rscale>  0 0.11863677E+03</rscale>
<asrwt>0</asrwt>
<pdfrwt beam="1">  1        2 0.39263480E-01 0.12757927E+03</pdfrwt>
<pdfrwt beam="2">  1       -2 0.76530343E-02 0.12757927E+03</pdfrwt>
<totfact> 0.12375187E+04</totfact>
</mgrwt>
</event>
<event>
 6    1  0.7800420E-006  0.1740152E+03  0.7546771E-02  0.1189895E+00
         -1   -1    0    0    0  501 -0.00000000000E+00  0.00000000000E+00  0.40862536382E+02  0.40862536382E+02  0.00000000000E+00 0.  1.
          1   -1    0    0  501    0  0.00000000000E+00 -0.00000000000E+00 -0.95111229003E+03  0.95111229003E+03  0.00000000000E+00 0. -1.
          5    1    1    2  502    0  0.11464355312E+03  0.10847056199E+02 -0.46171060407E+03  0.47587768892E+03  0.47000000000E+01 0. -1.
         -5    1    1    2    0  502 -0.38748896423E+02 -0.37072102898E+02 -0.36503451779E+03  0.36898252935E+03  0.47000000000E+01 0.  1.
        -11    1    1    2    0    0 -0.53338866239E+02 -0.19009536490E+02 -0.77832233751E+02  0.96250993449E+02  0.00000000000E+00 0.  1.
         11    1    1    2    0    0 -0.22555790463E+02  0.45234583189E+02 -0.56723980312E+01  0.50863614688E+02  0.00000000000E+00 0. -1.
<mgrwt>
<rscale>  0 0.15894358E+03</rscale>
<asrwt>0</asrwt>
<pdfrwt beam="2">  1        1 0.14632496E+00 0.17401521E+03</pdfrwt>
<pdfrwt beam="1">  1       -1 0.62865444E-02 0.17401521E+03</pdfrwt>
<totfact> 0.21554480E+03</totfact>
</mgrwt>
</event>
<event>
 7    1  0.7800420E-006  0.1515653E+03  0.7546771E-02  0.1207465E+00
          2   -1    0    0  501    0  0.00000000000E+00  0.00000000000E+00  0.88155669574E+03  0.88155669574E+03  0.00000000000E+00 0. -1.
         -2   -1    0    0    0  501 -0.00000000000E+00 -0.00000000000E+00 -0.22138587624E+02  0.22138587624E+02  0.00000000000E+00 0.  1.
         23    2    1    2    0    0 -0.63858156314E+02  0.57173784566E+02  0.53355820415E+03  0.55466783883E+03  0.12500139377E+03 0.  0.
          5    1    3    3  502    0 -0.78623560843E+02  0.77920479292E+02  0.30228780754E+03  0.32195228528E+03  0.47000000000E+01 0.  1.
         -5    1    3    3    0  502  0.14765404529E+02 -0.20746694725E+02  0.23127039662E+03  0.23271555355E+03  0.47000000000E+01 0.  1.
        -11    1    1    2    0    0  0.30976338549E+02 -0.76104963335E+02  0.17288885439E+03  0.19142114555E+03  0.00000000000E+00 0.  1.
         11    1    1    2    0    0  0.32881817765E+02  0.18931178768E+02  0.15297104957E+03  0.15760629897E+03  0.00000000000E+00 0. -1.
<mgrwt>
<rscale>  0 0.14444877E+03</rscale>
<asrwt>0</asrwt>
<pdfrwt beam="1">  1        2 0.13562408E+00 0.15156535E+03</pdfrwt>
<pdfrwt beam="2">  1       -2 0.34059372E-02 0.15156535E+03</pdfrwt>
<totfact> 0.10580606E+04</totfact>
</mgrwt>
</event>
<event>
 7    1  0.7800420E-006  0.1357321E+03  0.7546771E-02  0.1231361E+00
         -2   -1    0    0    0  501 -0.00000000000E+00  0.00000000000E+00  0.12364188562E+03  0.12364188562E+03  0.00000000000E+00 0.  1.
          2   -1    0    0  501    0  0.00000000000E+00 -0.00000000000E+00 -0.11774074227E+03  0.11774074227E+03  0.00000000000E+00 0. -1.
         23    2    1    2    0    0 -0.48496166388E+02  0.21121444902E+02 -0.17908802344E+01  0.13574388672E+03  0.12500080776E+03 0.  0.
          5    1    3    3  502    0 -0.89958180384E+01  0.68464882738E+02  0.16704730834E+02  0.71200442012E+02  0.47000000000E+01 0.  1.
         -5    1    3    3    0  502 -0.39500348350E+02 -0.47343437835E+02 -0.18495611068E+02  0.64543444707E+02  0.47000000000E+01 0.  1.
        -11    1    1    2    0    0  0.21745525433E+02 -0.22909720766E+02  0.47860916721E+02  0.57344489982E+02  0.00000000000E+00 0.  1.
         11    1    1    2    0    0  0.26750640956E+02  0.17882758636E+01 -0.40168893139E+02  0.48294251191E+02  0.00000000000E+00 0. -1.
<mgrwt>
<rscale>  0 0.12740283E+03</rscale>
<asrwt>0</asrwt>
<pdfrwt beam="2">  1        2 0.18113960E-01 0.13573207E+03</pdfrwt>
<pdfrwt beam="1">  1       -2 0.19021829E-01 0.13573207E+03</pdfrwt>
<totfact> 0.67673841E+03</totfact>
</mgrwt>
</event>
<event>
 7    1  0.7800420E-006  0.1422417E+03  0.7546771E-02  0.1220782E+00
         -1   -1    0    0    0  501 -0.00000000000E+00  0.00000000000E+00  0.41030591058E+02  0.41030591058E+02  0.00000000000E+00 0.  1.
          1   -1    0    0  501    0  0.00000000000E+00 -0.00000000000E+00 -0.46337060105E+03  0.46337060105E+03  0.00000000000E+00 0. -1.
         23    2    1    2    0    0 -0.49858652855E+02 -0.46066004519E+02 -0.32382083604E+03  0.35368436255E+03  0.12499892969E+03 0.  0.
          5    1    3    3  502    0  0.40868548296E+00 -0.20131952587E+02  0.39366662805E+01  0.21048750087E+02  0.47000000000E+01 0. -1.
         -5    1    3    3    0  502 -0.50267338338E+02 -0.25934051932E+02 -0.32775750232E+03  0.33263561247E+03  0.47000000000E+01 0. -1.
        -11    1    1    2    0    0  0.12934465270E+02 -0.25784652809E+02 -0.91852227892E+01  0.30274032271E+02  0.00000000000E+00 0.  1.
         11    1    1    2    0    0  0.36924187585E+02  0.71850657328E+02 -0.89333951158E+02  0.12044279728E+03  0.00000000000E+00 0. -1.
<mgrwt>
<rscale>  0 0.13460242E+03</rscale>
<asrwt>0</asrwt>
<pdfrwt beam="2">  1        1 0.71287786E-01 0.14224168E+03</pdfrwt>
<pdfrwt beam="1">  1       -1 0.63123985E-02 0.14224168E+03</pdfrwt>
<totfact> 0.59513992E+03</totfact>
</mgrwt>
</event>
<event>
 7    1  0.7800420E-006  0.1383622E+03  0.7546771E-02  0.1226647E+00
         -2   -1    0    0    0  501 -0.00000000000E+00  0.00000000000E+00  0.17980311820E+02  0.17980311820E+02  0.00000000000E+00 0.  1.
          2   -1    0    0  501    0  0.00000000000E+00 -0.00000000000E+00 -0.93041097163E+03  0.93041097163E+03  0.00000000000E+00 0. -1.
         23    2    1    2    0    0 -0.44964824727E+02 -0.38689648636E+02 -0.63871471831E+03  0.65352933945E+03  0.12500152699E+03 0.  0.
          5    1    3    3  502    0 -0.69600165809E+02 -0.66294103449E+02 -0.52808542292E+03  0.53678244674E+03  0.47000000000E+01 0. -1.
         -5    1    3    3    0  502  0.24635341082E+02  0.27604454813E+02 -0.11062929540E+03  0.11674689270E+03  0.47000000000E+01 0. -1.
        -11    1    1    2    0    0  0.42544281807E+02 -0.16933713207E+02 -0.69780490999E+02  0.83463066571E+02  0.00000000000E+00 0.  1.
         11    1    1    2    0    0  0.24205429200E+01  0.55623361843E+02 -0.20393545050E+03  0.21139887744E+03  0.00000000000E+00 0. -1.
<mgrwt>
<rscale>  0 0.13054656E+03</rscale>
<asrwt>0</asrwt>
<pdfrwt beam="2">  1        2 0.14314018E+00 0.13836223E+03</pdfrwt>
<pdfrwt beam="1">  1       -2 0.27662012E-02 0.13836223E+03</pdfrwt>
<totfact> 0.13318693E+04</totfact>
</mgrwt>
</event>
<event>
 7    1  0.7800420E-006  0.1254396E+03  0.7546771E-02  0.1250048E+00
         -1   -1    0    0    0  501 -0.00000000000E+00  0.00000000000E+00  0.47251999512E+02  0.47251999512E+02  0.00000000000E+00 0.  1.
          1   -1    0    0  501    0  0.00000000000E+00 -0.00000000000E+00 -0.24868766186E+03  0.24868766186E+03  0.00000000000E+00 0. -1.
         23    2    1    2    0    0  0.75061138481E+01  0.74717406559E+01 -0.11615851128E+03  0.17096167381E+03  0.12499170179E+03 0.  0.
          5    1    3    3  502    0 -0.17744646276E+01  0.30100714043E+02 -0.13583527163E+03  0.13922109298E+03  0.47000000000E+01 0.  1.
         -5    1    3    3    0  502  0.92805784757E+01 -0.22628973387E+02  0.19676760355E+02  0.31740580830E+02  0.47000000000E+01 0.  1.
        -11    1    1    2    0    0 -0.36384521664E+02  0.15578913229E+02 -0.95473356592E+01  0.40714709532E+02  0.00000000000E+00 0.  1.
         11    1    1    2    0    0  0.28878407816E+02 -0.23050653885E+02 -0.75729815415E+02  0.84263278035E+02  0.00000000000E+00 0. -1.
<mgrwt>
<rscale>  0 0.11588288E+03</rscale>
<asrwt>0</asrwt>
<pdfrwt beam="2">  1        1 0.38259640E-01 0.12543960E+03</pdfrwt>
<pdfrwt beam="1">  1       -1 0.72695385E-02 0.12543960E+03</pdfrwt>
<totfact> 0.10393871E+04</totfact>
</mgrwt>
</event>
<event>
 7    1  0.7800420E-006  0.1829657E+03  0.7546771E-02  0.1170390E+00
          2   -1    0    0  501    0  0.00000000000E+00  0.00000000000E+00  0.15425881225E+04  0.15425881225E+04  0.00000000000E+00 0.  1.
         -2   -1    0    0    0  501 -0.00000000000E+00 -0.00000000000E+00 -0.33890910852E+02  0.33890910852E+02  0.00000000000E+00 0. -1.
         23    2    1    2    0    0  0.22312880986E+01  0.13358765467E+03  0.12988026100E+04  0.13116267223E+04  0.12500319525E+03 0.  0.
          5    1    3    3  502    0 -0.52401816656E+02  0.50056980368E+02  0.34226771594E+03  0.34988702612E+03  0.47000000000E+01 0. -1.
         -5    1    3    3    0  502  0.54633104754E+02  0.83530674300E+02  0.95653489402E+03  0.96173969615E+03  0.47000000000E+01 0. -1.
        -11    1    1    2    0    0  0.14995002056E+02 -0.37820418997E+02  0.13799121836E+03  0.14386386108E+03  0.00000000000E+00 0.  1.
         11    1    1    2    0    0 -0.17226290155E+02 -0.95767235671E+02  0.71903383348E+02  0.12098845002E+03  0.00000000000E+00 0. -1.
<mgrwt>
<rscale>  0 0.17735301E+03</rscale>
<asrwt>0</asrwt>
<pdfrwt beam="1">  1        2 0.23732120E+00 0.18296568E+03</pdfrwt>
<pdfrwt beam="2">  1       -2 0.52139875E-02 0.18296568E+03</pdfrwt>
<totfact> 0.23789828E+03</totfact>
</mgrwt>
</event>
<event>
 7    1  0.7800420E-006  0.1278376E+03  0.7546771E-02  0.1247657E+00
         -4   -1    0    0    0  501 -0.00000000000E+00  0.00000000000E+00  0.28888408798E+02  0.28888408798E+02  0.00000000000E+00 0.  1.
          4   -1    0    0  501    0  0.00000000000E+00 -0.00000000000E+00 -0.69014621005E+03  0.69014621005E+03  0.00000000000E+00 0. -1.
         23    2    1    2    0    0  0.22952559233E+02 -0.13819038087E+02 -0.59033124821E+03  0.60401442902E+03  0.12499864826E+03 0.  0.
          5    1    3    3  502    0 -0.12943640717E+02  0.43675029647E+02 -0.38546323630E+03  0.38817398494E+03  0.47000000000E+01 0.  1.
         -5    1    3    3    0  502  0.35896199951E+02 -0.57494067734E+02 -0.20486801191E+03  0.21584044408E+03  0.47000000000E+01 0.  1.
        -11    1    1    2    0    0  0.70225949230E+01  0.14998323575E+02 -0.81536092796E+02  0.83200967410E+02  0.00000000000E+00 0. -1.
         11    1    1    2    0    0 -0.29975154156E+02 -0.11792854885E+01  0.10609539757E+02  0.31819222411E+02  0.00000000000E+00 0.  1.
<mgrwt>
<rscale>  0 0.11727744E+03</rscale>
<asrwt>0</asrwt>
<pdfrwt beam="2">  1        4 0.10617633E+00 0.12783758E+03</pdfrwt>
<pdfrwt beam="1">  1       -4 0.44443710E-02 0.12783758E+03</pdfrwt>
<totfact> 0.35350768E+02</totfact>
</mgrwt>
</event>
<event>
 7    1  0.7800420E-006  0.1290522E+03  0.7546771E-02  0.1242858E+00
          1   -1    0    0  501    0  0.00000000000E+00  0.00000000000E+00  0.63156142639E+03  0.63156142639E+03  0.00000000000E+00 0. -1.
         -1   -1    0    0    0  501 -0.00000000000E+00 -0.00000000000E+00 -0.26633957126E+02  0.26633957126E+02  0.00000000000E+00 0.  1.
         23    2    1    2    0    0 -0.19167126373E+02  0.25709289048E+02  0.49536811995E+03  0.51190237423E+03  0.12500448074E+03 0.  0.
          5    1    3    3  502    0 -0.12042887210E+02 -0.37198090929E+02  0.58966777375E+02  0.70907686009E+02  0.47000000000E+01 0. -1.
         -5    1    3    3    0  502 -0.71242391628E+01  0.62907379978E+02  0.43640134258E+03  0.44099468822E+03  0.47000000000E+01 0. -1.
        -11    1    1    2    0    0  0.26665501069E+02 -0.53201128454E+02  0.41620744931E+02  0.72620213610E+02  0.00000000000E+00 0.  1.
         11    1    1    2    0    0 -0.74983746968E+01  0.27491839406E+02  0.67938604379E+02  0.73672795671E+02  0.00000000000E+00 0. -1.
<mgrwt>
<rscale>  0 0.12014501E+03</rscale>
<asrwt>0</asrwt>
<pdfrwt beam="1">  1        1 0.97163285E-01 0.12905219E+03</pdfrwt>
<pdfrwt beam="2">  1       -1 0.40975324E-02 0.12905219E+03</pdfrwt>
<totfact> 0.74357460E+03</totfact>
</mgrwt>
</event>
<event>
 7    1  0.7800420E-006  0.2213645E+03  0.7546771E-02  0.1136126E+00
          2   -1    0    0  501    0  0.00000000000E+00  0.00000000000E+00  0.21818061370E+04  0.21818061370E+04  0.00000000000E+00 0. -1.
         -2   -1    0    0    0  501 -0.00000000000E+00 -0.00000000000E+00 -0.21018433599E+02  0.21018433599E+02  0.00000000000E+00 0.  1.
         23    2    1    2    0    0  0.16952498054E+03 -0.68124454500E+02  0.12401305370E+04  0.12597325042E+04  0.12499029227E+03 0.  0.
          5    1    3    3  502    0  0.73726109800E+02 -0.87174367042E+02  0.48404367673E+03  0.49734824874E+03  0.47000000000E+01 0. -1.
         -5    1    3    3    0  502  0.95798870740E+02  0.19049912542E+02  0.75608686024E+03  0.76238425550E+03  0.47000000000E+01 0. -1.
        -11    1    1    2    0    0 -0.13808188555E+03  0.60637464278E+02  0.87019120854E+03  0.88316263995E+03  0.00000000000E+00 0. -1.
         11    1    1    2    0    0 -0.31443094992E+02  0.74869902223E+01  0.50465957925E+02  0.59929426449E+02  0.00000000000E+00 0.  1.
<mgrwt>
<rscale>  0 0.21701757E+03</rscale>
<asrwt>0</asrwt>
<pdfrwt beam="1">  1        2 0.33566230E+00 0.22136448E+03</pdfrwt>
<pdfrwt beam="2">  1       -2 0.32336069E-02 0.22136448E+03</pdfrwt>
<totfact> 0.22602580E+03</totfact>
</mgrwt>
</event>
<event>
 7    1  0.7800420E-006  0.1259302E+03  0.7546771E-02  0.1248964E+00
         -2   -1    0    0    0  501 -0.00000000000E+00  0.00000000000E+00  0.25014580345E+02  0.25014580345E+02  0.00000000000E+00 0.  1.
          2   -1    0    0  501    0  0.00000000000E+00 -0.00000000000E+00 -0.47724479988E+03  0.47724479988E+03  0.00000000000E+00 0. -1.
         23    2    1    2    0    0 -0.43828514765E+01 -0.14630329871E+02 -0.27421242913E+03  0.30174635800E+03  0.12500060936E+03 0.  0.
          5    1    3    3  502    0  0.10697492508E+02  0.28694158740E+02 -0.85899695971E+01  0.32150718023E+02  0.47000000000E+01 0.  1.
         -5    1    3    3    0  502 -0.15080343984E+02 -0.43324488611E+02 -0.26562245953E+03  0.26959563998E+03  0.47000000000E+01 0.  1.
        -11    1    1    2    0    0 -0.95632115398E+00 -0.24659910091E+02 -0.80150476637E+01  0.25947383392E+02  0.00000000000E+00 0.  1.
         11    1    1    2    0    0  0.53391726305E+01  0.39290239962E+02 -0.17000274274E+03  0.17456563883E+03  0.00000000000E+00 0. -1.
<mgrwt>
<rscale>  0 0.11651218E+03</rscale>
<asrwt>0</asrwt>
<pdfrwt beam="2">  1        2 0.73422271E-01 0.12593017E+03</pdfrwt>
<pdfrwt beam="1">  1       -2 0.38483973E-02 0.12593017E+03</pdfrwt>
<totfact> 0.17889443E+04</totfact>
</mgrwt>
</event>
<event>
 7    1  0.7800420E-006  0.1323936E+03  0.7546771E-02  0.1239557E+00
         -2   -1    0    0    0  501 -0.00000000000E+00  0.00000000000E+00  0.27037237056E+02  0.27037237056E+02  0.00000000000E+00 0.  1.
          2   -1    0    0  501    0  0.00000000000E+00 -0.00000000000E+00 -0.48312045706E+03  0.48312045706E+03  0.00000000000E+00 0. -1.
         23    2    1    2    0    0 -0.23168494055E+02  0.36943095875E+02 -0.25421697435E+03  0.28662578799E+03  0.12500600324E+03 0.  0.
          5    1    3    3  502    0  0.28081121006E+02  0.50737933337E+02 -0.53784570215E+02  0.79232299156E+02  0.47000000000E+01 0.  1.
         -5    1    3    3    0  502 -0.51249615062E+02 -0.13794837462E+02 -0.20043240414E+03  0.20739348884E+03  0.47000000000E+01 0.  1.
        -11    1    1    2    0    0  0.38712497908E+02 -0.42708543093E+01 -0.33656240102E+02  0.51474655789E+02  0.00000000000E+00 0.  1.
         11    1    1    2    0    0 -0.15544003852E+02 -0.32672241566E+02 -0.16821000555E+03  0.17205725033E+03  0.00000000000E+00 0. -1.
<mgrwt>
<rscale>  0 0.12217188E+03</rscale>
<asrwt>0</asrwt>
<pdfrwt beam="2">  1        2 0.74326225E-01 0.13239363E+03</pdfrwt>
<pdfrwt beam="1">  1       -2 0.41595749E-02 0.13239363E+03</pdfrwt>
<totfact> 0.15795886E+04</totfact>
</mgrwt>
</event>
<event>
 6    1  0.7800420E-006  0.2004652E+03  0.7546771E-02  0.1179242E+00
          2   -1    0    0  501    0  0.00000000000E+00  0.00000000000E+00  0.41353819955E+03  0.41353819955E+03  0.00000000000E+00 0. -1.
         -2   -1    0    0    0  501 -0.00000000000E+00 -0.00000000000E+00 -0.58488977845E+02  0.58488977845E+02  0.00000000000E+00 0.  1.
          5    1    1    2  502    0  0.41491767157E+02  0.73307975871E+02  0.17583485177E+03  0.19502720622E+03  0.47000000000E+01 0. -1.
         -5    1    1    2    0  502 -0.83278348398E+02 -0.69261523410E+02  0.11342556598E+03  0.15690726865E+03  0.47000000000E+01 0.  1.
        -11    1    1    2    0    0 -0.24914500624E+02 -0.11566395049E+02  0.39263649483E+02  0.47918138596E+02  0.00000000000E+00 0.  1.
         11    1    1    2    0    0  0.66701081865E+02  0.75199425886E+01  0.26525154469E+02  0.72174563927E+02  0.00000000000E+00 0. -1.
<mgrwt>
<rscale>  0 0.16866990E+03</rscale>
<asrwt>0</asrwt>
<pdfrwt beam="1">  1        2 0.63621260E-01 0.20046517E+03</pdfrwt>
<pdfrwt beam="2">  1       -2 0.89983046E-02 0.20046517E+03</pdfrwt>
<totfact> 0.59191522E+03</totfact>
</mgrwt>
</event>
<event>
 7    1  0.7800420E-006  0.1253814E+03  0.7546771E-02  0.1249798E+00
          1   -1    0    0  501    0  0.00000000000E+00  0.00000000000E+00  0.19144308207E+03  0.19144308207E+03  0.00000000000E+00 0. -1.
         -1   -1    0    0    0  501 -0.00000000000E+00 -0.00000000000E+00 -0.63445372901E+02  0.63445372901E+02  0.00000000000E+00 0.  1.
         23    2    1    2    0    0  0.44560658735E+01 -0.86194227169E+01  0.94585290079E+02  0.15705686998E+03  0.12500532924E+03 0.  0.
          5    1    3    3  502    0  0.56799520564E+02  0.21302773328E+02  0.27602660682E+02  0.66813101743E+02  0.47000000000E+01 0. -1.
         -5    1    3    3    0  502 -0.52343454690E+02 -0.29922196045E+02  0.66982629396E+02  0.90243768239E+02  0.47000000000E+01 0. -1.
        -11    1    1    2    0    0 -0.11965989187E+02  0.49188897026E+02  0.16550392681E+02  0.53260191379E+02  0.00000000000E+00 0.  1.
         11    1    1    2    0    0  0.75099233131E+01 -0.40569474309E+02  0.16862026409E+02  0.44571393612E+02  0.00000000000E+00 0. -1.
<mgrwt>
<rscale>  0 0.11602766E+03</rscale>
<asrwt>0</asrwt>
<pdfrwt beam="1">  1        1 0.29452782E-01 0.12538135E+03</pdfrwt>
<pdfrwt beam="2">  1       -1 0.97608267E-02 0.12538135E+03</pdfrwt>
<totfact> 0.92067780E+03</totfact>
</mgrwt>
</event>
<event>
 7    1  0.7800420E-006  0.1425702E+03  0.7546771E-02  0.1230219E+00
         -2   -1    0    0    0  501 -0.00000000000E+00  0.00000000000E+00  0.45871959734E+02  0.45871959734E+02  0.00000000000E+00 0.  1.
          2   -1    0    0  501    0  0.00000000000E+00 -0.00000000000E+00 -0.30381888941E+03  0.30381888941E+03  0.00000000000E+00 0. -1.
         23    2    1    2    0    0 -0.17153569680E+02 -0.66386583975E+02 -0.16658060512E+03  0.21926092920E+03  0.12499933435E+03 0.  0.
          5    1    3    3  502    0  0.13084937979E+02  0.33846118721E+02 -0.56129922343E+02  0.67003235270E+02  0.47000000000E+01 0. -1.
         -5    1    3    3    0  502 -0.30238507658E+02 -0.10023270270E+03 -0.11045068278E+03  0.15225769393E+03  0.47000000000E+01 0. -1.
        -11    1    1    2    0    0  0.26991467815E+00 -0.11329773307E+02 -0.22645874289E+02  0.25323353637E+02  0.00000000000E+00 0.  1.
         11    1    1    2    0    0  0.16883655002E+02  0.77716357282E+02 -0.68720450263E+02  0.10510656630E+03  0.00000000000E+00 0. -1.
<mgrwt>
<rscale>  0 0.12815552E+03</rscale>
<asrwt>0</asrwt>
<pdfrwt beam="2">  1        2 0.46741368E-01 0.14257018E+03</pdfrwt>
<pdfrwt beam="1">  1       -2 0.70572245E-02 0.14257018E+03</pdfrwt>
<totfact> 0.11753288E+04</totfact>
</mgrwt>
</event>
<event>
 7    1  0.7800420E-006  0.1608286E+03  0.7546771E-02  0.1195402E+00
          1   -1    0    0  501    0  0.00000000000E+00  0.00000000000E+00  0.12615635924E+04  0.12615635924E+04  0.00000000000E+00 0. -1.
         -1   -1    0    0    0  501 -0.00000000000E+00 -0.00000000000E+00 -0.18164213340E+02  0.18164213340E+02  0.00000000000E+00 0.  1.
         23    2    1    2    0    0 -0.50694970839E+02  0.87571220864E+02  0.79827494624E+03  0.81431487936E+03  0.12500853633E+03 0.  0.
          5    1    3    3  502    0 -0.70359982415E+02  0.73692587084E+02  0.33011029111E+03  0.34550834840E+03  0.47000000000E+01 0.  1.
         -5    1    3    3    0  502  0.19665011576E+02  0.13878633780E+02  0.46816465513E+03  0.46880653096E+03  0.47000000000E+01 0.  1.
        -11    1    1    2    0    0  0.23505837408E+01 -0.35806630145E+02  0.38358161948E+02  0.52526075375E+02  0.00000000000E+00 0.  1.
         11    1    1    2    0    0  0.48344387098E+02 -0.51764590719E+02  0.40676627082E+03  0.41288685096E+03  0.00000000000E+00 0. -1.
<mgrwt>
<rscale>  0 0.15420231E+03</rscale>
<asrwt>0</asrwt>
<pdfrwt beam="1">  1        1 0.19408664E+00 0.16082858E+03</pdfrwt>
<pdfrwt beam="2">  1       -1 0.27944954E-02 0.16082858E+03</pdfrwt>
<totfact> 0.42931628E+03</totfact>
</mgrwt>
</event>
<event>
 7    1  0.7800420E-006  0.1381838E+03  0.7546771E-02  0.1227847E+00
         -3   -1    0    0    0  501 -0.00000000000E+00  0.00000000000E+00  0.64313616474E+02  0.64313616474E+02  0.00000000000E+00 0.  1.
          3   -1    0    0  501    0  0.00000000000E+00 -0.00000000000E+00 -0.24655468576E+03  0.24655468576E+03  0.00000000000E+00 0. -1.
         23    2    1    2    0    0  0.50294395025E+02  0.30664320045E+02 -0.13626598411E+03  0.19407002102E+03  0.12499971176E+03 0.  0.
          5    1    3    3  502    0  0.27462354317E+02  0.94043289755E+01  0.19406657892E+02  0.35232523024E+02  0.47000000000E+01 0. -1.
         -5    1    3    3    0  502  0.22832040708E+02  0.21259991070E+02 -0.15567264200E+03  0.15883749800E+03  0.47000000000E+01 0. -1.
        -11    1    1    2    0    0 -0.60201885174E+02 -0.34718302634E+02  0.10040801401E+00  0.69495594091E+02  0.00000000000E+00 0.  1.
         11    1    1    2    0    0  0.99074901490E+01  0.40539825890E+01 -0.46075493198E+02  0.47302687126E+02  0.00000000000E+00 0. -1.
<mgrwt>
<rscale>  0 0.12973664E+03</rscale>
<asrwt>0</asrwt>
<pdfrwt beam="2">  1        3 0.37931490E-01 0.13818377E+03</pdfrwt>
<pdfrwt beam="1">  1       -3 0.98944026E-02 0.13818377E+03</pdfrwt>
<totfact> 0.11938406E+03</totfact>
</mgrwt>
</event>
<event>
 7    1  0.7800420E-006  0.1178668E+03  0.7546771E-02  0.1256350E+00
         -1   -1    0    0    0  501 -0.00000000000E+00  0.00000000000E+00  0.21258212436E+02  0.21258212436E+02  0.00000000000E+00 0.  1.
          1   -1    0    0  501    0  0.00000000000E+00 -0.00000000000E+00 -0.63239510100E+03  0.63239510100E+03  0.00000000000E+00 0. -1.
         23    2    1    2    0    0 -0.98297140628E+01  0.34628733513E+02 -0.45272299285E+03  0.46781479935E+03  0.11223549249E+03 0.  0.
          5    1    3    3  502    0  0.14151528529E+02 -0.36499006847E+02 -0.21134923957E+03  0.21499542862E+03  0.47000000000E+01 0. -1.
         -5    1    3    3    0  502 -0.23981242592E+02  0.71127740360E+02 -0.24137375328E+03  0.25281937073E+03  0.47000000000E+01 0.  1.
        -11    1    1    2    0    0  0.32532769987E+02  0.39526560430E+01 -0.15834804918E+02  0.36397055645E+02  0.00000000000E+00 0.  1.
         11    1    1    2    0    0 -0.22703055924E+02 -0.38581389556E+02 -0.14257909080E+03  0.14944145844E+03  0.00000000000E+00 0. -1.
<mgrwt>
<rscale>  0 0.11231061E+03</rscale>
<asrwt>0</asrwt>
<pdfrwt beam="2">  1        1 0.97291556E-01 0.11786678E+03</pdfrwt>
<pdfrwt beam="1">  1       -1 0.32704941E-02 0.11786678E+03</pdfrwt>
<totfact> 0.10255453E+04</totfact>
</mgrwt>
</event>
<event>
 7    1  0.7800420E-006  0.1128160E+03  0.7546771E-02  0.1266380E+00
          1   -1    0    0  501    0  0.00000000000E+00  0.00000000000E+00  0.12673621669E+04  0.12673621669E+04  0.00000000000E+00 0. -1.
         -1   -1    0    0    0  501 -0.00000000000E+00 -0.00000000000E+00 -0.11097214281E+02  0.11097214281E+02  0.00000000000E+00 0.  1.
         23    2    1    2    0    0 -0.98287941210E+01  0.38047578178E+01  0.10031944710E+04  0.10095179979E+04  0.11232257135E+03 0.  0.
          5    1    3    3  502    0  0.12526342374E+02  0.49689684121E+02  0.71116550886E+03  0.71302485578E+03  0.47000000000E+01 0. -1.
         -5    1    3    3    0  502 -0.22355136495E+02 -0.45884926304E+02  0.29202896211E+03  0.29649314209E+03  0.47000000000E+01 0.  1.
        -11    1    1    2    0    0  0.11253114999E+02  0.42461885475E+02  0.14111639140E+03  0.14779539992E+03  0.00000000000E+00 0. -1.
         11    1    1    2    0    0 -0.14243208779E+01 -0.46266643292E+02  0.11195409020E+03  0.12114598336E+03  0.00000000000E+00 0.  1.
<mgrwt>
<rscale>  0 0.10692104E+03</rscale>
<asrwt>0</asrwt>
<pdfrwt beam="1">  1        1 0.19497868E+00 0.11281596E+03</pdfrwt>
<pdfrwt beam="2">  1       -1 0.17072647E-02 0.11281596E+03</pdfrwt>
<totfact> 0.85510553E+03</totfact>
</mgrwt>
</event>
<event>
 6    1  0.7800420E-006  0.1370357E+03  0.7546771E-02  0.1232398E+00
         -2   -1    0    0    0  501 -0.00000000000E+00  0.00000000000E+00  0.23129642388E+03  0.23129642388E+03  0.00000000000E+00 0.  1.
          2   -1    0    0  501    0  0.00000000000E+00 -0.00000000000E+00 -0.65619888234E+02  0.65619888234E+02  0.00000000000E+00 0. -1.
          5    1    1    2  502    0  0.77423698546E+02 -0.10923866465E+02  0.12724852691E+02  0.79358501946E+02  0.47000000000E+01 0. -1.
         -5    1    1    2    0  502 -0.49882051484E+02  0.19050046624E+02  0.42418564026E+02  0.68356037851E+02  0.47000000000E+01 0.  1.
        -11    1    1    2    0    0 -0.21685169704E+02  0.42956743662E+02  0.62133129392E+02  0.78587875523E+02  0.00000000000E+00 0.  1.
         11    1    1    2    0    0 -0.58564773585E+01 -0.51082923822E+02  0.48399989538E+02  0.70613896795E+02  0.00000000000E+00 0. -1.
<mgrwt>
<rscale>  0 0.12672477E+03</rscale>
<asrwt>0</asrwt>
<pdfrwt beam="2">  1        2 0.10095368E-01 0.13703572E+03</pdfrwt>
<pdfrwt beam="1">  1       -2 0.35584065E-01 0.13703572E+03</pdfrwt>
<totfact> 0.44956311E+03</totfact>
</mgrwt>
</event>
<event>
 7    1  0.7800420E-006  0.4566880E+03  0.7546771E-02  0.1025746E+00
          2   -1    0    0  501    0  0.00000000000E+00  0.00000000000E+00  0.59755051190E+03  0.59755051190E+03  0.00000000000E+00 0.  1.
         -2   -1    0    0    0  501 -0.00000000000E+00 -0.00000000000E+00 -0.87257873723E+02  0.87257873723E+02  0.00000000000E+00 0. -1.
         23    2    1    2    0    0 -0.14292732541E+03 -0.82499971474E+01  0.40893889466E+03  0.45094582632E+03  0.12499934362E+03 0.  0.
          5    1    3    3  502    0 -0.50711070472E+01 -0.42090081401E+02  0.14596819999E+03  0.15207266844E+03  0.47000000000E+01 0.  1.
         -5    1    3    3    0  502 -0.13785621836E+03  0.33840084254E+02  0.26297069467E+03  0.29887315788E+03  0.47000000000E+01 0.  1.
        -11    1    1    2    0    0  0.56586207618E+02  0.20946579228E+02  0.12892090502E+03  0.14234239644E+03  0.00000000000E+00 0.  1.
         11    1    1    2    0    0  0.86341117788E+02 -0.12696582080E+02 -0.27567161501E+02  0.91520162864E+02  0.00000000000E+00 0. -1.
<mgrwt>
<rscale>  0 0.45668802E+03</rscale>
<asrwt>0</asrwt>
<pdfrwt beam="1">  1        2 0.91930845E-01 0.45668802E+03</pdfrwt>
<pdfrwt beam="2">  1       -2 0.13424289E-01 0.45668802E+03</pdfrwt>
<totfact> 0.20972460E+03</totfact>
</mgrwt>
</event>
<event>
 7    1  0.7800420E-006  0.1549684E+03  0.7546771E-02  0.1200596E+00
         -1   -1    0    0    0  501 -0.00000000000E+00  0.00000000000E+00  0.14857743050E+03  0.14857743050E+03  0.00000000000E+00 0.  1.
          1   -1    0    0  501    0  0.00000000000E+00 -0.00000000000E+00 -0.14227909998E+03  0.14227909998E+03  0.00000000000E+00 0. -1.
         23    2    1    2    0    0 -0.12149112159E+01 -0.91584782424E+02  0.80590633047E+01  0.15517777990E+03  0.12500378591E+03 0.  0.
          5    1    3    3  502    0 -0.51359909508E+02 -0.11782192036E+02 -0.20265488180E+02  0.56651922871E+02  0.47000000000E+01 0.  1.
         -5    1    3    3    0  502  0.50144998292E+02 -0.79802590388E+02  0.28324551485E+02  0.98525857028E+02  0.47000000000E+01 0.  1.
        -11    1    1    2    0    0  0.40615363881E+02  0.72574381432E+02  0.21820108732E+02  0.85981194273E+02  0.00000000000E+00 0.  1.
         11    1    1    2    0    0 -0.39400452665E+02  0.19010400992E+02 -0.23580841525E+02  0.49697556309E+02  0.00000000000E+00 0. -1.
<mgrwt>
<rscale>  0 0.14989982E+03</rscale>
<asrwt>0</asrwt>
<pdfrwt beam="2">  1        1 0.21889092E-01 0.15496837E+03</pdfrwt>
<pdfrwt beam="1">  1       -1 0.22858066E-01 0.15496837E+03</pdfrwt>
<totfact> 0.35597184E+03</totfact>
</mgrwt>
</event>
<event>
 7    1  0.7800420E-006  0.1391553E+03  0.7546771E-02  0.1224981E+00
         -2   -1    0    0    0  501 -0.00000000000E+00  0.00000000000E+00  0.37774056380E+02  0.37774056380E+02  0.00000000000E+00 0.  1.
          2   -1    0    0  501    0  0.00000000000E+00 -0.00000000000E+00 -0.80657341340E+03  0.80657341340E+03  0.00000000000E+00 0. -1.
         23    2    1    2    0    0 -0.55312960751E+02  0.26069433322E+02 -0.69903070090E+03  0.71274688119E+03  0.12500022749E+03 0.  0.
          5    1    3    3  502    0 -0.29546764630E+02 -0.44152311260E+02 -0.16304254066E+03  0.17154415745E+03  0.47000000000E+01 0.  1.
         -5    1    3    3    0  502 -0.25766196121E+02  0.70221744582E+02 -0.53598816024E+03  0.54120272375E+03  0.47000000000E+01 0.  1.
        -11    1    1    2    0    0  0.11011603984E+02 -0.19933298418E+01  0.23245765357E+02  0.25799116132E+02  0.00000000000E+00 0.  1.
         11    1    1    2    0    0  0.44301356767E+02 -0.24076103480E+02 -0.93014421478E+02  0.10580147245E+03  0.00000000000E+00 0. -1.
<mgrwt>
<rscale>  0 0.13168174E+03</rscale>
<asrwt>0</asrwt>
<pdfrwt beam="2">  1        2 0.12408822E+00 0.13915529E+03</pdfrwt>
<pdfrwt beam="1">  1       -2 0.58113931E-02 0.13915529E+03</pdfrwt>
<totfact> 0.53044548E+03</totfact>
</mgrwt>
</event>
<event>
 7    1  0.7800420E-006  0.1759702E+03  0.7546771E-02  0.1177090E+00
         -1   -1    0    0    0  501 -0.00000000000E+00  0.00000000000E+00  0.61196667631E+02  0.61196667631E+02  0.00000000000E+00 0.  1.
          1   -1    0    0  501    0  0.00000000000E+00 -0.00000000000E+00 -0.45427842131E+03  0.45427842131E+03  0.00000000000E+00 0. -1.
         23    2    1    2    0    0 -0.57912726072E+02 -0.10949232482E+03 -0.23329352831E+03  0.29221801048E+03  0.12499216882E+03 0.  0.
          5    1    3    3  502    0  0.44323590922E+01 -0.11273198824E+03 -0.15988899611E+03  0.19574148271E+03  0.47000000000E+01 0.  1.
         -5    1    3    3    0  502 -0.62345085164E+02  0.32396634182E+01 -0.73404532201E+02  0.96476527771E+02  0.47000000000E+01 0.  1.
        -11    1    1    2    0    0  0.56367033191E+02  0.37553683582E+02 -0.28376784235E+02  0.73435437391E+02  0.00000000000E+00 0.  1.
         11    1    1    2    0    0  0.15456928807E+01  0.71938641238E+02 -0.13141144113E+03  0.14982164106E+03  0.00000000000E+00 0. -1.
<mgrwt>
<rscale>  0 0.17072834E+03</rscale>
<asrwt>0</asrwt>
<pdfrwt beam="2">  1        1 0.69888990E-01 0.17597015E+03</pdfrwt>
<pdfrwt beam="1">  1       -1 0.94148717E-02 0.17597015E+03</pdfrwt>
<totfact> 0.33694270E+03</totfact>
</mgrwt>
</event>
<event>
 7    1  0.7800420E-006  0.1282429E+03  0.7546771E-02  0.1244163E+00
         -2   -1    0    0    0  501 -0.00000000000E+00  0.00000000000E+00  0.10163870671E+03  0.10163870671E+03  0.00000000000E+00 0.  1.
          2   -1    0    0  501    0  0.00000000000E+00 -0.00000000000E+00 -0.18546255801E+03  0.18546255801E+03  0.00000000000E+00 0. -1.
         23    2    1    2    0    0 -0.12588546475E+02 -0.25320216476E+02 -0.12802721209E+03  0.18121037834E+03  0.12508656730E+03 0.  0.
          5    1    3    3  502    0 -0.57259250405E+02 -0.17735317994E+02 -0.19013159635E+02  0.63061505695E+02  0.47000000000E+01 0. -1.
         -5    1    3    3    0  502  0.44670703930E+02 -0.75848984828E+01 -0.10901405246E+03  0.11814887265E+03  0.47000000000E+01 0. -1.
        -11    1    1    2    0    0 -0.15450345345E+02  0.11861235969E+02  0.65409103009E+02  0.68247731438E+02  0.00000000000E+00 0.  1.
         11    1    1    2    0    0  0.28038891820E+02  0.13458980507E+02 -0.21205742212E+02  0.37643154936E+02  0.00000000000E+00 0. -1.
<mgrwt>
<rscale>  0 0.11935623E+03</rscale>
<asrwt>0</asrwt>
<pdfrwt beam="2">  1        2 0.28532701E-01 0.12824287E+03</pdfrwt>
<pdfrwt beam="1">  1       -2 0.15636724E-01 0.12824287E+03</pdfrwt>
<totfact> 0.56249456E+03</totfact>
</mgrwt>
</event>
<event>
 7    1  0.7800420E-006  0.1564012E+03  0.7546771E-02  0.1200832E+00
          2   -1    0    0  501    0  0.00000000000E+00  0.00000000000E+00  0.10094126749E+04  0.10094126749E+04  0.00000000000E+00 0. -1.
         -2   -1    0    0    0  501 -0.00000000000E+00 -0.00000000000E+00 -0.30715562632E+02  0.30715562632E+02  0.00000000000E+00 0.  1.
         23    2    1    2    0    0  0.66016971780E+02 -0.66914202405E+02  0.81700349341E+03  0.83183894807E+03  0.12500230490E+03 0.  0.
          5    1    3    3  502    0 -0.29213131636E+02 -0.38052500696E+02  0.15326251643E+03  0.16066390015E+03  0.47000000000E+01 0. -1.
         -5    1    3    3    0  502  0.95230103416E+02 -0.28861701709E+02  0.66374097698E+03  0.67117504792E+03  0.47000000000E+01 0. -1.
        -11    1    1    2    0    0 -0.43630233557E+02 -0.15174272347E+02  0.58623620272E+02  0.74636349558E+02  0.00000000000E+00 0.  1.
         11    1    1    2    0    0 -0.22386738223E+02  0.82088474752E+02  0.10306999855E+03  0.13365293987E+03  0.00000000000E+00 0. -1.
<mgrwt>
<rscale>  0 0.14970831E+03</rscale>
<asrwt>0</asrwt>
<pdfrwt beam="1">  1        2 0.15529423E+00 0.15640117E+03</pdfrwt>
<pdfrwt beam="2">  1       -2 0.47254719E-02 0.15640117E+03</pdfrwt>
<totfact> 0.54205958E+03</totfact>
</mgrwt>
</event>
<event>
 7    1  0.7800420E-006  0.1475727E+03  0.7546771E-02  0.1213021E+00
         -2   -1    0    0    0  501 -0.00000000000E+00  0.00000000000E+00  0.20711993265E+02  0.20711993265E+02  0.00000000000E+00 0.  1.
          2   -1    0    0  501    0  0.00000000000E+00 -0.00000000000E+00 -0.91407474539E+03  0.91407474539E+03  0.00000000000E+00 0. -1.
         23    2    1    2    0    0  0.75128006191E+02 -0.22643113896E+02 -0.59614657131E+03  0.61414039444E+03  0.12498304557E+03 0.  0.
          5    1    3    3  502    0  0.18364261875E+01 -0.21843693832E+02 -0.12065298826E+02  0.25459396245E+02  0.47000000000E+01 0.  1.
         -5    1    3    3    0  502  0.73291580004E+02 -0.79942006332E+00 -0.58408127249E+03  0.58868099820E+03  0.47000000000E+01 0.  1.
        -11    1    1    2    0    0 -0.97700482079E+01  0.17696835113E+02 -0.45368669216E+01  0.20717504108E+02  0.00000000000E+00 0.  1.
         11    1    1    2    0    0 -0.65357957984E+02  0.49462787822E+01 -0.29267931389E+03  0.29992884010E+03  0.00000000000E+00 0. -1.
<mgrwt>
<rscale>  0 0.14022900E+03</rscale>
<asrwt>0</asrwt>
<pdfrwt beam="2">  1        2 0.14062687E+00 0.14757266E+03</pdfrwt>
<pdfrwt beam="1">  1       -2 0.31864609E-02 0.14757266E+03</pdfrwt>
<totfact> 0.11116961E+04</totfact>
</mgrwt>
</event>
<event>
 7    1  0.7800420E-006  0.1707425E+03  0.7546771E-02  0.1183036E+00
         -2   -1    0    0    0  501 -0.00000000000E+00  0.00000000000E+00  0.13378741890E+03  0.13378741890E+03  0.00000000000E+00 0.  1.
          2   -1    0    0  501    0  0.00000000000E+00 -0.00000000000E+00 -0.22122021550E+03  0.22122021550E+03  0.00000000000E+00 0. -1.
         23    2    1    2    0    0  0.73861278201E+02  0.89845569758E+02 -0.11124595475E+03  0.20378579166E+03  0.12500108645E+03 0.  0.
          5    1    3    3  502    0  0.18303212038E+02 -0.16336871690E+01 -0.93241946483E+02  0.95151600557E+02  0.47000000000E+01 0.  1.
         -5    1    3    3    0  502  0.55558066163E+02  0.91479256927E+02 -0.18004008267E+02  0.10863419111E+03  0.47000000000E+01 0.  1.
        -11    1    1    2    0    0 -0.24700178017E+02 -0.84844334816E+01  0.46644428940E+02  0.53458274913E+02  0.00000000000E+00 0.  1.
         11    1    1    2    0    0 -0.49161100185E+02 -0.81361136277E+02 -0.22831270795E+02  0.97763567824E+02  0.00000000000E+00 0. -1.
<mgrwt>
<rscale>  0 0.16511884E+03</rscale>
<asrwt>0</asrwt>
<pdfrwt beam="2">  1        2 0.34033879E-01 0.17074246E+03</pdfrwt>
<pdfrwt beam="1">  1       -2 0.20582680E-01 0.17074246E+03</pdfrwt>
<totfact> 0.29811665E+03</totfact>
</mgrwt>
</event>
<event>
 7    1  0.7800420E-006  0.1733100E+03  0.7546771E-02  0.1180518E+00
          2   -1    0    0  501    0  0.00000000000E+00  0.00000000000E+00  0.12863248646E+04  0.12863248646E+04  0.00000000000E+00 0. -1.
         -2   -1    0    0    0  501 -0.00000000000E+00 -0.00000000000E+00 -0.21567288927E+02  0.21567288927E+02  0.00000000000E+00 0.  1.
         23    2    1    2    0    0 -0.19725859660E+02  0.11841365404E+03  0.82183499337E+03  0.83991018951E+03  0.12500186846E+03 0.  0.
          5    1    3    3  502    0 -0.63878275275E+02  0.10854844533E+03  0.65321860285E+03  0.66526673759E+03  0.47000000000E+01 0. -1.
         -5    1    3    3    0  502  0.44152415615E+02  0.98652087162E+01  0.16861639052E+03  0.17464345192E+03  0.47000000000E+01 0. -1.
        -11    1    1    2    0    0  0.53425693191E+02 -0.88765362635E+02  0.34585014191E+03  0.36103450660E+03  0.00000000000E+00 0. -1.
         11    1    1    2    0    0 -0.33699833531E+02 -0.29648291407E+02  0.97072440404E+02  0.10694745742E+03  0.00000000000E+00 0.  1.
<mgrwt>
<rscale>  0 0.16746467E+03</rscale>
<asrwt>0</asrwt>
<pdfrwt beam="1">  1        2 0.19789607E+00 0.17331004E+03</pdfrwt>
<pdfrwt beam="2">  1       -2 0.33180455E-02 0.17331004E+03</pdfrwt>
<totfact> 0.64148903E+03</totfact>
</mgrwt>
</event>
<event>
 7    1  0.7800420E-006  0.3011795E+03  0.7546771E-02  0.1086263E+00
          2   -1    0    0  501    0  0.00000000000E+00  0.00000000000E+00  0.15880448425E+04  0.15880448425E+04  0.00000000000E+00 0. -1.
         -2   -1    0    0    0  501 -0.00000000000E+00 -0.00000000000E+00 -0.60682316402E+02  0.60682316402E+02  0.00000000000E+00 0.  1.
         23    2    1    2    0    0 -0.22721713119E+02  0.27306448069E+03  0.10362831653E+04  0.10791625961E+04  0.12501449195E+03 0.  0.
          5    1    3    3  502    0 -0.35175628557E+02  0.24265050853E+03  0.70926531986E+03  0.75046384196E+03  0.47000000000E+01 0.  1.
         -5    1    3    3    0  502  0.12453915438E+02  0.30413972156E+02  0.32701784544E+03  0.32869875410E+03  0.47000000000E+01 0.  1.
        -11    1    1    2    0    0 -0.14586501960E+02 -0.54112636841E+02  0.17116962896E+03  0.18011103626E+03  0.00000000000E+00 0. -1.
         11    1    1    2    0    0  0.37308215078E+02 -0.21895184385E+03  0.31990973182E+03  0.38945352656E+03  0.00000000000E+00 0.  1.
<mgrwt>
<rscale>  0 0.29796398E+03</rscale>
<asrwt>0</asrwt>
<pdfrwt beam="1">  1        2 0.24431456E+00 0.30117953E+03</pdfrwt>
<pdfrwt beam="2">  1       -2 0.93357422E-02 0.30117953E+03</pdfrwt>
<totfact> 0.90577654E+02</totfact>
</mgrwt>
</event>
<event>
 7    1  0.7800420E-006  0.1329190E+03  0.7546771E-02  0.1237113E+00
         -1   -1    0    0    0  501 -0.00000000000E+00  0.00000000000E+00  0.18279322512E+02  0.18279322512E+02  0.00000000000E+00 0.  1.
          1   -1    0    0  501    0  0.00000000000E+00 -0.00000000000E+00 -0.84370316274E+03  0.84370316274E+03  0.00000000000E+00 0. -1.
         23    2    1    2    0    0  0.35223900700E+01 -0.45050427884E+02 -0.61404736498E+03  0.62826874758E+03  0.12500201784E+03 0.  0.
          5    1    3    3  502    0 -0.15971531461E+02 -0.85196618693E+02 -0.44352725722E+03  0.45194255337E+03  0.47000000000E+01 0.  1.
         -5    1    3    3    0  502  0.19493921531E+02  0.40146190809E+02 -0.17052010776E+03  0.17632619421E+03  0.47000000000E+01 0.  1.
        -11    1    1    2    0    0 -0.10223163091E+02 -0.20503240610E+02 -0.17164381044E+02  0.28627118536E+02  0.00000000000E+00 0.  1.
         11    1    1    2    0    0  0.67007730206E+01  0.65553668493E+02 -0.19421209420E+03  0.20508661913E+03  0.00000000000E+00 0. -1.
<mgrwt>
<rscale>  0 0.12370150E+03</rscale>
<asrwt>0</asrwt>
<pdfrwt beam="2">  1        1 0.12980048E+00 0.13291897E+03</pdfrwt>
<pdfrwt beam="1">  1       -1 0.28122036E-02 0.13291897E+03</pdfrwt>
<totfact> 0.84717787E+03</totfact>
</mgrwt>
</event>
<event>
 7    1  0.7800420E-006  0.2512288E+03  0.7546771E-02  0.1115132E+00
         -2   -1    0    0    0  501 -0.00000000000E+00  0.00000000000E+00  0.11287709356E+03  0.11287709356E+03  0.00000000000E+00 0.  1.
          2   -1    0    0  501    0  0.00000000000E+00 -0.00000000000E+00 -0.56066452302E+03  0.56066452302E+03  0.00000000000E+00 0. -1.
         23    2    1    2    0    0  0.21709305506E+03  0.19041645549E+02 -0.14483819040E+03  0.28998966619E+03  0.12499570505E+03 0.  0.
          5    1    3    3  502    0  0.70454795248E+02  0.66513405148E+02 -0.57760181495E+02  0.11289924625E+03  0.47000000000E+01 0.  1.
         -5    1    3    3    0  502  0.14663825981E+03 -0.47471759599E+02 -0.87078008901E+02  0.17709041994E+03  0.47000000000E+01 0.  1.
        -11    1    1    2    0    0 -0.67927427397E+02 -0.82459749205E+01 -0.35401844350E+02  0.77041690522E+02  0.00000000000E+00 0.  1.
         11    1    1    2    0    0 -0.14916562766E+03 -0.10795670628E+02 -0.26754739472E+03  0.30651025986E+03  0.00000000000E+00 0. -1.
<mgrwt>
<rscale>  0 0.24713026E+03</rscale>
<asrwt>0</asrwt>
<pdfrwt beam="2">  1        2 0.86256082E-01 0.25122879E+03</pdfrwt>
<pdfrwt beam="1">  1       -2 0.17365706E-01 0.25122879E+03</pdfrwt>
<totfact> 0.14601065E+03</totfact>
</mgrwt>
</event>
<event>
 7    1  0.7800420E-006  0.1643092E+03  0.7546771E-02  0.1193521E+00
          2   -1    0    0  501    0  0.00000000000E+00  0.00000000000E+00  0.51074281594E+03  0.51074281594E+03  0.00000000000E+00 0. -1.
         -2   -1    0    0    0  501 -0.00000000000E+00 -0.00000000000E+00 -0.44711125690E+02  0.44711125690E+02  0.00000000000E+00 0.  1.
         23    2    1    2    0    0  0.33293927699E+01 -0.10659280697E+03  0.30736953025E+03  0.34853053797E+03  0.12499758563E+03 0.  0.
          5    1    3    3  502    0  0.16885296492E+02 -0.10025882194E+03  0.10746860636E+03  0.14801532342E+03  0.47000000000E+01 0.  1.
         -5    1    3    3    0  502 -0.13555903722E+02 -0.63339850362E+01  0.19990092389E+03  0.20051521455E+03  0.47000000000E+01 0.  1.
        -11    1    1    2    0    0  0.13769174538E+02  0.23788652272E+02  0.39719873004E+00  0.27489050751E+02  0.00000000000E+00 0.  1.
         11    1    1    2    0    0 -0.17098567308E+02  0.82804154703E+02  0.15826496127E+03  0.17943435291E+03  0.00000000000E+00 0. -1.
<mgrwt>
<rscale>  0 0.15580085E+03</rscale>
<asrwt>0</asrwt>
<pdfrwt beam="1">  1        2 0.78575814E-01 0.16430918E+03</pdfrwt>
<pdfrwt beam="2">  1       -2 0.68786351E-02 0.16430918E+03</pdfrwt>
<totfact> 0.70533357E+03</totfact>
</mgrwt>
</event>
<event>
 7    1  0.7800420E-006  0.1567686E+03  0.7546771E-02  0.1201407E+00
          2   -1    0    0  501    0  0.00000000000E+00  0.00000000000E+00  0.19176943545E+03  0.19176943545E+03  0.00000000000E+00 0. -1.
         -2   -1    0    0    0  501 -0.00000000000E+00 -0.00000000000E+00 -0.12773784800E+03  0.12773784800E+03  0.00000000000E+00 0.  1.
         23    2    1    2    0    0 -0.93850082610E+02 -0.11936994042E+02  0.99835360246E+02  0.18585882436E+03  0.12500429435E+03 0.  0.
          5    1    3    3  502    0 -0.10805068795E+03 -0.92467594203E+01  0.27544581895E+02  0.11198771236E+03  0.47000000000E+01 0. -1.
         -5    1    3    3    0  502  0.14200605343E+02 -0.26902346215E+01  0.72290778351E+02  0.73871112006E+02  0.47000000000E+01 0. -1.
        -11    1    1    2    0    0  0.43999297109E+02  0.45371649558E+02 -0.37702744088E+02  0.73593625006E+02  0.00000000000E+00 0.  1.
         11    1    1    2    0    0  0.49850785502E+02 -0.33434655516E+02  0.18989712900E+01  0.60054834082E+02  0.00000000000E+00 0. -1.
<mgrwt>
<rscale>  0 0.14924247E+03</rscale>
<asrwt>0</asrwt>
<pdfrwt beam="1">  1        2 0.29502990E-01 0.15676863E+03</pdfrwt>
<pdfrwt beam="2">  1       -2 0.19651977E-01 0.15676863E+03</pdfrwt>
<totfact> 0.37506787E+03</totfact>
</mgrwt>
</event>
<event>
 6    1  0.7800420E-006  0.1394375E+03  0.7546771E-02  0.1230546E+00
         -1   -1    0    0    0  501 -0.00000000000E+00  0.00000000000E+00  0.38980781374E+03  0.38980781374E+03  0.00000000000E+00 0.  1.
          1   -1    0    0  501    0  0.00000000000E+00 -0.00000000000E+00 -0.64300372258E+02  0.64300372258E+02  0.00000000000E+00 0. -1.
          5    1    1    2  502    0  0.66718033597E+02 -0.52068468809E+02 -0.36094313250E+01  0.84838313548E+02  0.47000000000E+01 0. -1.
         -5    1    1    2    0  502 -0.42137794093E+02  0.20141770438E+02  0.33765373680E+02  0.57822790205E+02  0.47000000000E+01 0.  1.
        -11    1    1    2    0    0  0.18792011817E+02 -0.21480183395E+02  0.63844601342E+02  0.69933333306E+02  0.00000000000E+00 0. -1.
         11    1    1    2    0    0 -0.43372251321E+02  0.53406881766E+02  0.23150689779E+03  0.24151374894E+03  0.00000000000E+00 0.  1.
<mgrwt>
<rscale>  0 0.12793917E+03</rscale>
<asrwt>0</asrwt>
<pdfrwt beam="2">  1        1 0.98923652E-02 0.13943748E+03</pdfrwt>
<pdfrwt beam="1">  1       -1 0.59970432E-01 0.13943748E+03</pdfrwt>
<totfact> 0.18464961E+03</totfact>
</mgrwt>
</event>
<event>
 7    1  0.7800420E-006  0.1299681E+03  0.7546771E-02  0.1238312E+00
          1   -1    0    0  501    0  0.00000000000E+00  0.00000000000E+00  0.43627511968E+03  0.43627511968E+03  0.00000000000E+00 0. -1.
         -1   -1    0    0    0  501 -0.00000000000E+00 -0.00000000000E+00 -0.31427611404E+02  0.31427611404E+02  0.00000000000E+00 0.  1.
         23    2    1    2    0    0  0.13219814100E+02  0.48291657596E+02  0.23282910665E+03  0.26664787484E+03  0.11993685246E+03 0.  0.
          5    1    3    3  502    0  0.49683698091E+02  0.70262726064E+02  0.13974877290E+03  0.16418626635E+03  0.47000000000E+01 0. -1.
         -5    1    3    3    0  502 -0.36463883991E+02 -0.21971068467E+02  0.93080333744E+02  0.10246160849E+03  0.47000000000E+01 0.  1.
        -11    1    1    2    0    0  0.13403237812E+02 -0.29657028329E+01 -0.63332394688E+01  0.15117939651E+02  0.00000000000E+00 0.  1.
         11    1    1    2    0    0 -0.26623051912E+02 -0.45325954763E+02  0.17835164110E+03  0.18593691659E+03  0.00000000000E+00 0. -1.
<mgrwt>
<rscale>  0 0.12294750E+03</rscale>
<asrwt>0</asrwt>
<pdfrwt beam="1">  1        1 0.67119245E-01 0.12996806E+03</pdfrwt>
<pdfrwt beam="2">  1       -1 0.48350175E-02 0.12996806E+03</pdfrwt>
<totfact> 0.94969285E+03</totfact>
</mgrwt>
</event>
<event>
 6    1  0.7800420E-006  0.1416792E+03  0.7546771E-02  0.1229563E+00
         -1   -1    0    0    0  501 -0.00000000000E+00  0.00000000000E+00  0.19085879893E+03  0.19085879893E+03  0.00000000000E+00 0.  1.
          1   -1    0    0  501    0  0.00000000000E+00 -0.00000000000E+00 -0.49919317331E+03  0.49919317331E+03  0.00000000000E+00 0. -1.
          5    1    1    2  502    0  0.49181794593E+02  0.25449749405E+02 -0.42307008409E+03  0.42670472779E+03  0.47000000000E+01 0. -1.
         -5    1    1    2    0  502 -0.45479938861E+02 -0.83434189338E+00 -0.53006770880E+02  0.70006633431E+02  0.47000000000E+01 0.  1.
        -11    1    1    2    0    0  0.39478069932E+02  0.78792662522E+01  0.53432373433E+02  0.66900070052E+02  0.00000000000E+00 0. -1.
         11    1    1    2    0    0 -0.43179925664E+02 -0.32494673764E+02  0.11431010715E+03  0.12644054097E+03  0.00000000000E+00 0.  1.
<mgrwt>
<rscale>  0 0.12858981E+03</rscale>
<asrwt>0</asrwt>
<pdfrwt beam="2">  1        1 0.76798949E-01 0.14167923E+03</pdfrwt>
<pdfrwt beam="1">  1       -1 0.29362892E-01 0.14167923E+03</pdfrwt>
<totfact> 0.48597403E+02</totfact>
</mgrwt>
</event>
<event>
 7    1  0.7800420E-006  0.1381788E+03  0.7546771E-02  0.1224508E+00
         -2   -1    0    0    0  501 -0.00000000000E+00  0.00000000000E+00  0.18290227593E+03  0.18290227593E+03  0.00000000000E+00 0.  1.
          2   -1    0    0  501    0  0.00000000000E+00 -0.00000000000E+00 -0.12274618958E+03  0.12274618958E+03  0.00000000000E+00 0. -1.
         23    2    1    2    0    0  0.46416910124E+02  0.66566407936E+02 -0.49402746756E+02  0.14674468142E+03  0.11183807012E+03 0.  0.
          5    1    3    3  502    0  0.45162807811E+02  0.86291973286E+01 -0.71002832431E+02  0.84720921083E+02  0.47000000000E+01 0. -1.
         -5    1    3    3    0  502  0.12541023133E+01  0.57937210608E+02  0.21600085675E+02  0.62023760341E+02  0.47000000000E+01 0.  1.
        -11    1    1    2    0    0 -0.25211570670E+02 -0.81085366217E+02  0.63035514775E+02  0.10575413010E+03  0.00000000000E+00 0.  1.
         11    1    1    2    0    0 -0.21205339455E+02  0.14518958281E+02  0.46523318332E+02  0.53149653993E+02  0.00000000000E+00 0. -1.
<mgrwt>
<rscale>  0 0.13200695E+03</rscale>
<asrwt>0</asrwt>
<pdfrwt beam="2">  1        2 0.18884029E-01 0.13817876E+03</pdfrwt>
<pdfrwt beam="1">  1       -2 0.28138812E-01 0.13817876E+03</pdfrwt>
<totfact> 0.32839384E+03</totfact>
</mgrwt>
</event>
<event>
 7    1  0.7800420E-006  0.1504590E+03  0.7546771E-02  0.1208448E+00
         -2   -1    0    0    0  501 -0.00000000000E+00  0.00000000000E+00  0.30392814105E+02  0.30392814105E+02  0.00000000000E+00 0.  1.
          2   -1    0    0  501    0  0.00000000000E+00 -0.00000000000E+00 -0.64199932589E+03  0.64199932589E+03  0.00000000000E+00 0. -1.
         23    2    1    2    0    0 -0.69958440221E+02 -0.46045575731E+02 -0.38785194963E+03  0.41601326084E+03  0.12499407970E+03 0.  0.
          5    1    3    3  502    0  0.87347983731E+01 -0.50135871090E+02 -0.26572430463E+03  0.27059452756E+03  0.47000000000E+01 0. -1.
         -5    1    3    3    0  502 -0.78693238594E+02  0.40902953587E+01 -0.12212764499E+03  0.14541873328E+03  0.47000000000E+01 0. -1.
        -11    1    1    2    0    0  0.22469227224E+02  0.95310914819E+01  0.34635381441E+00  0.24409584958E+02  0.00000000000E+00 0.  1.
         11    1    1    2    0    0  0.47489212997E+02  0.36514484249E+02 -0.22410091598E+03  0.23196929420E+03  0.00000000000E+00 0. -1.
<mgrwt>
<rscale>  0 0.14368997E+03</rscale>
<asrwt>0</asrwt>
<pdfrwt beam="2">  1        2 0.98769114E-01 0.15045896E+03</pdfrwt>
<pdfrwt beam="1">  1       -2 0.46758182E-02 0.15045896E+03</pdfrwt>
<totfact> 0.97256381E+03</totfact>
</mgrwt>
</event>
<event>
 7    1  0.7800420E-006  0.1315145E+03  0.7546771E-02  0.1238079E+00
         -1   -1    0    0    0  501 -0.00000000000E+00  0.00000000000E+00  0.93569731069E+02  0.93569731069E+02  0.00000000000E+00 0.  1.
          1   -1    0    0  501    0  0.00000000000E+00 -0.00000000000E+00 -0.21914233161E+03  0.21914233161E+03  0.00000000000E+00 0. -1.
         23    2    1    2    0    0 -0.36093131702E+02 -0.18714281210E+02 -0.15904418711E+03  0.20637617751E+03  0.12507251782E+03 0.  0.
          5    1    3    3  502    0 -0.54160980845E+02  0.40039168295E+01 -0.16719941037E+03  0.17586124082E+03  0.47000000000E+01 0. -1.
         -5    1    3    3    0  502  0.18067849143E+02 -0.22718198039E+02  0.81552232567E+01  0.30514936690E+02  0.47000000000E+01 0. -1.
        -11    1    1    2    0    0  0.24443665342E+02  0.11128835452E+02 -0.30633927301E+02  0.40740413053E+02  0.00000000000E+00 0. -1.
         11    1    1    2    0    0  0.11649466360E+02  0.75854457576E+01  0.64105513869E+02  0.65595472116E+02  0.00000000000E+00 0.  1.
<mgrwt>
<rscale>  0 0.12309374E+03</rscale>
<asrwt>0</asrwt>
<pdfrwt beam="2">  1        1 0.33714205E-01 0.13151454E+03</pdfrwt>
<pdfrwt beam="1">  1       -1 0.14395343E-01 0.13151454E+03</pdfrwt>
<totfact> 0.42946837E+03</totfact>
</mgrwt>
</event>
<event>
 7    1  0.7842302E-006  0.3473827E+03  0.7546771E-02  0.1064722E+00
         -1   -1    0    0    0  501 -0.00000000000E+00  0.00000000000E+00  0.90832624003E+02  0.90832624003E+02  0.00000000000E+00 0.  1.
          1   -1    0    0  501    0  0.00000000000E+00 -0.00000000000E+00 -0.14025569077E+04  0.14025569077E+04  0.00000000000E+00 0. -1.
         23    2    1    2    0    0  0.30800303851E+03  0.10091846446E+03 -0.87463183337E+03  0.94109275154E+03  0.12499725941E+03 0.  0.
          5    1    3    3  502    0  0.85634006296E+02 -0.31886248994E+00 -0.37781399603E+03  0.38742585136E+03  0.47000000000E+01 0. -1.
         -5    1    3    3    0  502  0.22236903222E+03  0.10123732695E+03 -0.49681783734E+03  0.55366690018E+03  0.47000000000E+01 0. -1.
        -11    1    1    2    0    0 -0.24147210534E+03 -0.35697336443E+02 -0.30492936752E+03  0.39059569463E+03  0.00000000000E+00 0.  1.
         11    1    1    2    0    0 -0.66530933173E+02 -0.65221128012E+02 -0.13216308284E+03  0.16170108557E+03  0.00000000000E+00 0. -1.
<mgrwt>
<rscale>  0 0.34491383E+03</rscale>
<asrwt>0</asrwt>
<pdfrwt beam="2">  1        1 0.21577800E+00 0.34738268E+03</pdfrwt>
<pdfrwt beam="1">  1       -1 0.13974249E-01 0.34738268E+03</pdfrwt>
<totfact> 0.29739824E+02</totfact>
</mgrwt>
</event>
<event>
 7    1  0.7800420E-006  0.1276714E+03  0.7546771E-02  0.1246412E+00
          1   -1    0    0  501    0  0.00000000000E+00  0.00000000000E+00  0.50524203044E+03  0.50524203044E+03  0.00000000000E+00 0. -1.
         -1   -1    0    0    0  501 -0.00000000000E+00 -0.00000000000E+00 -0.26956083832E+02  0.26956083832E+02  0.00000000000E+00 0.  1.
         23    2    1    2    0    0  0.14501882097E+02 -0.21584363880E+02  0.35762969138E+03  0.37973542346E+03  0.12499522521E+03 0.  0.
          5    1    3    3  502    0 -0.53396542567E+02 -0.25777139348E+02  0.16782271848E+03  0.17805113454E+03  0.47000000000E+01 0. -1.
         -5    1    3    3    0  502  0.67898424664E+02  0.41927754686E+01  0.18980697290E+03  0.20168428892E+03  0.47000000000E+01 0. -1.
        -11    1    1    2    0    0 -0.23279901349E+02  0.48310719956E+02  0.39599821932E+02  0.66663523508E+02  0.00000000000E+00 0.  1.
         11    1    1    2    0    0  0.87780192522E+01 -0.26726356077E+02  0.81056433294E+02  0.85799167300E+02  0.00000000000E+00 0. -1.
<mgrwt>
<rscale>  0 0.11801268E+03</rscale>
<asrwt>0</asrwt>
<pdfrwt beam="1">  1        1 0.77729536E-01 0.12767144E+03</pdfrwt>
<pdfrwt beam="2">  1       -1 0.41470902E-02 0.12767144E+03</pdfrwt>
<totfact> 0.98417503E+03</totfact>
</mgrwt>
</event>
<event>
 6    1  0.7800420E-006  0.2035861E+03  0.7546771E-02  0.1180842E+00
          1   -1    0    0  501    0  0.00000000000E+00  0.00000000000E+00  0.78171497755E+03  0.78171497755E+03  0.00000000000E+00 0. -1.
         -1   -1    0    0    0  501 -0.00000000000E+00 -0.00000000000E+00 -0.32922057210E+02  0.32922057210E+02  0.00000000000E+00 0.  1.
          5    1    1    2  502    0  0.50310607944E+02 -0.77670179177E+02  0.22295127573E+03  0.24143979654E+03  0.47000000000E+01 0. -1.
         -5    1    1    2    0  502 -0.69667436347E+02  0.78848158766E+02  0.41816627848E+03  0.43122582284E+03  0.47000000000E+01 0.  1.
        -11    1    1    2    0    0  0.54656744942E+02 -0.24171672846E+01  0.48792663649E+02  0.73307069859E+02  0.00000000000E+00 0. -1.
         11    1    1    2    0    0 -0.35299916539E+02  0.12391876962E+01  0.58882702491E+02  0.68664345525E+02  0.00000000000E+00 0.  1.
<mgrwt>
<rscale>  0 0.16716002E+03</rscale>
<asrwt>0</asrwt>
<pdfrwt beam="1">  1        1 0.12026383E+00 0.20358614E+03</pdfrwt>
<pdfrwt beam="2">  1       -1 0.50649325E-02 0.20358614E+03</pdfrwt>
<totfact> 0.40773983E+03</totfact>
</mgrwt>
</event>
<event>
 7    1  0.7800420E-006  0.1813670E+03  0.7546771E-02  0.1171990E+00
          1   -1    0    0  501    0  0.00000000000E+00  0.00000000000E+00  0.15116838066E+03  0.15116838066E+03  0.00000000000E+00 0. -1.
         -1   -1    0    0    0  501 -0.00000000000E+00 -0.00000000000E+00 -0.24903672072E+03  0.24903672072E+03  0.00000000000E+00 0.  1.
         23    2    1    2    0    0  0.22102285923E+02  0.12954920685E+03  0.43802783927E+02  0.18658156025E+03  0.12498994642E+03 0.  0.
          5    1    3    3  502    0 -0.38509606275E+02  0.85597231050E+02 -0.96434540529E+01  0.94472016729E+02  0.47000000000E+01 0.  1.
         -5    1    3    3    0  502  0.60611892198E+02  0.43951975801E+02  0.53446237980E+02  0.92109543516E+02  0.47000000000E+01 0.  1.
        -11    1    1    2    0    0  0.34353430675E+02 -0.52474173036E+02 -0.71330689105E+02  0.94982968174E+02  0.00000000000E+00 0.  1.
         11    1    1    2    0    0 -0.56455716598E+02 -0.77075033814E+02 -0.70340434876E+02  0.11864057296E+03  0.00000000000E+00 0. -1.
<mgrwt>
<rscale>  0 0.17574096E+03</rscale>
<asrwt>0</asrwt>
<pdfrwt beam="1">  1        1 0.23256674E-01 0.18136702E+03</pdfrwt>
<pdfrwt beam="2">  1       -1 0.38313341E-01 0.18136702E+03</pdfrwt>
<totfact> 0.13866040E+03</totfact>
</mgrwt>
</event>
<event>
 6    1  0.7800420E-006  0.1917560E+03  0.7546771E-02  0.1167600E+00
          2   -1    0    0  501    0  0.00000000000E+00  0.00000000000E+00  0.64473124911E+03  0.64473124911E+03  0.00000000000E+00 0. -1.
         -2   -1    0    0    0  501 -0.00000000000E+00 -0.00000000000E+00 -0.47211330607E+02  0.47211330607E+02  0.00000000000E+00 0.  1.
          5    1    1    2  502    0 -0.54407609834E+02  0.11418370964E+03  0.29393477990E+03  0.32002789314E+03  0.47000000000E+01 0. -1.
         -5    1    1    2    0  502  0.63476437453E+02  0.44343185660E+01  0.11144326242E+03  0.12841577797E+03  0.47000000000E+01 0.  1.
        -11    1    1    2    0    0 -0.43298591627E+02 -0.91425320482E+02  0.15976613875E+03  0.18909938221E+03  0.00000000000E+00 0.  1.
         11    1    1    2    0    0  0.34229764007E+02 -0.27192707720E+02  0.32375737430E+02  0.54399526388E+02  0.00000000000E+00 0. -1.
<mgrwt>
<rscale>  0 0.18020955E+03</rscale>
<asrwt>0</asrwt>
<pdfrwt beam="1">  1        2 0.99189417E-01 0.19175601E+03</pdfrwt>
<pdfrwt beam="2">  1       -2 0.72632821E-02 0.19175601E+03</pdfrwt>
<totfact> 0.50106945E+03</totfact>
</mgrwt>
</event>
<event>
 7    1  0.7800420E-006  0.2094001E+03  0.7546771E-02  0.1144357E+00
         -2   -1    0    0    0  501 -0.00000000000E+00  0.00000000000E+00  0.54727138762E+02  0.54727138762E+02  0.00000000000E+00 0.  1.
          2   -1    0    0  501    0  0.00000000000E+00 -0.00000000000E+00 -0.77059627602E+03  0.77059627602E+03  0.00000000000E+00 0. -1.
         23    2    1    2    0    0 -0.12605150167E+03 -0.12163935365E+03 -0.41932633856E+03  0.46870349587E+03  0.11473131830E+03 0.  0.
          5    1    3    3  502    0 -0.86236451117E+02 -0.95761152051E+02 -0.39423776379E+03  0.41479202999E+03  0.47000000000E+01 0. -1.
         -5    1    3    3    0  502 -0.39815050557E+02 -0.25878201603E+02 -0.25088574763E+02  0.53911465874E+02  0.47000000000E+01 0.  1.
        -11    1    1    2    0    0  0.92876612039E+02  0.26508056366E+02 -0.16072554642E+03  0.18751384852E+03  0.00000000000E+00 0. -1.
         11    1    1    2    0    0  0.33174889635E+02  0.95131297289E+02 -0.13581725228E+03  0.16910607039E+03  0.00000000000E+00 0.  1.
<mgrwt>
<rscale>  0 0.20651373E+03</rscale>
<asrwt>0</asrwt>
<pdfrwt beam="2">  1        2 0.11855327E+00 0.20940007E+03</pdfrwt>
<pdfrwt beam="1">  1       -2 0.84195599E-02 0.20940007E+03</pdfrwt>
<totfact> 0.32181726E+03</totfact>
</mgrwt>
</event>
<event>
 7    1  0.7800420E-006  0.1255318E+03  0.7546771E-02  0.1249918E+00
          1   -1    0    0  501    0  0.00000000000E+00  0.00000000000E+00  0.44055838150E+03  0.44055838150E+03  0.00000000000E+00 0. -1.
         -1   -1    0    0    0  501 -0.00000000000E+00 -0.00000000000E+00 -0.27819791122E+02  0.27819791122E+02  0.00000000000E+00 0.  1.
         23    2    1    2    0    0  0.11510616111E+02  0.87013629607E+00  0.28387342082E+03  0.31039064960E+03  0.12499993955E+03 0.  0.
          5    1    3    3  502    0  0.24878959492E+02 -0.53706221816E+02  0.20506508898E+03  0.21348794253E+03  0.47000000000E+01 0.  1.
         -5    1    3    3    0  502 -0.13368343381E+02  0.54576358112E+02  0.78808331842E+02  0.96902707069E+02  0.47000000000E+01 0.  1.
        -11    1    1    2    0    0 -0.31330949593E-01  0.24353363299E+02  0.12796325721E+03  0.13026005713E+03  0.00000000000E+00 0. -1.
         11    1    1    2    0    0 -0.11479285161E+02 -0.25223499595E+02  0.90191234913E+00  0.27727465905E+02  0.00000000000E+00 0.  1.
<mgrwt>
<rscale>  0 0.11595808E+03</rscale>
<asrwt>0</asrwt>
<pdfrwt beam="1">  1        1 0.67778207E-01 0.12553181E+03</pdfrwt>
<pdfrwt beam="2">  1       -1 0.42799682E-02 0.12553181E+03</pdfrwt>
<totfact> 0.11194778E+04</totfact>
</mgrwt>
</event>
<event>
 7    1  0.7800420E-006  0.1396219E+03  0.7546771E-02  0.1226042E+00
          1   -1    0    0  501    0  0.00000000000E+00  0.00000000000E+00  0.70665030645E+03  0.70665030645E+03  0.00000000000E+00 0. -1.
         -1   -1    0    0    0  501 -0.00000000000E+00 -0.00000000000E+00 -0.47380869027E+02  0.47380869027E+02  0.00000000000E+00 0.  1.
         23    2    1    2    0    0  0.42023848179E+02  0.40824576397E+02  0.62539058959E+03  0.64078674668E+03  0.12673442833E+03 0.  0.
          5    1    3    3  502    0  0.46773087791E+02  0.78478099513E+02  0.53301563092E+03  0.54080891879E+03  0.47000000000E+01 0. -1.
         -5    1    3    3    0  502 -0.47492396117E+01 -0.37653523116E+02  0.92374958668E+02  0.99977827887E+02  0.47000000000E+01 0.  1.
        -11    1    1    2    0    0  0.26571173599E+02  0.28379594323E+01  0.73679414892E+01  0.27719448803E+02  0.00000000000E+00 0. -1.
         11    1    1    2    0    0 -0.68595021778E+02 -0.43662535829E+02  0.26510906351E+02  0.85524979996E+02  0.00000000000E+00 0.  1.
<mgrwt>
<rscale>  0 0.13095717E+03</rscale>
<asrwt>0</asrwt>
<pdfrwt beam="1">  1        1 0.10871542E+00 0.13962186E+03</pdfrwt>
<pdfrwt beam="2">  1       -1 0.72893650E-02 0.13962186E+03</pdfrwt>
<totfact> 0.27097450E+03</totfact>
</mgrwt>
</event>
<event>
 7    1  0.7800420E-006  0.1489510E+03  0.7546771E-02  0.1211635E+00
          2   -1    0    0  501    0  0.00000000000E+00  0.00000000000E+00  0.17868810941E+04  0.17868810941E+04  0.00000000000E+00 0. -1.
         -2   -1    0    0    0  501 -0.00000000000E+00 -0.00000000000E+00 -0.33680496280E+02  0.33680496280E+02  0.00000000000E+00 0.  1.
         23    2    1    2    0    0  0.63637128558E+02  0.50115717066E+02  0.16639418616E+04  0.16705953778E+04  0.12500051425E+03 0.  0.
          5    1    3    3  502    0  0.98871778727E+02  0.17467521827E+02  0.10857208193E+04  0.10903634854E+04  0.47000000000E+01 0.  1.
         -5    1    3    3    0  502 -0.35234650169E+02  0.32648195238E+02  0.57822104229E+03  0.58023189241E+03  0.47000000000E+01 0.  1.
        -11    1    1    2    0    0  0.20276669405E+02 -0.67303337853E+01  0.21573067172E+01  0.21473115454E+02  0.00000000000E+00 0. -1.
         11    1    1    2    0    0 -0.83913797963E+02 -0.43385383280E+02  0.87101429533E+02  0.12849309708E+03  0.00000000000E+00 0.  1.
<mgrwt>
<rscale>  0 0.14126632E+03</rscale>
<asrwt>0</asrwt>
<pdfrwt beam="1">  1        2 0.27490471E+00 0.14895099E+03</pdfrwt>
<pdfrwt beam="2">  1       -2 0.51816162E-02 0.14895099E+03</pdfrwt>
<totfact> 0.17958186E+03</totfact>
</mgrwt>
</event>
<event>
 7    1  0.7800420E-006  0.1507708E+03  0.7546771E-02  0.1207723E+00
          1   -1    0    0  501    0  0.00000000000E+00  0.00000000000E+00  0.17459849016E+03  0.17459849016E+03  0.00000000000E+00 0. -1.
         -1   -1    0    0    0  501 -0.00000000000E+00 -0.00000000000E+00 -0.14621545855E+03  0.14621545855E+03  0.00000000000E+00 0.  1.
         23    2    1    2    0    0 -0.34917065079E+02 -0.76726518999E+02  0.94791127506E+02  0.17809325295E+03  0.12500275493E+03 0.  0.
          5    1    3    3  502    0  0.47216990742E+02 -0.28948756788E+02  0.37207015573E+02  0.66887418414E+02  0.47000000000E+01 0.  1.
         -5    1    3    3    0  502 -0.82134055821E+02 -0.47777762212E+02  0.57584111933E+02  0.11120583454E+03  0.47000000000E+01 0.  1.
        -11    1    1    2    0    0 -0.67350645915E+01  0.61184785803E+02 -0.75429021982E+02  0.97357467438E+02  0.00000000000E+00 0.  1.
         11    1    1    2    0    0  0.41652129670E+02  0.15541733197E+02  0.90209260785E+01  0.45363228326E+02  0.00000000000E+00 0. -1.
<mgrwt>
<rscale>  0 0.14424949E+03</rscale>
<asrwt>0</asrwt>
<pdfrwt beam="1">  1        1 0.26861306E-01 0.15077085E+03</pdfrwt>
<pdfrwt beam="2">  1       -1 0.22494686E-01 0.15077085E+03</pdfrwt>
<totfact> 0.28185588E+03</totfact>
</mgrwt>
</event>
<event>
 7    1  0.7800420E-006  0.1354193E+03  0.7546771E-02  0.1232180E+00
         -1   -1    0    0    0  501 -0.00000000000E+00  0.00000000000E+00  0.33700690874E+02  0.33700690874E+02  0.00000000000E+00 0. -1.
          1   -1    0    0  501    0  0.00000000000E+00 -0.00000000000E+00 -0.46881975915E+03  0.46881975915E+03  0.00000000000E+00 0.  1.
         23    2    1    2    0    0  0.42481969294E+02 -0.30149946103E+02 -0.31827074818E+03  0.34588242243E+03  0.12499857613E+03 0.  0.
          5    1    3    3  502    0  0.75068274520E+02  0.93238054596E+00 -0.11348388256E+03  0.13614990552E+03  0.47000000000E+01 0.  1.
         -5    1    3    3    0  502 -0.32586305226E+02 -0.31082326649E+02 -0.20478686562E+03  0.20973251691E+03  0.47000000000E+01 0.  1.
        -11    1    1    2    0    0  0.81933066390E+01 -0.92567217790E+01  0.90484943862E+01  0.15319674358E+02  0.00000000000E+00 0. -1.
         11    1    1    2    0    0 -0.50675275933E+02  0.39406667882E+02 -0.12589681449E+03  0.14131835324E+03  0.00000000000E+00 0.  1.
<mgrwt>
<rscale>  0 0.12686700E+03</rscale>
<asrwt>0</asrwt>
<pdfrwt beam="2">  1        1 0.72126112E-01 0.13541928E+03</pdfrwt>
<pdfrwt beam="1">  1       -1 0.51847220E-02 0.13541928E+03</pdfrwt>
<totfact> 0.78333666E+03</totfact>
</mgrwt>
</event>
<event>
 7    1  0.7800420E-006  0.1304421E+03  0.7546771E-02  0.1240119E+00
          2   -1    0    0  501    0  0.00000000000E+00  0.00000000000E+00  0.54341457300E+02  0.54341457300E+02  0.00000000000E+00 0. -1.
         -2   -1    0    0    0  501 -0.00000000000E+00 -0.00000000000E+00 -0.25394787320E+03  0.25394787320E+03  0.00000000000E+00 0.  1.
         23    2    1    2    0    0 -0.29098221007E+02  0.23456284170E+02 -0.80589088200E+02  0.15332888696E+03  0.12497296790E+03 0.  0.
          5    1    3    3  502    0 -0.42268565757E+01  0.52671403892E+02  0.10767426876E+02  0.54131050110E+02  0.47000000000E+01 0. -1.
         -5    1    3    3    0  502 -0.24871364432E+02 -0.29215119722E+02 -0.91356515075E+02  0.99197836850E+02  0.47000000000E+01 0. -1.
        -11    1    1    2    0    0  0.26306401367E+02  0.28844459274E+02 -0.82017307481E+02  0.90834290387E+02  0.00000000000E+00 0.  1.
         11    1    1    2    0    0  0.27918196404E+01 -0.52300743445E+02 -0.37000020214E+02  0.64126153149E+02  0.00000000000E+00 0. -1.
<mgrwt>
<rscale>  0 0.12182313E+03</rscale>
<asrwt>0</asrwt>
<pdfrwt beam="1">  1        2 0.83602242E-02 0.13044212E+03</pdfrwt>
<pdfrwt beam="2">  1       -2 0.39068903E-01 0.13044212E+03</pdfrwt>
<totfact> 0.47520597E+03</totfact>
</mgrwt>
</event>
<event>
 7    1  0.7800420E-006  0.2477001E+03  0.7546771E-02  0.1117629E+00
         -1   -1    0    0    0  501 -0.00000000000E+00  0.00000000000E+00  0.58500940144E+02  0.58500940144E+02  0.00000000000E+00 0.  1.
          1   -1    0    0  501    0  0.00000000000E+00 -0.00000000000E+00 -0.29908687649E+04  0.29908687649E+04  0.00000000000E+00 0. -1.
         23    2    1    2    0    0 -0.16802359586E+03  0.13227321627E+03 -0.27342523633E+04  0.27454492038E+04  0.12500884760E+03 0.  0.
          5    1    3    3  502    0 -0.46670158677E+02 -0.21608587396E+02 -0.55464233018E+03  0.55704150580E+03  0.47000000000E+01 0. -1.
         -5    1    3    3    0  502 -0.12135343718E+03  0.15388180366E+03 -0.21796100331E+04  0.21884076980E+04  0.47000000000E+01 0. -1.
        -11    1    1    2    0    0  0.14657128705E+03 -0.67284095402E+02 -0.15009999039E+03  0.22031863016E+03  0.00000000000E+00 0.  1.
         11    1    1    2    0    0  0.21452308810E+02 -0.64989120864E+02 -0.48015471053E+02  0.83601871058E+02  0.00000000000E+00 0. -1.
<mgrwt>
<rscale>  0 0.24327630E+03</rscale>
<asrwt>0</asrwt>
<pdfrwt beam="2">  1        1 0.46013370E+00 0.24770011E+03</pdfrwt>
<pdfrwt beam="1">  1       -1 0.90001437E-02 0.24770011E+03</pdfrwt>
<totfact> 0.53287782E+01</totfact>
</mgrwt>
</event>
<event>
 7    1  0.7800420E-006  0.1344855E+03  0.7546771E-02  0.1231487E+00
         -4   -1    0    0    0  501 -0.00000000000E+00  0.00000000000E+00  0.92093470525E+02  0.92093470525E+02  0.00000000000E+00 0.  1.
          4   -1    0    0  501    0  0.00000000000E+00 -0.00000000000E+00 -0.15988760276E+03  0.15988760276E+03  0.00000000000E+00 0. -1.
         23    2    1    2    0    0 -0.49602849664E+02  0.96766541943E+00 -0.42254088646E+02  0.14096719751E+03  0.12499985478E+03 0.  0.
          5    1    3    3  502    0 -0.86623907697E+01 -0.51280693237E+02 -0.52022454677E+02  0.73710055646E+02  0.47000000000E+01 0.  1.
         -5    1    3    3    0  502 -0.40940458894E+02  0.52248358657E+02  0.97683660302E+01  0.67257141864E+02  0.47000000000E+01 0.  1.
        -11    1    1    2    0    0 -0.15755039759E+02 -0.14357774921E+02  0.20800784149E+02  0.29783210030E+02  0.00000000000E+00 0.  1.
         11    1    1    2    0    0  0.65357889423E+02  0.13390109501E+02 -0.46340827739E+02  0.81230665747E+02  0.00000000000E+00 0. -1.
<mgrwt>
<rscale>  0 0.12732061E+03</rscale>
<asrwt>0</asrwt>
<pdfrwt beam="2">  1        4 0.24598093E-01 0.13448547E+03</pdfrwt>
<pdfrwt beam="1">  1       -4 0.14168226E-01 0.13448547E+03</pdfrwt>
<totfact> 0.10593182E+03</totfact>
</mgrwt>
</event>
<event>
 7    1  0.7800420E-006  0.2199415E+03  0.7546771E-02  0.1137295E+00
          1   -1    0    0  501    0  0.00000000000E+00  0.00000000000E+00  0.49079383727E+03  0.49079383727E+03  0.00000000000E+00 0. -1.
         -1   -1    0    0    0  501 -0.00000000000E+00 -0.00000000000E+00 -0.16938566412E+03  0.16938566412E+03  0.00000000000E+00 0.  1.
         23    2    1    2    0    0 -0.18071424601E+03  0.96331452450E+01  0.38873366944E+03  0.44664096114E+03  0.12499538480E+03 0.  0.
          5    1    3    3  502    0 -0.14865535243E+03  0.59509883211E+02  0.27341327121E+03  0.31688601559E+03  0.47000000000E+01 0.  1.
         -5    1    3    3    0  502 -0.32058893583E+02 -0.49876737966E+02  0.11532039823E+03  0.12975494555E+03  0.47000000000E+01 0.  1.
        -11    1    1    2    0    0  0.40975693462E+02 -0.69878302535E+00  0.22916976292E+02  0.46954057916E+02  0.00000000000E+00 0. -1.
         11    1    1    2    0    0  0.13973855255E+03 -0.89343622196E+01 -0.90242472576E+02  0.16658448233E+03  0.00000000000E+00 0.  1.
<mgrwt>
<rscale>  0 0.21548435E+03</rscale>
<asrwt>0</asrwt>
<pdfrwt beam="1">  1        1 0.75506744E-01 0.21994154E+03</pdfrwt>
<pdfrwt beam="2">  1       -1 0.26059333E-01 0.21994154E+03</pdfrwt>
<totfact> 0.60479066E+02</totfact>
</mgrwt>
</event>
<event>
 7    1  0.7800420E-006  0.1529738E+03  0.7546771E-02  0.1204913E+00
         -4   -1    0    0    0  501 -0.00000000000E+00  0.00000000000E+00  0.71638643646E+03  0.71638643646E+03  0.00000000000E+00 0.  1.
          4   -1    0    0  501    0  0.00000000000E+00 -0.00000000000E+00 -0.27647665322E+02  0.27647665322E+02  0.00000000000E+00 0. -1.
         23    2    1    2    0    0  0.13153638006E+02 -0.87190168045E+02  0.37000263025E+03  0.40037848794E+03  0.12500337442E+03 0.  0.
          5    1    3    3  502    0  0.51448798689E+02 -0.24546323141E+02  0.27134886669E+03  0.27731173491E+03  0.47000000000E+01 0.  1.
         -5    1    3    3    0  502 -0.38295160683E+02 -0.62643844904E+02  0.98653763563E+02  0.12306675303E+03  0.47000000000E+01 0.  1.
        -11    1    1    2    0    0  0.19075313794E+02  0.92708157294E+02  0.25545516306E+03  0.27242615580E+03  0.00000000000E+00 0.  1.
         11    1    1    2    0    0 -0.32228951800E+02 -0.55179892491E+01  0.63280977818E+02  0.71229458043E+02  0.00000000000E+00 0. -1.
<mgrwt>
<rscale>  0 0.14644331E+03</rscale>
<asrwt>0</asrwt>
<pdfrwt beam="2">  1        4 0.42534875E-02 0.15297381E+03</pdfrwt>
<pdfrwt beam="1">  1       -4 0.11021328E+00 0.15297381E+03</pdfrwt>
<totfact> 0.35888835E+02</totfact>
</mgrwt>
</event>
<event>
 7    1  0.7800420E-006  0.1495586E+03  0.7546771E-02  0.1210615E+00
          1   -1    0    0  501    0  0.00000000000E+00  0.00000000000E+00  0.13036052188E+03  0.13036052188E+03  0.00000000000E+00 0. -1.
         -1   -1    0    0    0  501 -0.00000000000E+00 -0.00000000000E+00 -0.15667521499E+03  0.15667521499E+03  0.00000000000E+00 0.  1.
         23    2    1    2    0    0 -0.25617105421E+02  0.78046992452E+02  0.30698402754E+02  0.15267669722E+03  0.12498084981E+03 0.  0.
          5    1    3    3  502    0 -0.56178927921E+02  0.92936361925E+02  0.32767545186E+01  0.10874771920E+03  0.47000000000E+01 0. -1.
         -5    1    3    3    0  502  0.30561822500E+02 -0.14889369474E+02  0.27421648235E+02  0.43928978019E+02  0.47000000000E+01 0. -1.
        -11    1    1    2    0    0  0.32809239158E+02 -0.32793616773E+02  0.15217452020E+02  0.48820470309E+02  0.00000000000E+00 0. -1.
         11    1    1    2    0    0 -0.71921337367E+01 -0.45253375679E+02 -0.72230547882E+02  0.85538569344E+02  0.00000000000E+00 0.  1.
<mgrwt>
<rscale>  0 0.14203590E+03</rscale>
<asrwt>0</asrwt>
<pdfrwt beam="1">  1        1 0.20055465E-01 0.14955862E+03</pdfrwt>
<pdfrwt beam="2">  1       -1 0.24103879E-01 0.14955862E+03</pdfrwt>
<totfact> 0.36409959E+03</totfact>
</mgrwt>
</event>
<event>
 7    1  0.7800420E-006  0.1825040E+03  0.7546771E-02  0.1170674E+00
         -1   -1    0    0    0  501 -0.00000000000E+00  0.00000000000E+00  0.41168402325E+03  0.41168402325E+03  0.00000000000E+00 0.  1.
          1   -1    0    0  501    0  0.00000000000E+00 -0.00000000000E+00 -0.19669870656E+03  0.19669870656E+03  0.00000000000E+00 0. -1.
         23    2    1    2    0    0 -0.13242995192E+03 -0.12029605752E+02 -0.13222224231E+03  0.22536730376E+03  0.12500118664E+03 0.  0.
          5    1    3    3  502    0 -0.11625146391E+03 -0.16325571199E+02 -0.29431602395E+02  0.12111662296E+03  0.47000000000E+01 0.  1.
         -5    1    3    3    0  502 -0.16178488004E+02  0.42959654463E+01 -0.10279063992E+03  0.10425068080E+03  0.47000000000E+01 0.  1.
        -11    1    1    2    0    0  0.42530799633E+02 -0.26353944789E+02  0.52517351097E+02  0.72536001335E+02  0.00000000000E+00 0. -1.
         11    1    1    2    0    0  0.89899152284E+02  0.38383550542E+02  0.29469020791E+03  0.31047942472E+03  0.00000000000E+00 0.  1.
<mgrwt>
<rscale>  0 0.17706531E+03</rscale>
<asrwt>0</asrwt>
<pdfrwt beam="2">  1        1 0.30261339E-01 0.18250397E+03</pdfrwt>
<pdfrwt beam="1">  1       -1 0.63336004E-01 0.18250397E+03</pdfrwt>
<totfact> 0.39501004E+02</totfact>
</mgrwt>
</event>
<event>
 7    1  0.7800420E-006  0.1393587E+03  0.7546771E-02  0.1225232E+00
          2   -1    0    0  501    0  0.00000000000E+00  0.00000000000E+00  0.15624507429E+03  0.15624507429E+03  0.00000000000E+00 0. -1.
         -2   -1    0    0    0  501 -0.00000000000E+00 -0.00000000000E+00 -0.10649025639E+03  0.10649025639E+03  0.00000000000E+00 0.  1.
         23    2    1    2    0    0  0.96825671755E+01  0.60846467511E+02  0.60035906081E+02  0.15174041509E+03  0.12499919534E+03 0.  0.
          5    1    3    3  502    0 -0.46577804846E+02  0.25194422796E+02  0.65947801504E+02  0.84708047832E+02  0.47000000000E+01 0. -1.
         -5    1    3    3    0  502  0.56260372021E+02  0.35652044715E+02 -0.59118954227E+01  0.67032367255E+02  0.47000000000E+01 0. -1.
        -11    1    1    2    0    0 -0.30054656285E+02 -0.72709369999E+01 -0.36608141764E+02  0.47919776008E+02  0.00000000000E+00 0.  1.
         11    1    1    2    0    0  0.20372089110E+02 -0.53575530511E+02  0.26327053580E+02  0.63075139591E+02  0.00000000000E+00 0. -1.
<mgrwt>
<rscale>  0 0.13150993E+03</rscale>
<asrwt>0</asrwt>
<pdfrwt beam="1">  1        2 0.24037704E-01 0.13935869E+03</pdfrwt>
<pdfrwt beam="2">  1       -2 0.16383116E-01 0.13935869E+03</pdfrwt>
<totfact> 0.63225606E+03</totfact>
</mgrwt>
</event>
<event>
 7    1  0.7800420E-006  0.1259643E+03  0.7546771E-02  0.1247048E+00
          1   -1    0    0  501    0  0.00000000000E+00  0.00000000000E+00  0.68361054995E+02  0.68361054995E+02  0.00000000000E+00 0. -1.
         -1   -1    0    0    0  501 -0.00000000000E+00 -0.00000000000E+00 -0.20167742087E+03  0.20167742087E+03  0.00000000000E+00 0.  1.
         23    2    1    2    0    0 -0.13173423393E+02 -0.82764970591E+01 -0.30711577015E+02  0.12965414571E+03  0.12499982820E+03 0.  0.
          5    1    3    3  502    0 -0.53502053769E+02 -0.42429005565E+02 -0.18962700688E+00  0.68445717391E+02  0.47000000000E+01 0.  1.
         -5    1    3    3    0  502  0.40328630376E+02  0.34152508505E+02 -0.30521950008E+02  0.61208428321E+02  0.47000000000E+01 0.  1.
        -11    1    1    2    0    0 -0.17218325903E+02  0.17596120565E+02 -0.10562168310E+03  0.10845291211E+03  0.00000000000E+00 0.  1.
         11    1    1    2    0    0  0.30391749296E+02 -0.93196235055E+01  0.30168942314E+01  0.31931418045E+02  0.00000000000E+00 0. -1.
<mgrwt>
<rscale>  0 0.11763619E+03</rscale>
<asrwt>0</asrwt>
<pdfrwt beam="1">  1        1 0.10517086E-01 0.12596427E+03</pdfrwt>
<pdfrwt beam="2">  1       -1 0.31027295E-01 0.12596427E+03</pdfrwt>
<totfact> 0.54725472E+03</totfact>
</mgrwt>
</event>
<event>
 7    1  0.7800420E-006  0.1275331E+03  0.7546771E-02  0.1246414E+00
          1   -1    0    0  501    0  0.00000000000E+00  0.00000000000E+00  0.61740514047E+02  0.61740514047E+02  0.00000000000E+00 0. -1.
         -1   -1    0    0    0  501 -0.00000000000E+00 -0.00000000000E+00 -0.24639413822E+03  0.24639413822E+03  0.00000000000E+00 0.  1.
         23    2    1    2    0    0 -0.24805530827E+02 -0.51355509407E+01 -0.35995787687E+02  0.13251565434E+03  0.12499205443E+03 0.  0.
          5    1    3    3  502    0 -0.57731018702E+02 -0.38540603113E+02 -0.47188714670E+02  0.84066125169E+02  0.47000000000E+01 0.  1.
         -5    1    3    3    0  502  0.32925487875E+02  0.33405052173E+02  0.11192926983E+02  0.48449529171E+02  0.47000000000E+01 0.  1.
        -11    1    1    2    0    0 -0.79820282099E+01 -0.24329523748E+02 -0.59908738067E+01  0.26296940299E+02  0.00000000000E+00 0. -1.
         11    1    1    2    0    0  0.32787559037E+02  0.29465074688E+02 -0.14266696268E+03  0.14932205763E+03  0.00000000000E+00 0.  1.
<mgrwt>
<rscale>  0 0.11801144E+03</rscale>
<asrwt>0</asrwt>
<pdfrwt beam="1">  1        1 0.94985406E-02 0.12753314E+03</pdfrwt>
<pdfrwt beam="2">  1       -1 0.37906790E-01 0.12753314E+03</pdfrwt>
<totfact> 0.44516028E+03</totfact>
</mgrwt>
</event>
<event>
 7    1  0.7800420E-006  0.2036756E+03  0.7546771E-02  0.1150827E+00
          4   -1    0    0  501    0  0.00000000000E+00  0.00000000000E+00  0.55201241300E+03  0.55201241300E+03  0.00000000000E+00 0. -1.
         -4   -1    0    0    0  501 -0.00000000000E+00 -0.00000000000E+00 -0.74344053168E+02  0.74344053168E+02  0.00000000000E+00 0.  1.
         23    2    1    2    0    0  0.10216551077E+03 -0.12419067964E+03  0.33914269682E+03  0.39560272349E+03  0.12499051775E+03 0.  0.
          5    1    3    3  502    0 -0.97415140244E+01 -0.83345323959E+02  0.12798036589E+03  0.15310912505E+03  0.47000000000E+01 0.  1.
         -5    1    3    3    0  502  0.11190702480E+03 -0.40845355682E+02  0.21116233093E+03  0.24249359844E+03  0.47000000000E+01 0.  1.
        -11    1    1    2    0    0 -0.45030525678E+02  0.40078328591E+02  0.17318180918E+01  0.60307709784E+02  0.00000000000E+00 0.  1.
         11    1    1    2    0    0 -0.57134985094E+02  0.84112351050E+02  0.13679384493E+03  0.17044603290E+03  0.00000000000E+00 0. -1.
<mgrwt>
<rscale>  0 0.19871540E+03</rscale>
<asrwt>0</asrwt>
<pdfrwt beam="1">  1        4 0.84924984E-01 0.20367559E+03</pdfrwt>
<pdfrwt beam="2">  1       -4 0.11437547E-01 0.20367559E+03</pdfrwt>
<totfact> 0.13370186E+02</totfact>
</mgrwt>
</event>
<event>
 7    1  0.7800420E-006  0.1355919E+03  0.7546771E-02  0.1230397E+00
         -1   -1    0    0    0  501 -0.00000000000E+00  0.00000000000E+00  0.18122028358E+02  0.18122028358E+02  0.00000000000E+00 0. -1.
          1   -1    0    0  501    0  0.00000000000E+00 -0.00000000000E+00 -0.11317494475E+04  0.11317494475E+04  0.00000000000E+00 0.  1.
         23    2    1    2    0    0  0.47177618765E+02 -0.23403684862E+02 -0.90434638087E+03  0.91445477343E+03  0.12494677217E+03 0.  0.
          5    1    3    3  502    0  0.90018729114E+02 -0.20046800939E+02 -0.62318640292E+03  0.62999097502E+03  0.47000000000E+01 0. -1.
         -5    1    3    3    0  502 -0.42841110349E+02 -0.33568839231E+01 -0.28115997795E+03  0.28446379841E+03  0.47000000000E+01 0. -1.
        -11    1    1    2    0    0 -0.28027754699E+02  0.32948413239E+02 -0.20960053406E+03  0.21401760873E+03  0.00000000000E+00 0.  1.
         11    1    1    2    0    0 -0.19149864066E+02 -0.95447283776E+01  0.31949578891E+00  0.21399093698E+02  0.00000000000E+00 0. -1.
<mgrwt>
<rscale>  0 0.12803761E+03</rscale>
<asrwt>0</asrwt>
<pdfrwt beam="2">  1        1 0.17411540E+00 0.13559187E+03</pdfrwt>
<pdfrwt beam="1">  1       -1 0.27880028E-02 0.13559187E+03</pdfrwt>
<totfact> 0.52604885E+03</totfact>
</mgrwt>
</event>
<event>
 7    1  0.7800420E-006  0.1216122E+03  0.7546771E-02  0.1251676E+00
         -1   -1    0    0    0  501 -0.00000000000E+00  0.00000000000E+00  0.75309826295E+02  0.75309826295E+02  0.00000000000E+00 0.  1.
          1   -1    0    0  501    0  0.00000000000E+00 -0.00000000000E+00 -0.18515599046E+03  0.18515599046E+03  0.00000000000E+00 0. -1.
         23    2    1    2    0    0 -0.27541461409E+02 -0.14417382278E+02 -0.10913802093E+03  0.16340326753E+03  0.11757179601E+03 0.  0.
          5    1    3    3  502    0 -0.63085451062E+02 -0.16062623070E+02 -0.10953951252E+03  0.12750990863E+03  0.47000000000E+01 0. -1.
         -5    1    3    3    0  502  0.35543989653E+02  0.16452407919E+01  0.40149158388E+00  0.35893358901E+02  0.47000000000E+01 0.  1.
        -11    1    1    2    0    0  0.59107600812E+02  0.15535399727E+02 -0.14155786353E+02  0.62733112514E+02  0.00000000000E+00 0.  1.
         11    1    1    2    0    0 -0.31566139403E+02 -0.11180174486E+01  0.13447643118E+02  0.34329436716E+02  0.00000000000E+00 0. -1.
<mgrwt>
<rscale>  0 0.11494572E+03</rscale>
<asrwt>0</asrwt>
<pdfrwt beam="2">  1        1 0.28485537E-01 0.12161217E+03</pdfrwt>
<pdfrwt beam="1">  1       -1 0.11586127E-01 0.12161217E+03</pdfrwt>
<totfact> 0.73680224E+03</totfact>
</mgrwt>
</event>
<event>
 7    1  0.7800420E-006  0.1526140E+03  0.7546771E-02  0.1205667E+00
          1   -1    0    0  501    0  0.00000000000E+00  0.00000000000E+00  0.62132864592E+02  0.62132864592E+02  0.00000000000E+00 0. -1.
         -1   -1    0    0    0  501 -0.00000000000E+00 -0.00000000000E+00 -0.31574688296E+03  0.31574688296E+03  0.00000000000E+00 0.  1.
         23    2    1    2    0    0 -0.42947787699E+02  0.76303570322E+02 -0.13094631262E+03  0.20109195011E+03  0.12499715316E+03 0.  0.
          5    1    3    3  502    0 -0.43253015987E+02  0.33694413059E+02  0.80682454375E+01  0.55617654102E+02  0.47000000000E+01 0. -1.
         -5    1    3    3    0  502  0.30522828832E+00  0.42609157263E+02 -0.13901455806E+03  0.14547429601E+03  0.47000000000E+01 0. -1.
        -11    1    1    2    0    0 -0.12442861522E+02 -0.40748869981E+01 -0.70849006076E+02  0.72048672221E+02  0.00000000000E+00 0.  1.
         11    1    1    2    0    0  0.55390649221E+02 -0.72228683324E+02 -0.51818699667E+02  0.10473912522E+03  0.00000000000E+00 0. -1.
<mgrwt>
<rscale>  0 0.14585024E+03</rscale>
<asrwt>0</asrwt>
<pdfrwt beam="1">  1        1 0.95589022E-02 0.15261401E+03</pdfrwt>
<pdfrwt beam="2">  1       -1 0.48576444E-01 0.15261401E+03</pdfrwt>
<totfact> 0.28707597E+03</totfact>
</mgrwt>
</event>
<event>
 7    1  0.7800420E-006  0.1487345E+03  0.7546771E-02  0.1212048E+00
          2   -1    0    0  501    0  0.00000000000E+00  0.00000000000E+00  0.34561006234E+03  0.34561006234E+03  0.00000000000E+00 0. -1.
         -2   -1    0    0    0  501 -0.00000000000E+00 -0.00000000000E+00 -0.54352270772E+02  0.54352270772E+02  0.00000000000E+00 0.  1.
         23    2    1    2    0    0 -0.80597916909E+02 -0.55424258847E+00  0.19989713336E+03  0.24916022342E+03  0.12500248643E+03 0.  0.
          5    1    3    3  502    0 -0.11828336545E+02  0.10217256993E+02  0.17396671767E+03  0.17473068060E+03  0.47000000000E+01 0. -1.
         -5    1    3    3    0  502 -0.68769580364E+02 -0.10771499582E+02  0.25930415692E+02  0.74429542822E+02  0.47000000000E+01 0. -1.
        -11    1    1    2    0    0  0.15288332345E+02 -0.29112177756E+00 -0.17878582488E+02  0.23525763953E+02  0.00000000000E+00 0.  1.
         11    1    1    2    0    0  0.65309584565E+02  0.84536436603E+00  0.10923924070E+03  0.12727634574E+03  0.00000000000E+00 0. -1.
<mgrwt>
<rscale>  0 0.14095594E+03</rscale>
<asrwt>0</asrwt>
<pdfrwt beam="1">  1        2 0.53170777E-01 0.14873451E+03</pdfrwt>
<pdfrwt beam="2">  1       -2 0.83618880E-02 0.14873451E+03</pdfrwt>
<totfact> 0.79127973E+03</totfact>
</mgrwt>
</event>
<event>
 7    1  0.7800420E-006  0.3142232E+03  0.7546771E-02  0.1079696E+00
         -2   -1    0    0    0  501 -0.00000000000E+00  0.00000000000E+00  0.17138165857E+03  0.17138165857E+03  0.00000000000E+00 0.  1.
          2   -1    0    0  501    0  0.00000000000E+00 -0.00000000000E+00 -0.60329057339E+03  0.60329057339E+03  0.00000000000E+00 0. -1.
         23    2    1    2    0    0 -0.23359869412E+03 -0.16894695315E+03 -0.32849075128E+03  0.45457937910E+03  0.12499926141E+03 0.  0.
          5    1    3    3  502    0 -0.12831584987E+03 -0.16400452162E+03 -0.22913326761E+03  0.30965559056E+03  0.47000000000E+01 0. -1.
         -5    1    3    3    0  502 -0.10528284425E+03 -0.49424315244E+01 -0.99357483672E+02  0.14492378854E+03  0.47000000000E+01 0. -1.
        -11    1    1    2    0    0  0.18909149945E+03  0.13195779909E+03 -0.11993683532E+03  0.25991017751E+03  0.00000000000E+00 0. -1.
         11    1    1    2    0    0  0.44507194668E+02  0.36989154051E+02  0.16518671790E+02  0.60182675351E+02  0.00000000000E+00 0.  1.
<mgrwt>
<rscale>  0 0.31136001E+03</rscale>
<asrwt>0</asrwt>
<pdfrwt beam="2">  1        2 0.92813935E-01 0.31422323E+03</pdfrwt>
<pdfrwt beam="1">  1       -2 0.26366409E-01 0.31422323E+03</pdfrwt>
<totfact> 0.64992240E+02</totfact>
</mgrwt>
</event>
<event>
 7    1  0.7800420E-006  0.1264974E+03  0.7546771E-02  0.1243341E+00
         -1   -1    0    0    0  501 -0.00000000000E+00  0.00000000000E+00  0.37593177415E+02  0.37593177415E+02  0.00000000000E+00 0.  1.
          1   -1    0    0  501    0  0.00000000000E+00 -0.00000000000E+00 -0.44744570724E+03  0.44744570724E+03  0.00000000000E+00 0. -1.
         23    2    1    2    0    0  0.20630910408E+00  0.19419360114E+02 -0.33638778146E+03  0.35938606290E+03  0.12499779429E+03 0.  0.
          5    1    3    3  502    0  0.23209386132E+02 -0.11356800345E+02 -0.31312523499E+03  0.31422468921E+03  0.47000000000E+01 0.  1.
         -5    1    3    3    0  502 -0.23003077028E+02  0.30776160459E+02 -0.23262546470E+02  0.45161373691E+02  0.47000000000E+01 0.  1.
        -11    1    1    2    0    0  0.36005341337E+02 -0.32688413984E+02 -0.72219551243E+02  0.87066529707E+02  0.00000000000E+00 0. -1.
         11    1    1    2    0    0 -0.36211650441E+02  0.13269053870E+02 -0.12451971206E+01  0.38586292049E+02  0.00000000000E+00 0.  1.
<mgrwt>
<rscale>  0 0.11985231E+03</rscale>
<asrwt>0</asrwt>
<pdfrwt beam="2">  1        1 0.68837799E-01 0.12649744E+03</pdfrwt>
<pdfrwt beam="1">  1       -1 0.57835659E-02 0.12649744E+03</pdfrwt>
<totfact> 0.70409467E+03</totfact>
</mgrwt>
</event>
<event>
 6    1  0.7800420E-006  0.1719898E+03  0.7546771E-02  0.1190652E+00
         -2   -1    0    0    0  501 -0.00000000000E+00  0.00000000000E+00  0.14024246239E+02  0.14024246239E+02  0.00000000000E+00 0.  1.
          2   -1    0    0  501    0  0.00000000000E+00 -0.00000000000E+00 -0.22469999020E+04  0.22469999020E+04  0.00000000000E+00 0. -1.
          5    1    1    2  502    0 -0.12185028631E+03  0.40230224699E+02 -0.16761935901E+04  0.16811046978E+04  0.47000000000E+01 0. -1.
         -5    1    1    2    0  502  0.25930972604E+02 -0.21185750618E+02 -0.18892771279E+03  0.19192973201E+03  0.47000000000E+01 0.  1.
        -11    1    1    2    0    0  0.26212576336E+02  0.27611688605E+02 -0.14360825759E+03  0.14856929748E+03  0.00000000000E+00 0. -1.
         11    1    1    2    0    0  0.69706737366E+02 -0.46656162687E+02 -0.22424609531E+03  0.23942042104E+03  0.00000000000E+00 0.  1.
<mgrwt>
<rscale>  0 0.15828000E+03</rscale>
<asrwt>0</asrwt>
<pdfrwt beam="2">  1        2 0.34569222E+00 0.17198983E+03</pdfrwt>
<pdfrwt beam="1">  1       -2 0.21575768E-02 0.17198983E+03</pdfrwt>
<totfact> 0.38050500E+03</totfact>
</mgrwt>
</event>
<event>
 7    1  0.7800420E-006  0.1424946E+03  0.7546771E-02  0.1215543E+00
          1   -1    0    0  501    0  0.00000000000E+00  0.00000000000E+00  0.27944847339E+03  0.27944847339E+03  0.00000000000E+00 0. -1.
         -1   -1    0    0    0  501 -0.00000000000E+00 -0.00000000000E+00 -0.65132968964E+02  0.65132968964E+02  0.00000000000E+00 0.  1.
         23    2    1    2    0    0  0.59571172995E+02  0.33637931918E+02  0.10156343988E+03  0.17498527329E+03  0.12499791371E+03 0.  0.
          5    1    3    3  502    0 -0.51654608072E+01  0.15114364515E+02 -0.25878481799E+02  0.30771932345E+02  0.47000000000E+01 0. -1.
         -5    1    3    3    0  502  0.64736633803E+02  0.18523567403E+02  0.12744192167E+03  0.14421334094E+03  0.47000000000E+01 0. -1.
        -11    1    1    2    0    0 -0.60848949365E+02  0.12939607005E+02  0.19237448931E+02  0.65116107912E+02  0.00000000000E+00 0.  1.
         11    1    1    2    0    0  0.12777763696E+01 -0.46577538923E+02  0.93514615618E+02  0.10448006115E+03  0.00000000000E+00 0. -1.
<mgrwt>
<rscale>  0 0.13836704E+03</rscale>
<asrwt>0</asrwt>
<pdfrwt beam="1">  1        1 0.42992072E-01 0.14249461E+03</pdfrwt>
<pdfrwt beam="2">  1       -1 0.10020457E-01 0.14249461E+03</pdfrwt>
<totfact> 0.55872338E+03</totfact>
</mgrwt>
</event>
<event>
 7    1  0.7800420E-006  0.1742295E+03  0.7546771E-02  0.1179308E+00
          1   -1    0    0  501    0  0.00000000000E+00  0.00000000000E+00  0.16638603534E+04  0.16638603534E+04  0.00000000000E+00 0. -1.
         -1   -1    0    0    0  501 -0.00000000000E+00 -0.00000000000E+00 -0.27939430837E+02  0.27939430837E+02  0.00000000000E+00 0.  1.
         23    2    1    2    0    0  0.97043166004E+02 -0.72888547359E+02  0.13994518447E+04  0.14102557814E+04  0.12500314835E+03 0.  0.
          5    1    3    3  502    0  0.44622452525E+02 -0.24855843302E+02  0.14542131492E+03  0.15420254553E+03  0.47000000000E+01 0.  1.
         -5    1    3    3    0  502  0.52420713479E+02 -0.48032704058E+02  0.12540305298E+04  0.12560532359E+04  0.47000000000E+01 0.  1.
        -11    1    1    2    0    0 -0.53407982517E+01  0.50615041707E+02  0.44386528827E+02  0.67531996227E+02  0.00000000000E+00 0. -1.
         11    1    1    2    0    0 -0.91702367752E+02  0.22273505652E+02  0.19208254906E+03  0.21401200658E+03  0.00000000000E+00 0.  1.
<mgrwt>
<rscale>  0 0.16860702E+03</rscale>
<asrwt>0</asrwt>
<pdfrwt beam="1">  1        1 0.25597844E+00 0.17422946E+03</pdfrwt>
<pdfrwt beam="2">  1       -1 0.42983753E-02 0.17422946E+03</pdfrwt>
<totfact> 0.12401802E+03</totfact>
</mgrwt>
</event>
<event>
 7    1  0.7800420E-006  0.1496533E+03  0.7546771E-02  0.1210735E+00
          2   -1    0    0  501    0  0.00000000000E+00  0.00000000000E+00  0.21493491925E+03  0.21493491925E+03  0.00000000000E+00 0. -1.
         -2   -1    0    0    0  501 -0.00000000000E+00 -0.00000000000E+00 -0.13123780675E+03  0.13123780675E+03  0.00000000000E+00 0.  1.
         23    2    1    2    0    0 -0.28106848865E+02 -0.77342646716E+02  0.14676890770E+03  0.20961209755E+03  0.12499695682E+03 0.  0.
          5    1    3    3  502    0  0.22698286255E+02 -0.51977553495E+02  0.14134828898E+03  0.15237554615E+03  0.47000000000E+01 0. -1.
         -5    1    3    3    0  502 -0.50805135120E+02 -0.25365093222E+02  0.54206187242E+01  0.57236551399E+02  0.47000000000E+01 0. -1.
        -11    1    1    2    0    0 -0.15041450443E+02  0.34039973225E+02 -0.65553020932E+02  0.75380127102E+02  0.00000000000E+00 0.  1.
         11    1    1    2    0    0  0.43148299308E+02  0.43302673491E+02  0.24812257230E+01  0.61180501353E+02  0.00000000000E+00 0. -1.
<mgrwt>
<rscale>  0 0.14194541E+03</rscale>
<asrwt>0</asrwt>
<pdfrwt beam="1">  1        2 0.33066911E-01 0.14965333E+03</pdfrwt>
<pdfrwt beam="2">  1       -2 0.20190432E-01 0.14965333E+03</pdfrwt>
<totfact> 0.31587244E+03</totfact>
</mgrwt>
</event>
<event>
 7    1  0.7800420E-006  0.1277725E+03  0.7546771E-02  0.1244842E+00
         -1   -1    0    0    0  501 -0.00000000000E+00  0.00000000000E+00  0.10343824016E+03  0.10343824016E+03  0.00000000000E+00 0.  1.
          1   -1    0    0  501    0  0.00000000000E+00 -0.00000000000E+00 -0.12635040822E+03  0.12635040822E+03  0.00000000000E+00 0. -1.
         23    2    1    2    0    0  0.23037070659E+00 -0.26471009330E+02 -0.36452810074E+02  0.13287067627E+03  0.12500016737E+03 0.  0.
          5    1    3    3  502    0 -0.16203378394E+02  0.39852607683E+02  0.16481071181E+02  0.46308698079E+02  0.47000000000E+01 0.  1.
         -5    1    3    3    0  502  0.16433749101E+02 -0.66323617012E+02 -0.52933881254E+02  0.86561978188E+02  0.47000000000E+01 0.  1.
        -11    1    1    2    0    0 -0.16465168270E+02 -0.31142893564E+02 -0.12875081509E+01  0.35251088819E+02  0.00000000000E+00 0.  1.
         11    1    1    2    0    0  0.16234797563E+02  0.57613902893E+02  0.14828150157E+02  0.61666883297E+02  0.00000000000E+00 0. -1.
<mgrwt>
<rscale>  0 0.11894850E+03</rscale>
<asrwt>0</asrwt>
<pdfrwt beam="2">  1        1 0.19438524E-01 0.12777249E+03</pdfrwt>
<pdfrwt beam="1">  1       -1 0.15913575E-01 0.12777249E+03</pdfrwt>
<totfact> 0.73017525E+03</totfact>
</mgrwt>
</event>
<event>
 7    1  0.7800420E-006  0.1331930E+03  0.7546771E-02  0.1237155E+00
         -1   -1    0    0    0  501 -0.00000000000E+00  0.00000000000E+00  0.15956021289E+02  0.15956021289E+02  0.00000000000E+00 0.  1.
          1   -1    0    0  501    0  0.00000000000E+00 -0.00000000000E+00 -0.94051949740E+03  0.94051949740E+03  0.00000000000E+00 0. -1.
         23    2    1    2    0    0 -0.18614781180E+02  0.42057693007E+02 -0.67448598750E+03  0.68751125456E+03  0.12500007277E+03 0.  0.
          5    1    3    3  502    0 -0.20779319565E+01 -0.37371141077E+02 -0.92775397793E+02  0.10015130764E+03  0.47000000000E+01 0.  1.
         -5    1    3    3    0  502 -0.16536849224E+02  0.79428834083E+02 -0.58171058971E+03  0.58735994692E+03  0.47000000000E+01 0.  1.
        -11    1    1    2    0    0 -0.41134705897E+01 -0.62083608548E+02 -0.11735524675E+03  0.13282902179E+03  0.00000000000E+00 0.  1.
         11    1    1    2    0    0  0.22728251770E+02  0.20025915541E+02 -0.13272224186E+03  0.13613524234E+03  0.00000000000E+00 0. -1.
<mgrwt>
<rscale>  0 0.12367476E+03</rscale>
<asrwt>0</asrwt>
<pdfrwt beam="2">  1        1 0.14469526E+00 0.13319301E+03</pdfrwt>
<pdfrwt beam="1">  1       -1 0.24547733E-02 0.13319301E+03</pdfrwt>
<totfact> 0.86884707E+03</totfact>
</mgrwt>
</event>
<event>
 7    1  0.7800420E-006  0.1254955E+03  0.7546771E-02  0.1249619E+00
          3   -1    0    0  501    0  0.00000000000E+00  0.00000000000E+00  0.15292468731E+03  0.15292468731E+03  0.00000000000E+00 0. -1.
         -3   -1    0    0    0  501 -0.00000000000E+00 -0.00000000000E+00 -0.98747013487E+02  0.98747013487E+02  0.00000000000E+00 0.  1.
         23    2    1    2    0    0  0.82010888870E+00  0.11022719244E+02  0.88381279035E+02  0.15349391095E+03  0.12500782894E+03 0.  0.
          5    1    3    3  502    0 -0.58126063258E+02  0.14340231858E+02  0.20612867830E+02  0.63492218419E+02  0.47000000000E+01 0. -1.
         -5    1    3    3    0  502  0.58946172147E+02 -0.33175126143E+01  0.67768411205E+02  0.90001692528E+02  0.47000000000E+01 0. -1.
        -11    1    1    2    0    0 -0.17319920017E+02  0.32146505252E+02 -0.36862176094E+02  0.51886389889E+02  0.00000000000E+00 0.  1.
         11    1    1    2    0    0  0.16499811128E+02 -0.43169224496E+02  0.26585708789E+01  0.46291399957E+02  0.00000000000E+00 0. -1.
<mgrwt>
<rscale>  0 0.11613154E+03</rscale>
<asrwt>0</asrwt>
<pdfrwt beam="1">  1        3 0.23526875E-01 0.12549554E+03</pdfrwt>
<pdfrwt beam="2">  1       -3 0.15191848E-01 0.12549554E+03</pdfrwt>
<totfact> 0.13823362E+03</totfact>
</mgrwt>
</event>
<event>
 7    1  0.7800420E-006  0.1637389E+03  0.7546771E-02  0.1191870E+00
          2   -1    0    0  501    0  0.00000000000E+00  0.00000000000E+00  0.60680529935E+03  0.60680529935E+03  0.00000000000E+00 0. -1.
         -2   -1    0    0    0  501 -0.00000000000E+00 -0.00000000000E+00 -0.38738063138E+02  0.38738063138E+02  0.00000000000E+00 0.  1.
         23    2    1    2    0    0  0.37430444921E+01 -0.10569262027E+03  0.25659156742E+03  0.30438406362E+03  0.12500194139E+03 0.  0.
          5    1    3    3  502    0  0.13121271967E+02 -0.10208715549E+03  0.88204799763E+02  0.13563234052E+03  0.47000000000E+01 0. -1.
         -5    1    3    3    0  502 -0.93782274749E+01 -0.36054647836E+01  0.16838676766E+03  0.16875172310E+03  0.47000000000E+01 0. -1.
        -11    1    1    2    0    0  0.16935238130E+02  0.10427277292E+03  0.29865499116E+03  0.31678765318E+03  0.00000000000E+00 0. -1.
         11    1    1    2    0    0 -0.20678282622E+02  0.14198473536E+01  0.12820677629E+02  0.24371645689E+02  0.00000000000E+00 0.  1.
<mgrwt>
<rscale>  0 0.15722164E+03</rscale>
<asrwt>0</asrwt>
<pdfrwt beam="1">  1        2 0.93354655E-01 0.16373889E+03</pdfrwt>
<pdfrwt beam="2">  1       -2 0.59597024E-02 0.16373889E+03</pdfrwt>
<totfact> 0.72295851E+03</totfact>
</mgrwt>
</event>
<event>
 7    1  0.7800420E-006  0.2454833E+03  0.7546771E-02  0.1118838E+00
         -1   -1    0    0    0  501 -0.00000000000E+00  0.00000000000E+00  0.28246515806E+03  0.28246515806E+03  0.00000000000E+00 0.  1.
          1   -1    0    0  501    0  0.00000000000E+00 -0.00000000000E+00 -0.24505614974E+03  0.24505614974E+03  0.00000000000E+00 0. -1.
         23    2    1    2    0    0  0.19619640734E+03 -0.78383063664E+02 -0.94023857385E+02  0.26287364114E+03  0.12500052209E+03 0.  0.
          5    1    3    3  502    0  0.30752960310E+02 -0.59475555696E+02 -0.65648313049E+02  0.93887577982E+02  0.47000000000E+01 0.  1.
         -5    1    3    3    0  502  0.16544344703E+03 -0.18907507968E+02 -0.28375544336E+02  0.16898606315E+03  0.47000000000E+01 0.  1.
        -11    1    1    2    0    0 -0.14700059530E+03  0.19855611982E+02  0.59991422614E+02  0.16000747212E+03  0.00000000000E+00 0.  1.
         11    1    1    2    0    0 -0.49195812041E+02  0.58527451682E+02  0.71441443096E+02  0.10464019454E+03  0.00000000000E+00 0. -1.
<mgrwt>
<rscale>  0 0.24143960E+03</rscale>
<asrwt>0</asrwt>
<pdfrwt beam="2">  1        1 0.37700946E-01 0.24548333E+03</pdfrwt>
<pdfrwt beam="1">  1       -1 0.43456178E-01 0.24548333E+03</pdfrwt>
<totfact> 0.60450803E+02</totfact>
</mgrwt>
</event>
<event>
 7    1  0.7800420E-006  0.1280194E+03  0.7546771E-02  0.1245166E+00
          1   -1    0    0  501    0  0.00000000000E+00  0.00000000000E+00  0.13442359269E+04  0.13442359269E+04  0.00000000000E+00 0. -1.
         -1   -1    0    0    0  501 -0.00000000000E+00 -0.00000000000E+00 -0.14918622740E+02  0.14918622740E+02  0.00000000000E+00 0.  1.
         23    2    1    2    0    0 -0.35735535751E+01 -0.27390882626E+02  0.11426415185E+04  0.11497906849E+04  0.12500379384E+03 0.  0.
          5    1    3    3  502    0  0.25169394929E+02 -0.65782711284E+02  0.87521868759E+03  0.87806076364E+03  0.47000000000E+01 0. -1.
         -5    1    3    3    0  502 -0.28742948504E+02  0.38391828659E+02  0.26742283094E+03  0.27172992125E+03  0.47000000000E+01 0. -1.
        -11    1    1    2    0    0  0.18339846832E+02 -0.25969299580E+02  0.32132173264E+02  0.45202113459E+02  0.00000000000E+00 0.  1.
         11    1    1    2    0    0 -0.14766293257E+02  0.53360182206E+02  0.15454361239E+03  0.16416175131E+03  0.00000000000E+00 0. -1.
<mgrwt>
<rscale>  0 0.11875421E+03</rscale>
<asrwt>0</asrwt>
<pdfrwt beam="1">  1        1 0.20680543E+00 0.12801945E+03</pdfrwt>
<pdfrwt beam="2">  1       -1 0.22951738E-02 0.12801945E+03</pdfrwt>
<totfact> 0.49951143E+03</totfact>
</mgrwt>
</event>
<event>
 6    1  0.7800420E-006  0.1585161E+03  0.7546771E-02  0.1202897E+00
          2   -1    0    0  501    0  0.00000000000E+00  0.00000000000E+00  0.20135768303E+03  0.20135768303E+03  0.00000000000E+00 0. -1.
         -2   -1    0    0    0  501 -0.00000000000E+00 -0.00000000000E+00 -0.10838246808E+03  0.10838246808E+03  0.00000000000E+00 0.  1.
          5    1    1    2  502    0  0.68213392571E+01 -0.32732770808E+02  0.13274320202E+03  0.13697011585E+03  0.47000000000E+01 0. -1.
         -5    1    1    2    0  502  0.16549397046E+02 -0.38362012889E+02 -0.30250194312E+02  0.51794698873E+02  0.47000000000E+01 0.  1.
        -11    1    1    2    0    0  0.19761047247E+02  0.20890307671E+02  0.31859848095E+02  0.42917989976E+02  0.00000000000E+00 0. -1.
         11    1    1    2    0    0 -0.43131783550E+02  0.50204476025E+02 -0.41377640850E+02  0.78057346403E+02  0.00000000000E+00 0.  1.
<mgrwt>
<rscale>  0 0.14804443E+03</rscale>
<asrwt>0</asrwt>
<pdfrwt beam="1">  1        2 0.30978105E-01 0.15851605E+03</pdfrwt>
<pdfrwt beam="2">  1       -2 0.16674226E-01 0.15851605E+03</pdfrwt>
<totfact> 0.46875603E+03</totfact>
</mgrwt>
</event>
<event>
 7    1  0.1333956E-005  0.1564643E+03  0.7546771E-02  0.1201148E+00
         -3   -1    0    0    0  501 -0.00000000000E+00  0.00000000000E+00  0.56318899989E+02  0.56318899989E+02  0.00000000000E+00 0.  1.
          3   -1    0    0  501    0  0.00000000000E+00 -0.00000000000E+00 -0.37344294145E+03  0.37344294145E+03  0.00000000000E+00 0. -1.
         23    2    1    2    0    0  0.82504718716E+02  0.45264854137E+02 -0.20510287688E+03  0.25796950526E+03  0.12500055962E+03 0.  0.
          5    1    3    3  502    0  0.41663587762E+02 -0.41727881552E+02 -0.93214550189E+02  0.11039978719E+03  0.47000000000E+01 0.  1.
         -5    1    3    3    0  502  0.40841130954E+02  0.86992735690E+02 -0.11188832670E+03  0.14756971807E+03  0.47000000000E+01 0.  1.
        -11    1    1    2    0    0 -0.54971810569E+02 -0.58423899094E+02 -0.32386284366E+02  0.86510827979E+02  0.00000000000E+00 0.  1.
         11    1    1    2    0    0 -0.27532908147E+02  0.13159044957E+02 -0.79634880213E+02  0.85281508205E+02  0.00000000000E+00 0. -1.
<mgrwt>
<rscale>  0 0.14945211E+03</rscale>
<asrwt>0</asrwt>
<pdfrwt beam="2">  1        3 0.57452762E-01 0.15646429E+03</pdfrwt>
<pdfrwt beam="1">  1       -3 0.86644459E-02 0.15646429E+03</pdfrwt>
<totfact> 0.66607371E+02</totfact>
</mgrwt>
</event>
<event>
 7    1  0.7800420E-006  0.1288843E+03  0.7546771E-02  0.1242925E+00
          2   -1    0    0  501    0  0.00000000000E+00  0.00000000000E+00  0.76159728000E+03  0.76159728000E+03  0.00000000000E+00 0.  1.
         -2   -1    0    0    0  501 -0.00000000000E+00 -0.00000000000E+00 -0.17933007416E+02  0.17933007416E+02  0.00000000000E+00 0. -1.
         23    2    1    2    0    0 -0.12773194559E+01  0.31364126706E+02  0.51862240403E+03  0.53439720341E+03  0.12500333217E+03 0.  0.
          5    1    3    3  502    0 -0.76586931667E+01  0.69905760564E+02  0.44837166365E+03  0.45387741704E+03  0.47000000000E+01 0. -1.
         -5    1    3    3    0  502  0.63813737108E+01 -0.38541633857E+02  0.70250740387E+02  0.80519786362E+02  0.47000000000E+01 0. -1.
        -11    1    1    2    0    0 -0.24095029259E+02  0.15521847541E+01  0.10036590416E+02  0.26147903543E+02  0.00000000000E+00 0. -1.
         11    1    1    2    0    0  0.25372348715E+02 -0.32916311460E+02  0.21500527814E+03  0.21898518047E+03  0.00000000000E+00 0.  1.
<mgrwt>
<rscale>  0 0.12010424E+03</rscale>
<asrwt>0</asrwt>
<pdfrwt beam="1">  1        2 0.11716879E+00 0.12888434E+03</pdfrwt>
<pdfrwt beam="2">  1       -2 0.27589248E-02 0.12888434E+03</pdfrwt>
<totfact> 0.17155268E+04</totfact>
</mgrwt>
</event>
<event>
 7    1  0.7800420E-006  0.1264964E+03  0.7546771E-02  0.1259480E+00
         -2   -1    0    0    0  501 -0.00000000000E+00  0.00000000000E+00  0.13421664291E+02  0.13421664291E+02  0.00000000000E+00 0.  1.
          2   -1    0    0  501    0  0.00000000000E+00 -0.00000000000E+00 -0.75005993407E+03  0.75005993407E+03  0.00000000000E+00 0. -1.
         23    2    1    2    0    0  0.36786358042E+02  0.24907322614E+02 -0.48398798567E+03  0.50024566172E+03  0.11843876455E+03 0.  0.
          5    1    3    3  502    0  0.59297634303E+02  0.20766912727E+02 -0.46730902722E+03  0.47153715762E+03  0.47000000000E+01 0. -1.
         -5    1    3    3    0  502 -0.22511276261E+02  0.41404098873E+01 -0.16678958446E+02  0.28708504102E+02  0.47000000000E+01 0.  1.
        -11    1    1    2    0    0  0.11105966089E+02 -0.18652102258E+02 -0.12258683375E+03  0.12449407700E+03  0.00000000000E+00 0. -1.
         11    1    1    2    0    0 -0.47892324131E+02 -0.62552203561E+01 -0.13006345036E+03  0.13874185963E+03  0.00000000000E+00 0.  1.
<mgrwt>
<rscale>  0 0.11059047E+03</rscale>
<asrwt>0</asrwt>
<pdfrwt beam="2">  1        2 0.11539387E+00 0.12649645E+03</pdfrwt>
<pdfrwt beam="1">  1       -2 0.20648709E-02 0.12649645E+03</pdfrwt>
<totfact> 0.26613646E+04</totfact>
</mgrwt>
</event>
<event>
 7    1  0.7800420E-006  0.1625852E+03  0.7546771E-02  0.1194465E+00
          2   -1    0    0  501    0  0.00000000000E+00  0.00000000000E+00  0.19703287718E+04  0.19703287718E+04  0.00000000000E+00 0.  1.
         -2   -1    0    0    0  501 -0.00000000000E+00 -0.00000000000E+00 -0.13840198258E+02  0.13840198258E+02  0.00000000000E+00 0. -1.
         23    2    1    2    0    0  0.30396671001E+02  0.99457389577E+02  0.14867221289E+04  0.14955857198E+04  0.12497290391E+03 0.  0.
          5    1    3    3  502    0 -0.33526918837E+02  0.30363897873E+01  0.14739982610E+03  0.15126821439E+03  0.47000000000E+01 0.  1.
         -5    1    3    3    0  502  0.63923589838E+02  0.96420999790E+02  0.13393223028E+04  0.13443175054E+04  0.47000000000E+01 0.  1.
        -11    1    1    2    0    0  0.45195637002E+01 -0.83059555555E+02  0.40281513364E+03  0.41131417203E+03  0.00000000000E+00 0.  1.
         11    1    1    2    0    0 -0.34916234702E+02 -0.16397834022E+02  0.66951310949E+02  0.77269078189E+02  0.00000000000E+00 0. -1.
<mgrwt>
<rscale>  0 0.15499567E+03</rscale>
<asrwt>0</asrwt>
<pdfrwt beam="1">  1        2 0.30312728E+00 0.16258523E+03</pdfrwt>
<pdfrwt beam="2">  1       -2 0.21292628E-02 0.16258523E+03</pdfrwt>
<totfact> 0.53989410E+03</totfact>
</mgrwt>
</event>
<event>
 7    1  0.7800420E-006  0.1630530E+03  0.7546771E-02  0.1192374E+00
          2   -1    0    0  501    0  0.00000000000E+00  0.00000000000E+00  0.61817293861E+03  0.61817293861E+03  0.00000000000E+00 0.  1.
         -2   -1    0    0    0  501 -0.00000000000E+00 -0.00000000000E+00 -0.41760483603E+02  0.41760483603E+02  0.00000000000E+00 0. -1.
         23    2    1    2    0    0 -0.41500599593E+02  0.96300672889E+02  0.41935326251E+03  0.44993716321E+03  0.12486061305E+03 0.  0.
          5    1    3    3  502    0 -0.66636518443E+02  0.78693815297E+02  0.17166012658E+03  0.20030584418E+03  0.47000000000E+01 0.  1.
         -5    1    3    3    0  502  0.25135918851E+02  0.17606857592E+02  0.24769313594E+03  0.24963131903E+03  0.47000000000E+01 0.  1.
        -11    1    1    2    0    0  0.37978145588E+02  0.38629648512E+01  0.32608488951E+02  0.50205334292E+02  0.00000000000E+00 0.  1.
         11    1    1    2    0    0  0.35224540049E+01 -0.10016363774E+03  0.12445070354E+03  0.15979092471E+03  0.00000000000E+00 0. -1.
<mgrwt>
<rscale>  0 0.15678630E+03</rscale>
<asrwt>0</asrwt>
<pdfrwt beam="1">  1        2 0.95103522E-01 0.16305303E+03</pdfrwt>
<pdfrwt beam="2">  1       -2 0.64246902E-02 0.16305303E+03</pdfrwt>
<totfact> 0.63087888E+03</totfact>
</mgrwt>
</event>
<event>
 7    1  0.7800420E-006  0.1358820E+03  0.7546771E-02  0.1229799E+00
          2   -1    0    0  501    0  0.00000000000E+00  0.00000000000E+00  0.59990785938E+02  0.59990785938E+02  0.00000000000E+00 0. -1.
         -2   -1    0    0    0  501 -0.00000000000E+00 -0.00000000000E+00 -0.24886649573E+03  0.24886649573E+03  0.00000000000E+00 0.  1.
         23    2    1    2    0    0  0.19486408592E+02  0.49592262463E+02 -0.10794713164E+03  0.17354106738E+03  0.12499922489E+03 0.  0.
          5    1    3    3  502    0  0.10190523536E+02  0.35847579747E+02  0.21277453707E+02  0.43170774604E+02  0.47000000000E+01 0. -1.
         -5    1    3    3    0  502  0.92958850561E+01  0.13744682716E+02 -0.12922458534E+03  0.13037029278E+03  0.47000000000E+01 0. -1.
        -11    1    1    2    0    0  0.22945450587E+02 -0.57715160632E+02 -0.63222511697E+02  0.88626290990E+02  0.00000000000E+00 0.  1.
         11    1    1    2    0    0 -0.42431859179E+02  0.81228981689E+01 -0.17706066462E+02  0.46689923299E+02  0.00000000000E+00 0. -1.
<mgrwt>
<rscale>  0 0.12843317E+03</rscale>
<asrwt>0</asrwt>
<pdfrwt beam="1">  1        2 0.92293518E-02 0.13588200E+03</pdfrwt>
<pdfrwt beam="2">  1       -2 0.38287153E-01 0.13588200E+03</pdfrwt>
<totfact> 0.43775859E+03</totfact>
</mgrwt>
</event>
<event>
 7    1  0.7800420E-006  0.1650740E+03  0.7546771E-02  0.1191375E+00
         -1   -1    0    0    0  501 -0.00000000000E+00  0.00000000000E+00  0.22616796948E+03  0.22616796948E+03  0.00000000000E+00 0.  1.
          1   -1    0    0  501    0  0.00000000000E+00 -0.00000000000E+00 -0.10747155668E+03  0.10747155668E+03  0.00000000000E+00 0. -1.
         23    2    1    2    0    0 -0.10455295735E+03 -0.26368482933E+02  0.23949946872E+02  0.16680238520E+03  0.12499127158E+03 0.  0.
          5    1    3    3  502    0 -0.55321102889E+02 -0.74920638439E+02 -0.67472392642E+00  0.93252730476E+02  0.47000000000E+01 0.  1.
         -5    1    3    3    0  502 -0.49231854465E+02  0.48552155505E+02  0.24624670798E+02  0.73549654725E+02  0.47000000000E+01 0.  1.
        -11    1    1    2    0    0  0.89246216631E+02  0.50914188865E+02  0.91758090061E+02  0.13775590333E+03  0.00000000000E+00 0.  1.
         11    1    1    2    0    0  0.15306740723E+02 -0.24545705932E+02  0.29883758641E+01  0.29081237621E+02  0.00000000000E+00 0. -1.
<mgrwt>
<rscale>  0 0.15765047E+03</rscale>
<asrwt>0</asrwt>
<pdfrwt beam="2">  1        1 0.16534086E-01 0.16507403E+03</pdfrwt>
<pdfrwt beam="1">  1       -1 0.34795072E-01 0.16507403E+03</pdfrwt>
<totfact> 0.25304511E+03</totfact>
</mgrwt>
</event>
<event>
 7    1  0.7800420E-006  0.1352454E+03  0.7546771E-02  0.1227996E+00
          2   -1    0    0  501    0  0.00000000000E+00  0.00000000000E+00  0.11337792977E+04  0.11337792977E+04  0.00000000000E+00 0. -1.
         -2   -1    0    0    0  501 -0.00000000000E+00 -0.00000000000E+00 -0.14188069501E+02  0.14188069501E+02  0.00000000000E+00 0.  1.
         23    2    1    2    0    0 -0.57131699826E+02 -0.37610578634E+02  0.70980508263E+03  0.72257495860E+03  0.11667359906E+03 0.  0.
          5    1    3    3  502    0  0.26603579518E+02  0.48881696332E+01  0.33627176551E+03  0.33739062661E+03  0.47000000000E+01 0. -1.
         -5    1    3    3    0  502 -0.83735279343E+02 -0.42498748267E+02  0.37353331713E+03  0.38518433200E+03  0.47000000000E+01 0.  1.
        -11    1    1    2    0    0 -0.48540907533E+01 -0.21403366411E+02  0.37999351505E+02  0.43881852804E+02  0.00000000000E+00 0.  1.
         11    1    1    2    0    0  0.61985790579E+02  0.59013945044E+02  0.37178679404E+03  0.38151055577E+03  0.00000000000E+00 0. -1.
<mgrwt>
<rscale>  0 0.12963630E+03</rscale>
<asrwt>0</asrwt>
<pdfrwt beam="1">  1        2 0.17442751E+00 0.13524539E+03</pdfrwt>
<pdfrwt beam="2">  1       -2 0.21827808E-02 0.13524539E+03</pdfrwt>
<totfact> 0.14259885E+04</totfact>
</mgrwt>
</event>
<event>
 7    1  0.7800420E-006  0.1365640E+03  0.7546771E-02  0.1231415E+00
          1   -1    0    0  501    0  0.00000000000E+00  0.00000000000E+00  0.71063890738E+02  0.71063890738E+02  0.00000000000E+00 0. -1.
         -1   -1    0    0    0  501 -0.00000000000E+00 -0.00000000000E+00 -0.20402079253E+03  0.20402079253E+03  0.00000000000E+00 0.  1.
         23    2    1    2    0    0 -0.52128932077E+02  0.17430679824E+02 -0.63686971775E+02  0.15068425140E+03  0.12501383559E+03 0.  0.
          5    1    3    3  502    0 -0.17286621413E+02 -0.29921540169E+02  0.25890925338E+02  0.43434500812E+02  0.47000000000E+01 0.  1.
         -5    1    3    3    0  502 -0.34842310664E+02  0.47352219992E+02 -0.89577897113E+02  0.10724975059E+03  0.47000000000E+01 0.  1.
        -11    1    1    2    0    0  0.23411357364E+02 -0.35879522496E+02  0.45384925780E+01  0.43081663188E+02  0.00000000000E+00 0. -1.
         11    1    1    2    0    0  0.28717574713E+02  0.18448842672E+02 -0.73808422595E+02  0.81318768678E+02  0.00000000000E+00 0.  1.
<mgrwt>
<rscale>  0 0.12736759E+03</rscale>
<asrwt>0</asrwt>
<pdfrwt beam="1">  1        1 0.10932906E-01 0.13656395E+03</pdfrwt>
<pdfrwt beam="2">  1       -1 0.31387814E-01 0.13656395E+03</pdfrwt>
<totfact> 0.51274029E+03</totfact>
</mgrwt>
</event>
<event>
 7    1  0.7800420E-006  0.1703291E+03  0.7546771E-02  0.1183959E+00
         -2   -1    0    0    0  501 -0.00000000000E+00  0.00000000000E+00  0.78550717452E+02  0.78550717452E+02  0.00000000000E+00 0. -1.
          2   -1    0    0  501    0  0.00000000000E+00 -0.00000000000E+00 -0.32132798030E+03  0.32132798030E+03  0.00000000000E+00 0.  1.
         23    2    1    2    0    0 -0.73894688647E+02 -0.89036422457E+02 -0.12619760307E+03  0.21198549330E+03  0.12499641921E+03 0.  0.
          5    1    3    3  502    0 -0.46984493800E+02  0.97102657820E+01 -0.92190095650E+02  0.10403333915E+03  0.47000000000E+01 0. -1.
         -5    1    3    3    0  502 -0.26910194848E+02 -0.98746688239E+02 -0.34007507421E+02  0.10795215415E+03  0.47000000000E+01 0. -1.
        -11    1    1    2    0    0 -0.69050212007E+01  0.54800153749E+02 -0.67947177493E+02  0.87564576730E+02  0.00000000000E+00 0. -1.
         11    1    1    2    0    0  0.80799709848E+02  0.34236268708E+02 -0.48632482282E+02  0.10032862772E+03  0.00000000000E+00 0.  1.
<mgrwt>
<rscale>  0 0.16426944E+03</rscale>
<asrwt>0</asrwt>
<pdfrwt beam="2">  1        2 0.49435074E-01 0.17032914E+03</pdfrwt>
<pdfrwt beam="1">  1       -2 0.12084726E-01 0.17032914E+03</pdfrwt>
<totfact> 0.48199977E+03</totfact>
</mgrwt>
</event>
<event>
 7    1  0.7800420E-006  0.2030111E+03  0.7546771E-02  0.1151336E+00
          1   -1    0    0  501    0  0.00000000000E+00  0.00000000000E+00  0.21567458788E+03  0.21567458788E+03  0.00000000000E+00 0. -1.
         -1   -1    0    0    0  501 -0.00000000000E+00 -0.00000000000E+00 -0.27066736842E+03  0.27066736842E+03  0.00000000000E+00 0.  1.
         23    2    1    2    0    0 -0.10941638585E+03  0.11669586288E+03  0.11705138025E+03  0.23433845840E+03  0.12499447013E+03 0.  0.
          5    1    3    3  502    0 -0.42191648855E+02  0.12380465362E+03  0.99305431693E+02  0.16429055437E+03  0.47000000000E+01 0.  1.
         -5    1    3    3    0  502 -0.67224736992E+02 -0.71087907442E+01  0.17745948559E+02  0.70047904035E+02  0.47000000000E+01 0.  1.
        -11    1    1    2    0    0  0.46273088655E+02 -0.61165810745E+02 -0.14437188291E+03  0.16347995508E+03  0.00000000000E+00 0.  1.
         11    1    1    2    0    0  0.63143297192E+02 -0.55530052132E+02 -0.27672277878E+02  0.88523542818E+02  0.00000000000E+00 0. -1.
<mgrwt>
<rscale>  0 0.19811860E+03</rscale>
<asrwt>0</asrwt>
<pdfrwt beam="1">  1        1 0.33180706E-01 0.20301105E+03</pdfrwt>
<pdfrwt beam="2">  1       -1 0.41641133E-01 0.20301105E+03</pdfrwt>
<totfact> 0.76578848E+02</totfact>
</mgrwt>
</event>
<event>
 6    1  0.7800420E-006  0.2090328E+03  0.7546771E-02  0.1160393E+00
          2   -1    0    0  501    0  0.00000000000E+00  0.00000000000E+00  0.22028004466E+04  0.22028004466E+04  0.00000000000E+00 0.  1.
         -2   -1    0    0    0  501 -0.00000000000E+00 -0.00000000000E+00 -0.21000228004E+02  0.21000228004E+02  0.00000000000E+00 0. -1.
          5    1    1    2  502    0 -0.33092584148E+00 -0.73426028845E+01 -0.26838946679E+00  0.87284226489E+01  0.47000000000E+01 0. -1.
         -5    1    1    2    0  502  0.87425039177E+02 -0.43155293334E+02  0.18921736739E+04  0.18946896366E+04  0.47000000000E+01 0.  1.
        -11    1    1    2    0    0 -0.20628232905E+02 -0.19416604715E+02  0.22683019416E+02  0.36291154586E+02  0.00000000000E+00 0. -1.
         11    1    1    2    0    0 -0.66465880431E+02  0.69914500933E+02  0.26721191476E+03  0.28409146079E+03  0.00000000000E+00 0.  1.
<mgrwt>
<rscale>  0 0.18787425E+03</rscale>
<asrwt>0</asrwt>
<pdfrwt beam="1">  1        2 0.33889219E+00 0.20903278E+03</pdfrwt>
<pdfrwt beam="2">  1       -2 0.32308060E-02 0.20903278E+03</pdfrwt>
<totfact> 0.22082824E+03</totfact>
</mgrwt>
</event>
<event>
 7    1  0.7800420E-006  0.1420799E+03  0.7546771E-02  0.1216553E+00
         -1   -1    0    0    0  501 -0.00000000000E+00  0.00000000000E+00  0.39427402123E+02  0.39427402123E+02  0.00000000000E+00 0.  1.
          1   -1    0    0  501    0  0.00000000000E+00 -0.00000000000E+00 -0.13408163640E+04  0.13408163640E+04  0.00000000000E+00 0. -1.
         23    2    1    2    0    0 -0.50931806220E+02 -0.44352841304E+02 -0.12259492740E+04  0.12341548992E+04  0.12500187670E+03 0.  0.
          5    1    3    3  502    0 -0.68234576941E+02 -0.32009485891E+01 -0.10609946794E+04  0.10632017698E+04  0.47000000000E+01 0.  1.
         -5    1    3    3    0  502  0.17302770722E+02 -0.41151892715E+02 -0.16495459464E+03  0.17095312937E+03  0.47000000000E+01 0.  1.
        -11    1    1    2    0    0  0.15297182573E+02 -0.20598595861E+02  0.14574598943E+02  0.29508047723E+02  0.00000000000E+00 0.  1.
         11    1    1    2    0    0  0.35634623647E+02  0.64951437165E+02 -0.90014286806E+02  0.11658081927E+03  0.00000000000E+00 0. -1.
<mgrwt>
<rscale>  0 0.13763109E+03</rscale>
<asrwt>0</asrwt>
<pdfrwt beam="2">  1        1 0.20627940E+00 0.14207988E+03</pdfrwt>
<pdfrwt beam="1">  1       -1 0.60657552E-02 0.14207988E+03</pdfrwt>
<totfact> 0.12098345E+03</totfact>
</mgrwt>
</event>
<event>
 6    1  0.7800420E-006  0.1736812E+03  0.7546771E-02  0.1197058E+00
         -2   -1    0    0    0  501 -0.00000000000E+00  0.00000000000E+00  0.44333420107E+02  0.44333420107E+02  0.00000000000E+00 0.  1.
          2   -1    0    0  501    0  0.00000000000E+00 -0.00000000000E+00 -0.45470194014E+03  0.45470194014E+03  0.00000000000E+00 0. -1.
          5    1    1    2  502    0 -0.52054864808E+02 -0.91416752205E+02 -0.14696951453E+03  0.18080060767E+03  0.47000000000E+01 0. -1.
         -5    1    1    2    0  502  0.49662780200E+02  0.38831313392E+02 -0.15766431643E+03  0.16986579794E+03  0.47000000000E+01 0.  1.
        -11    1    1    2    0    0 -0.23859692594E+02  0.18753253976E+02 -0.10079261190E+03  0.10526214932E+03  0.00000000000E+00 0. -1.
         11    1    1    2    0    0  0.26251777201E+02  0.33832184837E+02 -0.49420771730E+01  0.43106805308E+02  0.00000000000E+00 0.  1.
<mgrwt>
<rscale>  0 0.15281318E+03</rscale>
<asrwt>0</asrwt>
<pdfrwt beam="2">  1        2 0.69954141E-01 0.17368119E+03</pdfrwt>
<pdfrwt beam="1">  1       -2 0.68205265E-02 0.17368119E+03</pdfrwt>
<totfact> 0.81468784E+03</totfact>
</mgrwt>
</event>
<event>
 7    1  0.7800420E-006  0.1449781E+03  0.7546771E-02  0.1219409E+00
          1   -1    0    0  501    0  0.00000000000E+00  0.00000000000E+00  0.14419015438E+03  0.14419015438E+03  0.00000000000E+00 0. -1.
         -1   -1    0    0    0  501 -0.00000000000E+00 -0.00000000000E+00 -0.11830731561E+03  0.11830731561E+03  0.00000000000E+00 0.  1.
         23    2    1    2    0    0  0.72817770739E+02  0.95832187247E+01  0.40841209247E+02  0.15062093839E+03  0.12499758754E+03 0.  0.
          5    1    3    3  502    0 -0.12416556049E+02 -0.23619972017E+02 -0.25749320998E+02  0.37379024519E+02  0.47000000000E+01 0.  1.
         -5    1    3    3    0  502  0.85234326787E+02  0.33203190742E+02  0.66590530245E+02  0.11324191387E+03  0.47000000000E+01 0.  1.
        -11    1    1    2    0    0 -0.30463798231E+02 -0.27055087152E+02  0.27706410881E+02  0.49271350168E+02  0.00000000000E+00 0. -1.
         11    1    1    2    0    0 -0.42353972508E+02  0.17471868427E+02 -0.42664781359E+02  0.62605181431E+02  0.00000000000E+00 0.  1.
<mgrwt>
<rscale>  0 0.13557587E+03</rscale>
<asrwt>0</asrwt>
<pdfrwt beam="1">  1        1 0.22183101E-01 0.14497815E+03</pdfrwt>
<pdfrwt beam="2">  1       -1 0.18201126E-01 0.14497815E+03</pdfrwt>
<totfact> 0.50353443E+03</totfact>
</mgrwt>
</event>
<event>
 7    1  0.7800420E-006  0.1863583E+03  0.7546771E-02  0.1166921E+00
          2   -1    0    0  501    0  0.00000000000E+00  0.00000000000E+00  0.56719710974E+03  0.56719710974E+03  0.00000000000E+00 0. -1.
         -2   -1    0    0    0  501 -0.00000000000E+00 -0.00000000000E+00 -0.65204639599E+02  0.65204639599E+02  0.00000000000E+00 0.  1.
         23    2    1    2    0    0 -0.13672771504E+03  0.20324448830E+02  0.39092465936E+03  0.43307216915E+03  0.12498745183E+03 0.  0.
          5    1    3    3  502    0  0.26758333502E+01  0.37187160494E+02  0.14552718939E+03  0.15030069142E+03  0.47000000000E+01 0.  1.
         -5    1    3    3    0  502 -0.13940354839E+03 -0.16862711664E+02  0.24539746996E+03  0.28277147772E+03  0.47000000000E+01 0.  1.
        -11    1    1    2    0    0  0.11954889058E+03 -0.28296589476E+02  0.12542220084E+03  0.17556583574E+03  0.00000000000E+00 0. -1.
         11    1    1    2    0    0  0.17178824464E+02  0.79721406460E+01 -0.14354390060E+02  0.23763744453E+02  0.00000000000E+00 0.  1.
<mgrwt>
<rscale>  0 0.18091429E+03</rscale>
<asrwt>0</asrwt>
<pdfrwt beam="1">  1        2 0.87261090E-01 0.18635830E+03</pdfrwt>
<pdfrwt beam="2">  1       -2 0.10031483E-01 0.18635830E+03</pdfrwt>
<totfact> 0.35020539E+03</totfact>
</mgrwt>
</event>
<event>
 7    1  0.7800420E-006  0.1354233E+03  0.7546771E-02  0.1231612E+00
          2   -1    0    0  501    0  0.00000000000E+00  0.00000000000E+00  0.46600826918E+03  0.46600826918E+03  0.00000000000E+00 0. -1.
         -2   -1    0    0    0  501 -0.00000000000E+00 -0.00000000000E+00 -0.57693512273E+02  0.57693512273E+02  0.00000000000E+00 0.  1.
         23    2    1    2    0    0 -0.32273722964E+02 -0.40883975015E+02  0.39470900501E+03  0.41729445408E+03  0.12500548055E+03 0.  0.
          5    1    3    3  502    0 -0.38808326293E+01 -0.83411323064E+02  0.22793648201E+03  0.24279546847E+03  0.47000000000E+01 0.  1.
         -5    1    3    3    0  502 -0.28392890334E+02  0.42527348049E+02  0.16677252299E+03  0.17449898561E+03  0.47000000000E+01 0.  1.
        -11    1    1    2    0    0  0.19683065368E+02  0.24419569119E+02  0.53176354172E+02  0.61737047720E+02  0.00000000000E+00 0. -1.
         11    1    1    2    0    0  0.12590657595E+02  0.16464405897E+02 -0.39570602270E+02  0.44670279652E+02  0.00000000000E+00 0.  1.
<mgrwt>
<rscale>  0 0.12723833E+03</rscale>
<asrwt>0</asrwt>
<pdfrwt beam="1">  1        2 0.71693577E-01 0.13542327E+03</pdfrwt>
<pdfrwt beam="2">  1       -2 0.88759253E-02 0.13542327E+03</pdfrwt>
<totfact> 0.52049834E+03</totfact>
</mgrwt>
</event>
<event>
 7    1  0.8418145E-006  0.2684484E+03  0.7546771E-02  0.1104248E+00
          1   -1    0    0  501    0  0.00000000000E+00  0.00000000000E+00  0.40303360915E+03  0.40303360915E+03  0.00000000000E+00 0. -1.
         -1   -1    0    0    0  501 -0.00000000000E+00 -0.00000000000E+00 -0.18534211022E+03  0.18534211022E+03  0.00000000000E+00 0.  1.
         23    2    1    2    0    0  0.15500180705E+03 -0.18003659136E+03  0.19722513836E+03  0.33311007318E+03  0.12500332491E+03 0.  0.
          5    1    3    3  502    0  0.10080666110E+03 -0.25146764594E+02  0.83968542074E+02  0.13366805434E+03  0.47000000000E+01 0. -1.
         -5    1    3    3    0  502  0.54195145946E+02 -0.15488982676E+03  0.11325659629E+03  0.19944201884E+03  0.47000000000E+01 0. -1.
        -11    1    1    2    0    0 -0.12741122632E+03  0.98361642893E+02 -0.15807256158E+02  0.16173590428E+03  0.00000000000E+00 0.  1.
         11    1    1    2    0    0 -0.27590580727E+02  0.81674948463E+02  0.36273616730E+02  0.93529741912E+02  0.00000000000E+00 0. -1.
<mgrwt>
<rscale>  0 0.26487664E+03</rscale>
<asrwt>0</asrwt>
<pdfrwt beam="1">  1        1 0.62005171E-01 0.26844844E+03</pdfrwt>
<pdfrwt beam="2">  1       -1 0.28514171E-01 0.26844844E+03</pdfrwt>
<totfact> 0.67124954E+02</totfact>
</mgrwt>
</event>
<event>
 7    1  0.7800420E-006  0.1839314E+03  0.7546771E-02  0.1169381E+00
          1   -1    0    0  501    0  0.00000000000E+00  0.00000000000E+00  0.11681747734E+04  0.11681747734E+04  0.00000000000E+00 0. -1.
         -1   -1    0    0    0  501 -0.00000000000E+00 -0.00000000000E+00 -0.31450794159E+02  0.31450794159E+02  0.00000000000E+00 0.  1.
         23    2    1    2    0    0  0.97434901058E+02  0.93341125766E+02  0.85256895882E+03  0.87218381279E+03  0.12499859219E+03 0.  0.
          5    1    3    3  502    0  0.11308776336E+02 -0.19010793867E+02  0.32953327016E+03  0.33030828759E+03  0.47000000000E+01 0. -1.
         -5    1    3    3    0  502  0.86126124722E+02  0.11235191963E+03  0.52303568866E+03  0.54187552521E+03  0.47000000000E+01 0. -1.
        -11    1    1    2    0    0 -0.10533374402E+03 -0.69796134533E+02  0.17718265027E+03  0.21762442323E+03  0.00000000000E+00 0.  1.
         11    1    1    2    0    0  0.78988429666E+01 -0.23544991233E+02  0.10697237017E+03  0.10981733156E+03  0.00000000000E+00 0. -1.
<mgrwt>
<rscale>  0 0.17837931E+03</rscale>
<asrwt>0</asrwt>
<pdfrwt beam="1">  1        1 0.17971916E+00 0.18393144E+03</pdfrwt>
<pdfrwt beam="2">  1       -1 0.48385846E-02 0.18393144E+03</pdfrwt>
<totfact> 0.22220158E+03</totfact>
</mgrwt>
</event>
<event>
 7    1  0.7800420E-006  0.1703832E+03  0.7546771E-02  0.1183635E+00
         -1   -1    0    0    0  501 -0.00000000000E+00  0.00000000000E+00  0.21946755445E+03  0.21946755445E+03  0.00000000000E+00 0.  1.
          1   -1    0    0  501    0  0.00000000000E+00 -0.00000000000E+00 -0.14481514855E+03  0.14481514855E+03  0.00000000000E+00 0. -1.
         23    2    1    2    0    0  0.69731261333E+02 -0.92432222506E+02 -0.42153024804E+02  0.17552009175E+03  0.12499704214E+03 0.  0.
          5    1    3    3  502    0  0.63923504265E+02  0.52601055329E+01  0.90908885180E+01  0.64950884226E+02  0.47000000000E+01 0.  1.
         -5    1    3    3    0  502  0.58077570679E+01 -0.97692328039E+02 -0.51243913322E+02  0.11056920752E+03  0.47000000000E+01 0.  1.
        -11    1    1    2    0    0 -0.41646551298E+02  0.86509382750E+02  0.35207519130E+02  0.10226376652E+03  0.00000000000E+00 0. -1.
         11    1    1    2    0    0 -0.28084710034E+02  0.59228397558E+01  0.81597911571E+02  0.86498844740E+02  0.00000000000E+00 0.  1.
<mgrwt>
<rscale>  0 0.16456701E+03</rscale>
<asrwt>0</asrwt>
<pdfrwt beam="2">  1        1 0.22279254E-01 0.17038317E+03</pdfrwt>
<pdfrwt beam="1">  1       -1 0.33764239E-01 0.17038317E+03</pdfrwt>
<totfact> 0.18200263E+03</totfact>
</mgrwt>
</event>
<event>
 7    1  0.7800420E-006  0.1322921E+03  0.7546771E-02  0.1233036E+00
          1   -1    0    0  501    0  0.00000000000E+00  0.00000000000E+00  0.41962843600E+03  0.41962843600E+03  0.00000000000E+00 0. -1.
         -1   -1    0    0    0  501 -0.00000000000E+00 -0.00000000000E+00 -0.40453785519E+02  0.40453785519E+02  0.00000000000E+00 0.  1.
         23    2    1    2    0    0 -0.43286904936E+02  0.51263303130E+00  0.28919367282E+03  0.31801600958E+03  0.12500873176E+03 0.  0.
          5    1    3    3  502    0 -0.29482544423E+02 -0.61518338563E+02  0.15819841210E+03  0.17234428914E+03  0.47000000000E+01 0. -1.
         -5    1    3    3    0  502 -0.13804360512E+02  0.62030971594E+02  0.13099526072E+03  0.14567172044E+03  0.47000000000E+01 0. -1.
        -11    1    1    2    0    0  0.35908032494E+02 -0.34257458351E+02  0.44545135210E+01  0.49827732649E+02  0.00000000000E+00 0.  1.
         11    1    1    2    0    0  0.73788724422E+01  0.33744825319E+02  0.85526464142E+02  0.92238479297E+02  0.00000000000E+00 0. -1.
<mgrwt>
<rscale>  0 0.12630973E+03</rscale>
<asrwt>0</asrwt>
<pdfrwt beam="1">  1        1 0.64558218E-01 0.13229211E+03</pdfrwt>
<pdfrwt beam="2">  1       -1 0.62236596E-02 0.13229211E+03</pdfrwt>
<totfact> 0.68697960E+03</totfact>
</mgrwt>
</event>
<event>
 7    1  0.7800420E-006  0.1644600E+03  0.7546771E-02  0.1191818E+00
         -2   -1    0    0    0  501 -0.00000000000E+00  0.00000000000E+00  0.69632391151E+02  0.69632391151E+02  0.00000000000E+00 0.  1.
          2   -1    0    0  501    0  0.00000000000E+00 -0.00000000000E+00 -0.42361869363E+03  0.42361869363E+03  0.00000000000E+00 0. -1.
         23    2    1    2    0    0 -0.28058462471E+02  0.10311148931E+03 -0.30637023965E+03  0.34772088172E+03  0.12501132466E+03 0.  0.
          5    1    3    3  502    0  0.18258573449E+02  0.10302642521E+03 -0.26679736819E+03  0.28661951342E+03  0.47000000000E+01 0.  1.
         -5    1    3    3    0  502 -0.46317035920E+02  0.85064093800E-01 -0.39572871461E+02  0.61101368298E+02  0.47000000000E+01 0.  1.
        -11    1    1    2    0    0  0.18637044728E+02 -0.21132488015E+02  0.23426567698E+02  0.36643219837E+02  0.00000000000E+00 0. -1.
         11    1    1    2    0    0  0.94214177431E+01 -0.81979001292E+02 -0.71042630527E+02  0.10888698323E+03  0.00000000000E+00 0.  1.
<mgrwt>
<rscale>  0 0.15726666E+03</rscale>
<asrwt>0</asrwt>
<pdfrwt beam="2">  1        2 0.65172104E-01 0.16445999E+03</pdfrwt>
<pdfrwt beam="1">  1       -2 0.10712676E-01 0.16445999E+03</pdfrwt>
<totfact> 0.43363951E+03</totfact>
</mgrwt>
</event>
<event>
 7    1  0.7800420E-006  0.1296917E+03  0.7546771E-02  0.1241569E+00
          1   -1    0    0  501    0  0.00000000000E+00  0.00000000000E+00  0.11605781724E+04  0.11605781724E+04  0.00000000000E+00 0. -1.
         -1   -1    0    0    0  501 -0.00000000000E+00 -0.00000000000E+00 -0.11414587551E+02  0.11414587551E+02  0.00000000000E+00 0.  1.
         23    2    1    2    0    0 -0.33851013290E+02  0.69420350073E+01  0.73739427498E+03  0.74871239147E+03  0.12500338165E+03 0.  0.
          5    1    3    3  502    0 -0.55515935622E+02  0.46183453893E+02  0.59425282216E+03  0.59864299642E+03  0.47000000000E+01 0. -1.
         -5    1    3    3    0  502  0.21664922332E+02 -0.39241418886E+02  0.14314145281E+03  0.15006939505E+03  0.47000000000E+01 0. -1.
        -11    1    1    2    0    0 -0.11950157256E+02  0.33544739102E+02  0.18619842496E+03  0.18957296547E+03  0.00000000000E+00 0. -1.
         11    1    1    2    0    0  0.45801170546E+02 -0.40486774109E+02  0.22557088493E+03  0.23370740303E+03  0.00000000000E+00 0.  1.
<mgrwt>
<rscale>  0 0.12093096E+03</rscale>
<asrwt>0</asrwt>
<pdfrwt beam="1">  1        1 0.17855040E+00 0.12969167E+03</pdfrwt>
<pdfrwt beam="2">  1       -1 0.17560913E-02 0.12969167E+03</pdfrwt>
<totfact> 0.97763576E+03</totfact>
</mgrwt>
</event>
<event>
 7    1  0.7800420E-006  0.1294477E+03  0.7546771E-02  0.1234429E+00
         -2   -1    0    0    0  501 -0.00000000000E+00  0.00000000000E+00  0.22954896800E+02  0.22954896800E+02  0.00000000000E+00 0.  1.
          2   -1    0    0  501    0  0.00000000000E+00 -0.00000000000E+00 -0.75600552780E+03  0.75600552780E+03  0.00000000000E+00 0. -1.
         23    2    1    2    0    0 -0.33211635746E+02  0.65627798225E+01 -0.53486709866E+03  0.55030857439E+03  0.12494251071E+03 0.  0.
          5    1    3    3  502    0 -0.74962691421E+02  0.26194709378E+02 -0.39575137297E+03  0.40366670300E+03  0.47000000000E+01 0. -1.
         -5    1    3    3    0  502  0.41751055675E+02 -0.19631929555E+02 -0.13911572569E+03  0.14664187138E+03  0.47000000000E+01 0. -1.
        -11    1    1    2    0    0  0.40355464619E+02  0.30971027874E+02 -0.17862852521E+03  0.18573076781E+03  0.00000000000E+00 0. -1.
         11    1    1    2    0    0 -0.71438288727E+01 -0.37533807696E+02 -0.19555007126E+02  0.42921082405E+02  0.00000000000E+00 0.  1.
<mgrwt>
<rscale>  0 0.12541065E+03</rscale>
<asrwt>0</asrwt>
<pdfrwt beam="2">  1        2 0.11630852E+00 0.12944773E+03</pdfrwt>
<pdfrwt beam="1">  1       -2 0.35315233E-02 0.12944773E+03</pdfrwt>
<totfact> 0.12045198E+04</totfact>
</mgrwt>
</event>
<event>
 7    1  0.7800420E-006  0.2125619E+03  0.7546771E-02  0.1143236E+00
         -1   -1    0    0    0  501 -0.00000000000E+00  0.00000000000E+00  0.78879026519E+02  0.78879026519E+02  0.00000000000E+00 0.  1.
          1   -1    0    0  501    0  0.00000000000E+00 -0.00000000000E+00 -0.52682477260E+03  0.52682477260E+03  0.00000000000E+00 0. -1.
         23    2    1    2    0    0  0.15694646160E+03  0.70180211208E+02 -0.25031873730E+03  0.32839310463E+03  0.12500042829E+03 0.  0.
          5    1    3    3  502    0 -0.74364471850E+01 -0.24411921824E+01  0.90234223318E+01  0.12836366954E+02  0.47000000000E+01 0. -1.
         -5    1    3    3    0  502  0.16438290879E+03  0.72621403390E+02 -0.25934215963E+03  0.31555673768E+03  0.47000000000E+01 0. -1.
        -11    1    1    2    0    0 -0.44945383311E+02 -0.62843647876E+02 -0.11233461336E+03  0.13633956476E+03  0.00000000000E+00 0.  1.
         11    1    1    2    0    0 -0.11200107829E+03 -0.73365633317E+01 -0.85292395423E+02  0.14097112973E+03  0.00000000000E+00 0. -1.
<mgrwt>
<rscale>  0 0.20790495E+03</rscale>
<asrwt>0</asrwt>
<pdfrwt beam="2">  1        1 0.81049965E-01 0.21256190E+03</pdfrwt>
<pdfrwt beam="1">  1       -1 0.12135235E-01 0.21256190E+03</pdfrwt>
<totfact> 0.18831489E+03</totfact>
</mgrwt>
</event>
<event>
 7    1  0.7800420E-006  0.1319663E+03  0.7546771E-02  0.1253364E+00
         -1   -1    0    0    0  501 -0.00000000000E+00  0.00000000000E+00  0.24234722297E+02  0.24234722297E+02  0.00000000000E+00 0.  1.
          1   -1    0    0  501    0  0.00000000000E+00 -0.00000000000E+00 -0.48216132519E+03  0.48216132519E+03  0.00000000000E+00 0. -1.
         23    2    1    2    0    0 -0.35684614890E+02  0.22708120868E+02 -0.36384885186E+03  0.38704146707E+03  0.12500423890E+03 0.  0.
          5    1    3    3  502    0  0.31128695281E+02 -0.29703766882E+02 -0.83140982035E+02  0.93732717503E+02  0.47000000000E+01 0. -1.
         -5    1    3    3    0  502 -0.66813310171E+02  0.52411887750E+02 -0.28070786982E+03  0.29330874957E+03  0.47000000000E+01 0. -1.
        -11    1    1    2    0    0  0.25859944082E+02 -0.39875018174E+01 -0.35672386265E+01  0.26407613866E+02  0.00000000000E+00 0.  1.
         11    1    1    2    0    0  0.98246708079E+01 -0.18720619051E+02 -0.90510512409E+02  0.92946966549E+02  0.00000000000E+00 0. -1.
<mgrwt>
<rscale>  0 0.11398434E+03</rscale>
<asrwt>0</asrwt>
<pdfrwt beam="2">  1        1 0.74178665E-01 0.13196632E+03</pdfrwt>
<pdfrwt beam="1">  1       -1 0.37284189E-02 0.13196632E+03</pdfrwt>
<totfact> 0.12253632E+04</totfact>
</mgrwt>
</event>
<event>
 7    1  0.7800420E-006  0.1342537E+03  0.7546771E-02  0.1233940E+00
          1   -1    0    0  501    0  0.00000000000E+00  0.00000000000E+00  0.52487639398E+03  0.52487639398E+03  0.00000000000E+00 0. -1.
         -1   -1    0    0    0  501 -0.00000000000E+00 -0.00000000000E+00 -0.27109726802E+02  0.27109726802E+02  0.00000000000E+00 0.  1.
         23    2    1    2    0    0 -0.48592318306E+02  0.69128956647E+01  0.30688936728E+03  0.33497035736E+03  0.12496021381E+03 0.  0.
          5    1    3    3  502    0 -0.85751034943E+02 -0.97766534401E+01  0.25230646277E+03  0.26670107630E+03  0.47000000000E+01 0. -1.
         -5    1    3    3    0  502  0.37158716637E+02  0.16689549105E+02  0.54582904514E+02  0.68269281061E+02  0.47000000000E+01 0. -1.
        -11    1    1    2    0    0 -0.47801011008E+01  0.34800339709E+02  0.74338631059E+02  0.82220101423E+02  0.00000000000E+00 0. -1.
         11    1    1    2    0    0  0.53372419407E+02 -0.41713235373E+02  0.11653866884E+03  0.13479566200E+03  0.00000000000E+00 0.  1.
<mgrwt>
<rscale>  0 0.12572539E+03</rscale>
<asrwt>0</asrwt>
<pdfrwt beam="1">  1        1 0.80750207E-01 0.13425370E+03</pdfrwt>
<pdfrwt beam="2">  1       -1 0.41707276E-02 0.13425370E+03</pdfrwt>
<totfact> 0.93171222E+03</totfact>
</mgrwt>
</event>
<event>
 7    1  0.7800420E-006  0.1268273E+03  0.7546771E-02  0.1245984E+00
         -2   -1    0    0    0  501 -0.00000000000E+00  0.00000000000E+00  0.16558953083E+02  0.16558953083E+02  0.00000000000E+00 0. -1.
          2   -1    0    0  501    0  0.00000000000E+00 -0.00000000000E+00 -0.10599912282E+04  0.10599912282E+04  0.00000000000E+00 0.  1.
         23    2    1    2    0    0  0.17655635330E+02  0.12166961787E+02 -0.86249336311E+03  0.87176830518E+03  0.12500168031E+03 0.  0.
          5    1    3    3  502    0 -0.41928122336E+01 -0.13512052185E+01 -0.83024325819E+03  0.83026824773E+03  0.47000000000E+01 0.  1.
         -5    1    3    3    0  502  0.21848447564E+02  0.13518167006E+02 -0.32250104924E+02  0.41500057443E+02  0.47000000000E+01 0.  1.
        -11    1    1    2    0    0 -0.27435680121E+02 -0.36736193124E+02 -0.38387821135E+02  0.59798739455E+02  0.00000000000E+00 0. -1.
         11    1    1    2    0    0  0.97800447912E+01  0.24569231336E+02 -0.14255109084E+03  0.14498313662E+03  0.00000000000E+00 0.  1.
<mgrwt>
<rscale>  0 0.11826707E+03</rscale>
<asrwt>0</asrwt>
<pdfrwt beam="2">  1        2 0.16307560E+00 0.12682735E+03</pdfrwt>
<pdfrwt beam="1">  1       -2 0.25475308E-02 0.12682735E+03</pdfrwt>
<totfact> 0.12498177E+04</totfact>
</mgrwt>
</event>
<event>
 7    1  0.7800420E-006  0.2197432E+03  0.7546771E-02  0.1137343E+00
          2   -1    0    0  501    0  0.00000000000E+00  0.00000000000E+00  0.54952718404E+03  0.54952718404E+03  0.00000000000E+00 0. -1.
         -2   -1    0    0    0  501 -0.00000000000E+00 -0.00000000000E+00 -0.99293510728E+02  0.99293510728E+02  0.00000000000E+00 0.  1.
         23    2    1    2    0    0 -0.11695452226E+03 -0.13778580294E+03  0.37048837070E+03  0.43075366393E+03  0.12499519349E+03 0.  0.
          5    1    3    3  502    0  0.24224051437E+02 -0.29575864818E+02  0.98143471053E+02  0.10543133954E+03  0.47000000000E+01 0.  1.
         -5    1    3    3    0  502 -0.14117857370E+03 -0.10820993812E+03  0.27234489965E+03  0.32532232439E+03  0.47000000000E+01 0.  1.
        -11    1    1    2    0    0  0.10009358136E+03  0.61426115620E+02  0.18823153265E+02  0.11893781488E+03  0.00000000000E+00 0.  1.
         11    1    1    2    0    0  0.16860940900E+02  0.76359687318E+02  0.60922149345E+02  0.99129215956E+02  0.00000000000E+00 0. -1.
<mgrwt>
<rscale>  0 0.21542235E+03</rscale>
<asrwt>0</asrwt>
<pdfrwt beam="1">  1        2 0.84542641E-01 0.21974323E+03</pdfrwt>
<pdfrwt beam="2">  1       -2 0.15275925E-01 0.21974323E+03</pdfrwt>
<totfact> 0.18468482E+03</totfact>
</mgrwt>
</event>
<event>
 7    1  0.7800420E-006  0.1581653E+03  0.7546771E-02  0.1199054E+00
         -2   -1    0    0    0  501 -0.00000000000E+00  0.00000000000E+00  0.52664175232E+02  0.52664175232E+02  0.00000000000E+00 0.  1.
          2   -1    0    0  501    0  0.00000000000E+00 -0.00000000000E+00 -0.45553805274E+03  0.45553805274E+03  0.00000000000E+00 0. -1.
         23    2    1    2    0    0  0.87533542728E+02  0.41575666866E+02 -0.30615798606E+03  0.34459973443E+03  0.12500242941E+03 0.  0.
          5    1    3    3  502    0  0.59369291250E+02  0.65044689659E+02 -0.92636406640E+02  0.12790276866E+03  0.47000000000E+01 0.  1.
         -5    1    3    3    0  502  0.28164251478E+02 -0.23469022794E+02 -0.21352157942E+03  0.21669696576E+03  0.47000000000E+01 0.  1.
        -11    1    1    2    0    0 -0.10620836030E+03 -0.36948051561E+02 -0.78799397104E+02  0.13731248776E+03  0.00000000000E+00 0.  1.
         11    1    1    2    0    0  0.18674817568E+02 -0.46276153047E+01 -0.17916494340E+02  0.26290005783E+02  0.00000000000E+00 0. -1.
<mgrwt>
<rscale>  0 0.15116071E+03</rscale>
<asrwt>0</asrwt>
<pdfrwt beam="2">  1        2 0.70082775E-01 0.15816531E+03</pdfrwt>
<pdfrwt beam="1">  1       -2 0.81021810E-02 0.15816531E+03</pdfrwt>
<totfact> 0.61993991E+03</totfact>
</mgrwt>
</event>
<event>
 7    1  0.7800420E-006  0.1984112E+03  0.7546771E-02  0.1155114E+00
          1   -1    0    0  501    0  0.00000000000E+00  0.00000000000E+00  0.25297420061E+03  0.25297420061E+03  0.00000000000E+00 0. -1.
         -1   -1    0    0    0  501 -0.00000000000E+00 -0.00000000000E+00 -0.14267447154E+03  0.14267447154E+03  0.00000000000E+00 0.  1.
         23    2    1    2    0    0  0.14825148643E+02 -0.15337345940E+03  0.72814954488E+02  0.21135046594E+03  0.12499519501E+03 0.  0.
          5    1    3    3  502    0  0.41693416797E+02 -0.15815369630E+03  0.80859380089E+02  0.18251373101E+03  0.47000000000E+01 0. -1.
         -5    1    3    3    0  502 -0.26868268155E+02  0.47802368964E+01 -0.80444256018E+01  0.28836734934E+02  0.47000000000E+01 0. -1.
        -11    1    1    2    0    0 -0.32042435670E+02  0.81061539693E+02 -0.21066341967E+02  0.89674308834E+02  0.00000000000E+00 0.  1.
         11    1    1    2    0    0  0.17217287028E+02  0.72311919711E+02  0.58551116549E+02  0.94623897372E+02  0.00000000000E+00 0. -1.
<mgrwt>
<rscale>  0 0.19375877E+03</rscale>
<asrwt>0</asrwt>
<pdfrwt beam="1">  1        1 0.38919108E-01 0.19841119E+03</pdfrwt>
<pdfrwt beam="2">  1       -1 0.21949919E-01 0.19841119E+03</pdfrwt>
<totfact> 0.18631998E+03</totfact>
</mgrwt>
</event>
<event>
 7    1  0.7800420E-006  0.1303001E+03  0.7546771E-02  0.1240536E+00
         -2   -1    0    0    0  501 -0.00000000000E+00  0.00000000000E+00  0.60129436945E+02  0.60129436945E+02  0.00000000000E+00 0.  1.
          2   -1    0    0  501    0  0.00000000000E+00 -0.00000000000E+00 -0.21816462617E+03  0.21816462617E+03  0.00000000000E+00 0. -1.
         23    2    1    2    0    0 -0.33045464414E+02 -0.16163651995E+02 -0.92677478666E+02  0.15989759552E+03  0.12499943855E+03 0.  0.
          5    1    3    3  502    0 -0.14820372598E+02 -0.70648047354E+02 -0.46007038218E+02  0.85729385886E+02  0.47000000000E+01 0.  1.
         -5    1    3    3    0  502 -0.18225091816E+02  0.54484395359E+02 -0.46670440448E+02  0.74168209638E+02  0.47000000000E+01 0.  1.
        -11    1    1    2    0    0  0.43020348175E+01  0.49615739214E+02 -0.16239709263E+02  0.52382795251E+02  0.00000000000E+00 0.  1.
         11    1    1    2    0    0  0.28743429597E+02 -0.33452087219E+02 -0.49118001293E+02  0.66013672336E+02  0.00000000000E+00 0. -1.
<mgrwt>
<rscale>  0 0.12156610E+03</rscale>
<asrwt>0</asrwt>
<pdfrwt beam="2">  1        2 0.33563789E-01 0.13030014E+03</pdfrwt>
<pdfrwt beam="1">  1       -2 0.92506824E-02 0.13030014E+03</pdfrwt>
<totfact> 0.10928199E+04</totfact>
</mgrwt>
</event>
<event>
 7    1  0.7800420E-006  0.1374773E+03  0.7546771E-02  0.1226961E+00
         -1   -1    0    0    0  501 -0.00000000000E+00  0.00000000000E+00  0.10700232374E+03  0.10700232374E+03  0.00000000000E+00 0.  1.
          1   -1    0    0  501    0  0.00000000000E+00 -0.00000000000E+00 -0.16631290139E+03  0.16631290139E+03  0.00000000000E+00 0. -1.
         23    2    1    2    0    0 -0.56264047383E+02 -0.10492628111E+02 -0.81846397152E+02  0.15999639790E+03  0.12499710533E+03 0.  0.
          5    1    3    3  502    0 -0.78791216127E+02  0.56576527796E+01 -0.99246735917E+02  0.12693332645E+03  0.47000000000E+01 0. -1.
         -5    1    3    3    0  502  0.22527168744E+02 -0.16150280890E+02  0.17400338764E+02  0.33063071448E+02  0.47000000000E+01 0. -1.
        -11    1    1    2    0    0  0.65944276638E+02 -0.26310277420E+02  0.24776803844E+02  0.75198193648E+02  0.00000000000E+00 0. -1.
         11    1    1    2    0    0 -0.96802292549E+01  0.36802905531E+02 -0.22409843417E+01  0.38120633583E+02  0.00000000000E+00 0.  1.
<mgrwt>
<rscale>  0 0.13033414E+03</rscale>
<asrwt>0</asrwt>
<pdfrwt beam="2">  1        1 0.25586600E-01 0.13747732E+03</pdfrwt>
<pdfrwt beam="1">  1       -1 0.16461896E-01 0.13747732E+03</pdfrwt>
<totfact> 0.49175346E+03</totfact>
</mgrwt>
</event>
<event>
 7    1  0.7800420E-006  0.1362276E+03  0.7546771E-02  0.1231158E+00
          2   -1    0    0  501    0  0.00000000000E+00  0.00000000000E+00  0.49675911138E+03  0.49675911138E+03  0.00000000000E+00 0. -1.
         -2   -1    0    0    0  501 -0.00000000000E+00 -0.00000000000E+00 -0.31115872920E+02  0.31115872920E+02  0.00000000000E+00 0.  1.
         23    2    1    2    0    0 -0.15862296908E+02 -0.51780606769E+02  0.32642197309E+03  0.35370789438E+03  0.12500050532E+03 0.  0.
          5    1    3    3  502    0 -0.61107071433E+02  0.19500268917E+01  0.10766630237E+03  0.12390318579E+03  0.47000000000E+01 0. -1.
         -5    1    3    3    0  502  0.45244774524E+02 -0.53730633661E+02  0.21875567072E+03  0.22980470859E+03  0.47000000000E+01 0. -1.
        -11    1    1    2    0    0  0.30624884362E+02  0.12404789996E+02  0.48829074143E+01  0.33400675769E+02  0.00000000000E+00 0.  1.
         11    1    1    2    0    0 -0.14762587453E+02  0.39375816773E+02  0.13433835795E+03  0.14076641415E+03  0.00000000000E+00 0. -1.
<mgrwt>
<rscale>  0 0.12753627E+03</rscale>
<asrwt>0</asrwt>
<pdfrwt beam="1">  1        2 0.76424473E-01 0.13622764E+03</pdfrwt>
<pdfrwt beam="2">  1       -2 0.47870577E-02 0.13622764E+03</pdfrwt>
<totfact> 0.12449904E+04</totfact>
</mgrwt>
</event>
<event>
 7    1  0.7800420E-006  0.2219083E+03  0.7546771E-02  0.1135749E+00
         -2   -1    0    0    0  501 -0.00000000000E+00  0.00000000000E+00  0.48964910451E+02  0.48964910451E+02  0.00000000000E+00 0.  1.
          2   -1    0    0  501    0  0.00000000000E+00 -0.00000000000E+00 -0.18366884571E+04  0.18366884571E+04  0.00000000000E+00 0. -1.
         23    2    1    2    0    0  0.16249114046E+03 -0.84934458988E+02 -0.15741620236E+04  0.15897261919E+04  0.12500422229E+03 0.  0.
          5    1    3    3  502    0  0.59421515775E+02 -0.23997895832E+01 -0.94288636958E+03  0.94477165043E+03  0.47000000000E+01 0.  1.
         -5    1    3    3    0  502  0.10306962468E+03 -0.82534669405E+02 -0.63127565399E+03  0.64495454143E+03  0.47000000000E+01 0.  1.
        -11    1    1    2    0    0 -0.14634178150E+03  0.98218234610E+02 -0.15851894007E+03  0.23704639415E+03  0.00000000000E+00 0. -1.
         11    1    1    2    0    0 -0.16149358959E+02 -0.13283775622E+02 -0.55042583031E+02  0.58880781553E+02  0.00000000000E+00 0.  1.
<mgrwt>
<rscale>  0 0.21751551E+03</rscale>
<asrwt>0</asrwt>
<pdfrwt beam="2">  1        2 0.28256744E+00 0.22190829E+03</pdfrwt>
<pdfrwt beam="1">  1       -2 0.75330635E-02 0.22190829E+03</pdfrwt>
<totfact> 0.94706813E+02</totfact>
</mgrwt>
</event>
<event>
 7    1  0.7800420E-006  0.1299412E+03  0.7546771E-02  0.1240015E+00
         -2   -1    0    0    0  501 -0.00000000000E+00  0.00000000000E+00  0.23970402740E+03  0.23970402740E+03  0.00000000000E+00 0.  1.
          2   -1    0    0  501    0  0.00000000000E+00 -0.00000000000E+00 -0.56113444817E+02  0.56113444817E+02  0.00000000000E+00 0. -1.
         23    2    1    2    0    0 -0.25469572528E+02 -0.24733870003E+02  0.87175339074E+02  0.15647444989E+03  0.12499700107E+03 0.  0.
          5    1    3    3  502    0  0.85594893767E+01  0.50167620385E+01 -0.29384885215E+02  0.31368682453E+02  0.47000000000E+01 0.  1.
         -5    1    3    3    0  502 -0.34029061905E+02 -0.29750632041E+02  0.11656022429E+03  0.12510576744E+03  0.47000000000E+01 0.  1.
        -11    1    1    2    0    0  0.14298606687E+02 -0.27733057427E+02  0.26459743826E+01  0.31314115154E+02  0.00000000000E+00 0.  1.
         11    1    1    2    0    0  0.11170965841E+02  0.52466927429E+02  0.93769269129E+02  0.10802890717E+03  0.00000000000E+00 0. -1.
<mgrwt>
<rscale>  0 0.12188796E+03</rscale>
<asrwt>0</asrwt>
<pdfrwt beam="2">  1        2 0.86328378E-02 0.12994119E+03</pdfrwt>
<pdfrwt beam="1">  1       -2 0.36877542E-01 0.12994119E+03</pdfrwt>
<totfact> 0.50853639E+03</totfact>
</mgrwt>
</event>
<event>
 7    1  0.7800420E-006  0.1387575E+03  0.7546771E-02  0.1226177E+00
         -1   -1    0    0    0  501 -0.00000000000E+00  0.00000000000E+00  0.45802395060E+03  0.45802395060E+03  0.00000000000E+00 0.  1.
          1   -1    0    0  501    0  0.00000000000E+00 -0.00000000000E+00 -0.38987006165E+02  0.38987006165E+02  0.00000000000E+00 0. -1.
         23    2    1    2    0    0  0.33085842731E+02  0.50335066093E+02  0.13981316957E+03  0.19698059413E+03  0.12500136083E+03 0.  0.
          5    1    3    3  502    0  0.23362284376E+01  0.84766785872E+01 -0.23508137683E+02  0.25534967799E+02  0.47000000000E+01 0.  1.
         -5    1    3    3    0  502  0.30749614293E+02  0.41858387506E+02  0.16332130726E+03  0.17144562633E+03  0.47000000000E+01 0.  1.
        -11    1    1    2    0    0 -0.52140010691E+02  0.27760513897E+01  0.15589115997E+03  0.16440298334E+03  0.00000000000E+00 0.  1.
         11    1    1    2    0    0  0.19054167960E+02 -0.53111117482E+02  0.12333261489E+03  0.13562737929E+03  0.00000000000E+00 0. -1.
<mgrwt>
<rscale>  0 0.13086575E+03</rscale>
<asrwt>0</asrwt>
<pdfrwt beam="2">  1        1 0.59980013E-02 0.13875746E+03</pdfrwt>
<pdfrwt beam="1">  1       -1 0.70465219E-01 0.13875746E+03</pdfrwt>
<totfact> 0.26457361E+03</totfact>
</mgrwt>
</event>
<event>
 6    1  0.7800420E-006  0.2081654E+03  0.7546771E-02  0.1174765E+00
         -3   -1    0    0    0  501 -0.00000000000E+00  0.00000000000E+00  0.66078466308E+03  0.66078466308E+03  0.00000000000E+00 0.  1.
          3   -1    0    0  501    0  0.00000000000E+00 -0.00000000000E+00 -0.53635316887E+02  0.53635316887E+02  0.00000000000E+00 0. -1.
          5    1    1    2  502    0 -0.70381889537E+02 -0.18219531895E+02 -0.68395871492E+01  0.73173982190E+02  0.47000000000E+01 0. -1.
         -5    1    1    2    0  502  0.63515367791E+02  0.45615046347E+02  0.18470183545E+03  0.20062849354E+03  0.47000000000E+01 0.  1.
        -11    1    1    2    0    0  0.49291540806E+02 -0.21280910865E+02  0.28837835973E+03  0.29333361812E+03  0.00000000000E+00 0.  1.
         11    1    1    2    0    0 -0.42425019061E+02 -0.61146035875E+01  0.14090873816E+03  0.14728388611E+03  0.00000000000E+00 0. -1.
<mgrwt>
<rscale>  0 0.17298999E+03</rscale>
<asrwt>0</asrwt>
<pdfrwt beam="2">  1        3 0.82515877E-02 0.20816536E+03</pdfrwt>
<pdfrwt beam="1">  1       -3 0.10165917E+00 0.20816536E+03</pdfrwt>
<totfact> 0.21668739E+02</totfact>
</mgrwt>
</event>
<event>
 7    1  0.7800420E-006  0.2226815E+03  0.7546771E-02  0.1135175E+00
         -1   -1    0    0    0  501 -0.00000000000E+00  0.00000000000E+00  0.55151635537E+02  0.55151635537E+02  0.00000000000E+00 0.  1.
          1   -1    0    0  501    0  0.00000000000E+00 -0.00000000000E+00 -0.91235726257E+03  0.91235726257E+03  0.00000000000E+00 0. -1.
         23    2    1    2    0    0 -0.15919057532E+03  0.92837498445E+02 -0.58823404111E+03  0.62897243828E+03  0.12500640223E+03 0.  0.
          5    1    3    3  502    0 -0.15168795807E+02  0.27218393946E+02 -0.16205883030E+02  0.35435208197E+02  0.47000000000E+01 0.  1.
         -5    1    3    3    0  502 -0.14402177952E+03  0.65619104500E+02 -0.57202815808E+03  0.59353723008E+03  0.47000000000E+01 0.  1.
        -11    1    1    2    0    0  0.61809847262E+02  0.10376481321E+02 -0.98285291499E+02  0.11656812218E+03  0.00000000000E+00 0. -1.
         11    1    1    2    0    0  0.97380728063E+02 -0.10321397977E+03 -0.17068629442E+03  0.22196833765E+03  0.00000000000E+00 0.  1.
<mgrwt>
<rscale>  0 0.21827592E+03</rscale>
<asrwt>0</asrwt>
<pdfrwt beam="2">  1        1 0.14036266E+00 0.22268148E+03</pdfrwt>
<pdfrwt beam="1">  1       -1 0.84848666E-02 0.22268148E+03</pdfrwt>
<totfact> 0.14681242E+03</totfact>
</mgrwt>
</event>
<event>
 7    1  0.7800420E-006  0.1601043E+03  0.7546771E-02  0.1191243E+00
         -4   -1    0    0    0  501 -0.00000000000E+00  0.00000000000E+00  0.35071759568E+02  0.35071759568E+02  0.00000000000E+00 0.  1.
          4   -1    0    0  501    0  0.00000000000E+00 -0.00000000000E+00 -0.10083633778E+04  0.10083633778E+04  0.00000000000E+00 0. -1.
         23    2    1    2    0    0 -0.17979923558E+02  0.82690655255E+02 -0.77005203207E+03  0.78470803343E+03  0.12500217401E+03 0.  0.
          5    1    3    3  502    0 -0.40327498256E+02  0.66391956872E+02 -0.21003775426E+03  0.22399139999E+03  0.47000000000E+01 0.  1.
         -5    1    3    3    0  502  0.22347574698E+02  0.16298698383E+02 -0.56001427781E+03  0.56071663344E+03  0.47000000000E+01 0.  1.
        -11    1    1    2    0    0  0.52136637760E+02 -0.71707186169E+02 -0.50922199525E+02  0.10224098958E+03  0.00000000000E+00 0.  1.
         11    1    1    2    0    0 -0.34156714201E+02 -0.10983469086E+02 -0.15231738668E+03  0.15648611441E+03  0.00000000000E+00 0. -1.
<mgrwt>
<rscale>  0 0.15776552E+03</rscale>
<asrwt>0</asrwt>
<pdfrwt beam="2">  1        4 0.15513282E+00 0.16010429E+03</pdfrwt>
<pdfrwt beam="1">  1       -4 0.53956556E-02 0.16010429E+03</pdfrwt>
<totfact> 0.10612263E+02</totfact>
</mgrwt>
</event>
<event>
 7    1  0.7800420E-006  0.1310705E+03  0.7546771E-02  0.1239613E+00
         -2   -1    0    0    0  501 -0.00000000000E+00  0.00000000000E+00  0.19439249174E+02  0.19439249174E+02  0.00000000000E+00 0. -1.
          2   -1    0    0  501    0  0.00000000000E+00 -0.00000000000E+00 -0.78334366817E+03  0.78334366817E+03  0.00000000000E+00 0.  1.
         23    2    1    2    0    0 -0.39101153256E+02  0.50063147684E+01 -0.57317917291E+03  0.58797436307E+03  0.12500209596E+03 0.  0.
          5    1    3    3  502    0 -0.41704999298E+02 -0.27110358860E+02 -0.84171151252E+02  0.97883355210E+02  0.47000000000E+01 0. -1.
         -5    1    3    3    0  502  0.26038460425E+01  0.32116673629E+02 -0.48900802166E+03  0.49009100786E+03  0.47000000000E+01 0. -1.
        -11    1    1    2    0    0  0.38597922533E+02 -0.40702518310E+02 -0.15257680050E+03  0.16256129512E+03  0.00000000000E+00 0.  1.
         11    1    1    2    0    0  0.50323072265E+00  0.35696203542E+02 -0.38148445591E+02  0.52247259158E+02  0.00000000000E+00 0. -1.
<mgrwt>
<rscale>  0 0.12213685E+03</rscale>
<asrwt>0</asrwt>
<pdfrwt beam="2">  1        2 0.12051442E+00 0.13107054E+03</pdfrwt>
<pdfrwt beam="1">  1       -2 0.29906536E-02 0.13107054E+03</pdfrwt>
<totfact> 0.14744270E+04</totfact>
</mgrwt>
</event>
<event>
 7    1  0.7800420E-006  0.1266043E+03  0.7546771E-02  0.1249280E+00
          1   -1    0    0  501    0  0.00000000000E+00  0.00000000000E+00  0.88461016684E+03  0.88461016684E+03  0.00000000000E+00 0. -1.
         -1   -1    0    0    0  501 -0.00000000000E+00 -0.00000000000E+00 -0.14473579201E+02  0.14473579201E+02  0.00000000000E+00 0.  1.
         23    2    1    2    0    0  0.94379505013E+01  0.17716017543E+02  0.62901278639E+03  0.64162740133E+03  0.12500281800E+03 0.  0.
          5    1    3    3  502    0  0.42067092579E+02  0.59017163915E+02  0.40549589042E+03  0.41194862915E+03  0.47000000000E+01 0. -1.
         -5    1    3    3    0  502 -0.32629142078E+02 -0.41301146372E+02  0.22351689597E+03  0.22967877218E+03  0.47000000000E+01 0. -1.
        -11    1    1    2    0    0  0.38480354577E+02 -0.14849302007E+02  0.92679588015E+02  0.10144331172E+03  0.00000000000E+00 0. -1.
         11    1    1    2    0    0 -0.47918305078E+02 -0.28667155357E+01  0.14844421323E+03  0.15601303299E+03  0.00000000000E+00 0.  1.
<mgrwt>
<rscale>  0 0.11632815E+03</rscale>
<asrwt>0</asrwt>
<pdfrwt beam="1">  1        1 0.13609383E+00 0.12660425E+03</pdfrwt>
<pdfrwt beam="2">  1       -1 0.22267052E-02 0.12660425E+03</pdfrwt>
<totfact> 0.11001136E+04</totfact>
</mgrwt>
</event>
<event>
 7    1  0.7800420E-006  0.1592544E+03  0.7546771E-02  0.1197460E+00
         -2   -1    0    0    0  501 -0.00000000000E+00  0.00000000000E+00  0.32134190155E+03  0.32134190155E+03  0.00000000000E+00 0.  1.
          2   -1    0    0  501    0  0.00000000000E+00 -0.00000000000E+00 -0.12209970567E+03  0.12209970567E+03  0.00000000000E+00 0. -1.
         23    2    1    2    0    0 -0.63955897784E+02  0.75128422063E+02 -0.44516566020E+02  0.16535927478E+03  0.12500931343E+03 0.  0.
          5    1    3    3  502    0 -0.13056198104E+02 -0.70609682743E+01 -0.64650674116E+02  0.66499031914E+02  0.47000000000E+01 0. -1.
         -5    1    3    3    0  502 -0.50899699680E+02  0.82189390337E+02  0.20134108095E+02  0.98860242870E+02  0.47000000000E+01 0. -1.
        -11    1    1    2    0    0 -0.62119223016E+01 -0.32685590042E+02  0.14943877171E+03  0.15309762331E+03  0.00000000000E+00 0.  1.
         11    1    1    2    0    0  0.70167820086E+02 -0.42442832020E+02  0.94319990185E+02  0.12498470912E+03  0.00000000000E+00 0. -1.
<mgrwt>
<rscale>  0 0.15247896E+03</rscale>
<asrwt>0</asrwt>
<pdfrwt beam="2">  1        2 0.18784570E-01 0.15925440E+03</pdfrwt>
<pdfrwt beam="1">  1       -2 0.49437215E-01 0.15925440E+03</pdfrwt>
<totfact> 0.11561723E+03</totfact>
</mgrwt>
</event>
<event>
 7    1  0.7800420E-006  0.1384882E+03  0.7546771E-02  0.1227988E+00
          4   -1    0    0  501    0  0.00000000000E+00  0.00000000000E+00  0.15360242640E+03  0.15360242640E+03  0.00000000000E+00 0. -1.
         -4   -1    0    0    0  501 -0.00000000000E+00 -0.00000000000E+00 -0.11505814645E+03  0.11505814645E+03  0.00000000000E+00 0.  1.
         23    2    1    2    0    0  0.74504127995E+01 -0.59150024979E+02  0.73408136540E+02  0.15674101310E+03  0.12499902628E+03 0.  0.
          5    1    3    3  502    0  0.34577872689E+02  0.29291541007E+02  0.19403894753E+02  0.49519943314E+02  0.47000000000E+01 0.  1.
         -5    1    3    3    0  502 -0.27127459890E+02 -0.88441565986E+02  0.54004241787E+02  0.10722106978E+03  0.47000000000E+01 0.  1.
        -11    1    1    2    0    0 -0.14400319585E+01  0.73648309159E+02 -0.50856081871E+02  0.89512503022E+02  0.00000000000E+00 0.  1.
         11    1    1    2    0    0 -0.60103808409E+01 -0.14498284180E+02  0.15992225280E+02  0.22407056732E+02  0.00000000000E+00 0. -1.
<mgrwt>
<rscale>  0 0.12964175E+03</rscale>
<asrwt>0</asrwt>
<pdfrwt beam="1">  1        4 0.23631143E-01 0.13848823E+03</pdfrwt>
<pdfrwt beam="2">  1       -4 0.17701253E-01 0.13848823E+03</pdfrwt>
<totfact> 0.77603017E+02</totfact>
</mgrwt>
</event>
<event>
 7    1  0.7800420E-006  0.2624716E+03  0.7546771E-02  0.1107862E+00
         -2   -1    0    0    0  501 -0.00000000000E+00  0.00000000000E+00  0.93690262967E+02  0.93690262967E+02  0.00000000000E+00 0. -1.
          2   -1    0    0  501    0  0.00000000000E+00 -0.00000000000E+00 -0.93432543812E+03  0.93432543812E+03  0.00000000000E+00 0.  1.
         23    2    1    2    0    0  0.21363597695E+03  0.87322048646E+02 -0.68883151846E+03  0.73714328713E+03  0.12500357636E+03 0.  0.
          5    1    3    3  502    0 -0.10160443940E+01 -0.63837404587E+01 -0.14226535012E+03  0.14248966395E+03  0.47000000000E+01 0. -1.
         -5    1    3    3    0  502  0.21465202135E+03  0.93705789104E+02 -0.54656616834E+03  0.59465362317E+03  0.47000000000E+01 0. -1.
        -11    1    1    2    0    0 -0.12005314987E+03 -0.71000346414E+02 -0.13555613958E+03  0.19449749346E+03  0.00000000000E+00 0.  1.
         11    1    1    2    0    0 -0.93582827082E+02 -0.16321702232E+02 -0.16247517109E+02  0.96374920496E+02  0.00000000000E+00 0. -1.
<mgrwt>
<rscale>  0 0.25880714E+03</rscale>
<asrwt>0</asrwt>
<pdfrwt beam="2">  1        2 0.14374237E+00 0.26247165E+03</pdfrwt>
<pdfrwt beam="1">  1       -2 0.14413887E-01 0.26247165E+03</pdfrwt>
<totfact> 0.10579478E+03</totfact>
</mgrwt>
</event>
<event>
 7    1  0.7800420E-006  0.1401983E+03  0.7546771E-02  0.1223282E+00
          2   -1    0    0  501    0  0.00000000000E+00  0.00000000000E+00  0.13607548502E+03  0.13607548502E+03  0.00000000000E+00 0. -1.
         -2   -1    0    0    0  501 -0.00000000000E+00 -0.00000000000E+00 -0.14399543538E+03  0.14399543538E+03  0.00000000000E+00 0.  1.
         23    2    1    2    0    0 -0.62679573608E+02 -0.10068642640E+02  0.55107909181E+02  0.15064013277E+03  0.12500184573E+03 0.  0.
          5    1    3    3  502    0 -0.37225355472E+02  0.54970041435E+02  0.43948744208E+02  0.79755969450E+02  0.47000000000E+01 0.  1.
         -5    1    3    3    0  502 -0.25454218136E+02 -0.65038684075E+02  0.11159164973E+02  0.70884163323E+02  0.47000000000E+01 0.  1.
        -11    1    1    2    0    0 -0.65099893608E+01  0.31119541193E+02 -0.44647435013E+02  0.54810576158E+02  0.00000000000E+00 0.  1.
         11    1    1    2    0    0  0.69189562969E+02 -0.21050898553E+02 -0.18380424530E+02  0.74620211468E+02  0.00000000000E+00 0. -1.
<mgrwt>
<rscale>  0 0.13285340E+03</rscale>
<asrwt>0</asrwt>
<pdfrwt beam="1">  1        2 0.20934690E-01 0.14019832E+03</pdfrwt>
<pdfrwt beam="2">  1       -2 0.22153144E-01 0.14019832E+03</pdfrwt>
<totfact> 0.44419078E+03</totfact>
</mgrwt>
</event>
<event>
 7    1  0.7800420E-006  0.1176452E+03  0.7546771E-02  0.1258405E+00
          2   -1    0    0  501    0  0.00000000000E+00  0.00000000000E+00  0.17112401227E+04  0.17112401227E+04  0.00000000000E+00 0. -1.
         -2   -1    0    0    0  501 -0.00000000000E+00 -0.00000000000E+00 -0.30728957719E+02  0.30728957719E+02  0.00000000000E+00 0.  1.
         23    2    1    2    0    0 -0.24283788560E+02 -0.32468226274E+02  0.16321942334E+04  0.16364285500E+04  0.11043774606E+03 0.  0.
          5    1    3    3  502    0 -0.35261916123E+02 -0.69848608125E+02  0.11010387009E+04  0.11038254126E+04  0.47000000000E+01 0. -1.
         -5    1    3    3    0  502  0.10978127563E+02  0.37380381851E+02  0.53115553251E+03  0.53260313739E+03  0.47000000000E+01 0.  1.
        -11    1    1    2    0    0  0.21262734361E+02  0.60840892691E+02  0.26779880475E+02  0.69791690725E+02  0.00000000000E+00 0.  1.
         11    1    1    2    0    0  0.30210541984E+01 -0.28372666417E+02  0.21537051186E+02  0.35748839728E+02  0.00000000000E+00 0. -1.
<mgrwt>
<rscale>  0 0.11117759E+03</rscale>
<asrwt>0</asrwt>
<pdfrwt beam="1">  1        2 0.26326764E+00 0.11764516E+03</pdfrwt>
<pdfrwt beam="2">  1       -2 0.47275333E-02 0.11764516E+03</pdfrwt>
<totfact> 0.22543511E+03</totfact>
</mgrwt>
</event>
<event>
 7    1  0.7800420E-006  0.1251264E+03  0.7546771E-02  0.1253615E+00
          1   -1    0    0  501    0  0.00000000000E+00  0.00000000000E+00  0.32345246471E+03  0.32345246471E+03  0.00000000000E+00 0. -1.
         -1   -1    0    0    0  501 -0.00000000000E+00 -0.00000000000E+00 -0.37766842582E+02  0.37766842582E+02  0.00000000000E+00 0.  1.
         23    2    1    2    0    0  0.62252607814E+01  0.19392714131E+01  0.22044684524E+03  0.25348260990E+03  0.12495642160E+03 0.  0.
          5    1    3    3  502    0 -0.29241470456E+02 -0.23693703248E+02  0.20238595911E+03  0.20590925578E+03  0.47000000000E+01 0.  1.
         -5    1    3    3    0  502  0.35466731238E+02  0.25632974661E+02  0.18060886128E+02  0.47573354122E+02  0.47000000000E+01 0.  1.
        -11    1    1    2    0    0 -0.41519130190E+02  0.70054632567E+01  0.13011144963E+02  0.44070450195E+02  0.00000000000E+00 0.  1.
         11    1    1    2    0    0  0.35293869408E+02 -0.89447346697E+01  0.52227631927E+02  0.63666247202E+02  0.00000000000E+00 0. -1.
<mgrwt>
<rscale>  0 0.11384286E+03</rscale>
<asrwt>0</asrwt>
<pdfrwt beam="1">  1        1 0.49761916E-01 0.12512642E+03</pdfrwt>
<pdfrwt beam="2">  1       -1 0.58102837E-02 0.12512642E+03</pdfrwt>
<totfact> 0.10494730E+04</totfact>
</mgrwt>
</event>
<event>
 7    1  0.7800420E-006  0.1310197E+03  0.7546771E-02  0.1240735E+00
          3   -1    0    0  501    0  0.00000000000E+00  0.00000000000E+00  0.52106932993E+02  0.52106932993E+02  0.00000000000E+00 0. -1.
         -3   -1    0    0    0  501 -0.00000000000E+00 -0.00000000000E+00 -0.25049065496E+03  0.25049065496E+03  0.00000000000E+00 0.  1.
         23    2    1    2    0    0 -0.29031066741E+02 -0.26416144326E+02 -0.10183232234E+03  0.16593971551E+03  0.12500220716E+03 0.  0.
          5    1    3    3  502    0 -0.15933025259E+02 -0.34016842193E+02  0.20181604004E+02  0.42899813367E+02  0.47000000000E+01 0. -1.
         -5    1    3    3    0  502 -0.13098041481E+02  0.76006978667E+01 -0.12201392634E+03  0.12303990214E+03  0.47000000000E+01 0. -1.
        -11    1    1    2    0    0  0.43750721413E+02 -0.15498495780E+02 -0.72652578718E+02  0.86213259942E+02  0.00000000000E+00 0.  1.
         11    1    1    2    0    0 -0.14719654672E+02  0.41914640107E+02 -0.23898820909E+02  0.50444612495E+02  0.00000000000E+00 0. -1.
<mgrwt>
<rscale>  0 0.12144301E+03</rscale>
<asrwt>0</asrwt>
<pdfrwt beam="1">  1        3 0.80164511E-02 0.13101972E+03</pdfrwt>
<pdfrwt beam="2">  1       -3 0.38537024E-01 0.13101972E+03</pdfrwt>
<totfact> 0.16204305E+03</totfact>
</mgrwt>
</event>
<event>
 7    1  0.7800420E-006  0.1303270E+03  0.7546771E-02  0.1240864E+00
          1   -1    0    0  501    0  0.00000000000E+00  0.00000000000E+00  0.27236362682E+03  0.27236362682E+03  0.00000000000E+00 0. -1.
         -1   -1    0    0    0  501 -0.00000000000E+00 -0.00000000000E+00 -0.56516947372E+02  0.56516947372E+02  0.00000000000E+00 0.  1.
         23    2    1    2    0    0 -0.20019363766E+02 -0.31011587975E+02  0.18468685265E+03  0.22604064461E+03  0.12499058348E+03 0.  0.
          5    1    3    3  502    0  0.19928684354E+02  0.40833660524E+02  0.87152170421E+02  0.98397820611E+02  0.47000000000E+01 0.  1.
         -5    1    3    3    0  502 -0.39948048120E+02 -0.71845248499E+02  0.97534682231E+02  0.12764282400E+03  0.47000000000E+01 0.  1.
        -11    1    1    2    0    0  0.93420175487E+01 -0.22529263315E+02 -0.17250082863E+02  0.29873171177E+02  0.00000000000E+00 0.  1.
         11    1    1    2    0    0  0.10677346217E+02  0.53540851290E+02  0.48409909661E+02  0.72966758408E+02  0.00000000000E+00 0. -1.
<mgrwt>
<rscale>  0 0.12136368E+03</rscale>
<asrwt>0</asrwt>
<pdfrwt beam="1">  1        1 0.41902096E-01 0.13032705E+03</pdfrwt>
<pdfrwt beam="2">  1       -1 0.86949151E-02 0.13032705E+03</pdfrwt>
<totfact> 0.71158595E+03</totfact>
</mgrwt>
</event>
<event>
 7    1  0.7800420E-006  0.1308555E+03  0.7546771E-02  0.1240565E+00
         -1   -1    0    0    0  501 -0.00000000000E+00  0.00000000000E+00  0.30380390053E+03  0.30380390053E+03  0.00000000000E+00 0.  1.
          1   -1    0    0  501    0  0.00000000000E+00 -0.00000000000E+00 -0.43837834341E+02  0.43837834341E+02  0.00000000000E+00 0. -1.
         23    2    1    2    0    0  0.34804595596E+02 -0.16869725863E+02  0.12316507852E+03  0.17970197037E+03  0.12500885593E+03 0.  0.
          5    1    3    3  502    0  0.33918313545E+02 -0.41455952804E+02 -0.25101008736E+00  0.53769889554E+02  0.47000000000E+01 0.  1.
         -5    1    3    3    0  502  0.88628205041E+00  0.24586226941E+02  0.12341608861E+03  0.12593208081E+03  0.47000000000E+01 0.  1.
        -11    1    1    2    0    0 -0.50550497916E+02  0.35341392348E+02  0.12806330954E+03  0.14214280883E+03  0.00000000000E+00 0.  1.
         11    1    1    2    0    0  0.15745902320E+02 -0.18471666486E+02  0.87376781274E+01  0.25796955667E+02  0.00000000000E+00 0. -1.
<mgrwt>
<rscale>  0 0.12154805E+03</rscale>
<asrwt>0</asrwt>
<pdfrwt beam="2">  1        1 0.67442824E-02 0.13085550E+03</pdfrwt>
<pdfrwt beam="1">  1       -1 0.46739060E-01 0.13085550E+03</pdfrwt>
<totfact> 0.48720420E+03</totfact>
</mgrwt>
</event>
<event>
 7    1  0.7800420E-006  0.1876747E+03  0.7546771E-02  0.1165604E+00
         -3   -1    0    0    0  501 -0.00000000000E+00  0.00000000000E+00  0.20363674965E+03  0.20363674965E+03  0.00000000000E+00 0.  1.
          3   -1    0    0  501    0  0.00000000000E+00 -0.00000000000E+00 -0.15724071284E+03  0.15724071284E+03  0.00000000000E+00 0. -1.
         23    2    1    2    0    0  0.81488179247E+02 -0.11382622354E+03  0.48398950551E+02  0.19381497817E+03  0.12500021930E+03 0.  0.
          5    1    3    3  502    0 -0.14274619878E+02 -0.73149865233E+02 -0.84599522556E+01  0.75155361408E+02  0.47000000000E+01 0. -1.
         -5    1    3    3    0  502  0.95762799126E+02 -0.40676358303E+02  0.56858902807E+02  0.11865961676E+03  0.47000000000E+01 0. -1.
        -11    1    1    2    0    0  0.13779584392E+01 -0.11122760227E+02  0.12072617969E+02  0.16473089242E+02  0.00000000000E+00 0.  1.
         11    1    1    2    0    0 -0.82866137687E+02  0.12494898376E+03 -0.14075531705E+02  0.15058939508E+03  0.00000000000E+00 0. -1.
<mgrwt>
<rscale>  0 0.18229141E+03</rscale>
<asrwt>0</asrwt>
<pdfrwt beam="2">  1        3 0.24190879E-01 0.18767468E+03</pdfrwt>
<pdfrwt beam="1">  1       -3 0.31328731E-01 0.18767468E+03</pdfrwt>
<totfact> 0.38267464E+02</totfact>
</mgrwt>
</event>
<event>
 7    1  0.7800420E-006  0.1516649E+03  0.7546771E-02  0.1207427E+00
          2   -1    0    0  501    0  0.00000000000E+00  0.00000000000E+00  0.30976413871E+03  0.30976413871E+03  0.00000000000E+00 0.  1.
         -2   -1    0    0    0  501 -0.00000000000E+00 -0.00000000000E+00 -0.11202365341E+03  0.11202365341E+03  0.00000000000E+00 0. -1.
         23    2    1    2    0    0  0.37493466199E+02 -0.77277309807E+02  0.24508482188E+03  0.28821658306E+03  0.12499874487E+03 0.  0.
          5    1    3    3  502    0 -0.93230824338E+01 -0.46947468914E+02  0.13487682803E+02  0.49949897807E+02  0.47000000000E+01 0. -1.
         -5    1    3    3    0  502  0.46816548633E+02 -0.30329840893E+02  0.23159713907E+03  0.23826668525E+03  0.47000000000E+01 0. -1.
        -11    1    1    2    0    0 -0.65716770278E+02  0.37159451411E+02 -0.33573587270E+02  0.82623873591E+02  0.00000000000E+00 0.  1.
         11    1    1    2    0    0  0.28223304080E+02  0.40117858396E+02 -0.13770749309E+02  0.50947335475E+02  0.00000000000E+00 0. -1.
<mgrwt>
<rscale>  0 0.14447860E+03</rscale>
<asrwt>0</asrwt>
<pdfrwt beam="1">  1        2 0.47656021E-01 0.15166486E+03</pdfrwt>
<pdfrwt beam="2">  1       -2 0.17234408E-01 0.15166486E+03</pdfrwt>
<totfact> 0.27910662E+03</totfact>
</mgrwt>
</event>
<event>
 7    1  0.7800420E-006  0.1276428E+03  0.7546771E-02  0.1247063E+00
          3   -1    0    0  501    0  0.00000000000E+00  0.00000000000E+00  0.49991198357E+02  0.49991198357E+02  0.00000000000E+00 0. -1.
         -3   -1    0    0    0  501 -0.00000000000E+00 -0.00000000000E+00 -0.32682226976E+03  0.32682226976E+03  0.00000000000E+00 0.  1.
         23    2    1    2    0    0  0.24810635926E+02  0.71322750318E+01 -0.59578588654E+02  0.14086266220E+03  0.12500497740E+03 0.  0.
          5    1    3    3  502    0 -0.56503093068E+01 -0.22747640940E+02  0.31870322892E+02  0.39839536203E+02  0.47000000000E+01 0.  1.
         -5    1    3    3    0  502  0.30460945233E+02  0.29879915972E+02 -0.91448911547E+02  0.10102312600E+03  0.47000000000E+01 0.  1.
        -11    1    1    2    0    0  0.55922090689E+01  0.33399874709E+02 -0.44493347920E+02  0.55914957230E+02  0.00000000000E+00 0. -1.
         11    1    1    2    0    0 -0.30402844995E+02 -0.40532149741E+02 -0.17275913483E+03  0.18003584869E+03  0.00000000000E+00 0.  1.
<mgrwt>
<rscale>  0 0.11762758E+03</rscale>
<asrwt>0</asrwt>
<pdfrwt beam="1">  1        3 0.76909537E-02 0.12764279E+03</pdfrwt>
<pdfrwt beam="2">  1       -3 0.50280349E-01 0.12764279E+03</pdfrwt>
<totfact> 0.10262070E+03</totfact>
</mgrwt>
</event>
<event>
 7    1  0.7800420E-006  0.1275988E+03  0.7546771E-02  0.1245722E+00
          2   -1    0    0  501    0  0.00000000000E+00  0.00000000000E+00  0.58500115979E+03  0.58500115979E+03  0.00000000000E+00 0. -1.
         -2   -1    0    0    0  501 -0.00000000000E+00 -0.00000000000E+00 -0.21593125632E+02  0.21593125632E+02  0.00000000000E+00 0.  1.
         23    2    1    2    0    0 -0.93699705035E+01 -0.23852600458E+02  0.36730260010E+03  0.38883499045E+03  0.12499882744E+03 0.  0.
          5    1    3    3  502    0  0.50969007616E+02 -0.12942714359E+02  0.86195616259E+02  0.10107980933E+03  0.47000000000E+01 0. -1.
         -5    1    3    3    0  502 -0.60338978120E+02 -0.10909886099E+02  0.28110698384E+03  0.28775518111E+03  0.47000000000E+01 0. -1.
        -11    1    1    2    0    0  0.41845981965E+02 -0.10295760737E+02  0.61123283608E+02  0.74787329775E+02  0.00000000000E+00 0.  1.
         11    1    1    2    0    0 -0.32476011461E+02  0.34148361195E+02  0.13498215045E+03  0.14297196520E+03  0.00000000000E+00 0. -1.
<mgrwt>
<rscale>  0 0.11842247E+03</rscale>
<asrwt>0</asrwt>
<pdfrwt beam="1">  1        2 0.90000166E-01 0.12759878E+03</pdfrwt>
<pdfrwt beam="2">  1       -2 0.33220198E-02 0.12759878E+03</pdfrwt>
<totfact> 0.17767035E+04</totfact>
</mgrwt>
</event>
<event>
 7    1  0.7800420E-006  0.1363657E+03  0.7546771E-02  0.1230776E+00
          2   -1    0    0  501    0  0.00000000000E+00  0.00000000000E+00  0.11312995941E+04  0.11312995941E+04  0.00000000000E+00 0.  1.
         -2   -1    0    0    0  501 -0.00000000000E+00 -0.00000000000E+00 -0.18945027214E+02  0.18945027214E+02  0.00000000000E+00 0. -1.
         23    2    1    2    0    0 -0.51236337866E+02 -0.18584879556E+02  0.92834647926E+03  0.93830846567E+03  0.12500012451E+03 0.  0.
          5    1    3    3  502    0 -0.51476711727E+02  0.27273686484E+01  0.13382061513E+03  0.14348288199E+03  0.47000000000E+01 0.  1.
         -5    1    3    3    0  502  0.24037386166E+00 -0.21312248204E+02  0.79452586413E+03  0.79482558369E+03  0.47000000000E+01 0.  1.
        -11    1    1    2    0    0  0.28862299826E+02  0.53332361964E+02  0.13384286701E+03  0.14693973674E+03  0.00000000000E+00 0.  1.
         11    1    1    2    0    0  0.22374038039E+02 -0.34747482408E+02  0.50165220650E+02  0.64996418938E+02  0.00000000000E+00 0. -1.
<mgrwt>
<rscale>  0 0.12778742E+03</rscale>
<asrwt>0</asrwt>
<pdfrwt beam="1">  1        2 0.17404604E+00 0.13636565E+03</pdfrwt>
<pdfrwt beam="2">  1       -2 0.29146205E-02 0.13636565E+03</pdfrwt>
<totfact> 0.93797324E+03</totfact>
</mgrwt>
</event>
<event>
 6    1  0.7800420E-006  0.4107237E+03  0.7546771E-02  0.1088257E+00
         -2   -1    0    0    0  501 -0.00000000000E+00  0.00000000000E+00  0.32978151278E+03  0.32978151278E+03  0.00000000000E+00 0.  1.
          2   -1    0    0  501    0  0.00000000000E+00 -0.00000000000E+00 -0.20397141145E+03  0.20397141145E+03  0.00000000000E+00 0. -1.
          5    1    1    2  502    0 -0.15072516463E+03  0.40658843764E+02 -0.11037252096E+03  0.19124696131E+03  0.47000000000E+01 0. -1.
         -5    1    1    2    0  502  0.10347827669E+03 -0.22355304596E+01  0.20581115738E+03  0.23041934347E+03  0.47000000000E+01 0.  1.
        -11    1    1    2    0    0 -0.20262266393E+02  0.11816159176E+02  0.32949598908E+01  0.23686236884E+02  0.00000000000E+00 0.  1.
         11    1    1    2    0    0  0.67509154331E+02 -0.50239472480E+02  0.27076505029E+02  0.88400382568E+02  0.00000000000E+00 0. -1.
<mgrwt>
<rscale>  0 0.29404312E+03</rscale>
<asrwt>0</asrwt>
<pdfrwt beam="2">  1        2 0.31380217E-01 0.41072368E+03</pdfrwt>
<pdfrwt beam="1">  1       -2 0.50735617E-01 0.41072368E+03</pdfrwt>
<totfact> 0.62515869E+02</totfact>
</mgrwt>
</event>
<event>
 7    1  0.7800420E-006  0.1568952E+03  0.7546771E-02  0.1199939E+00
         -1   -1    0    0    0  501 -0.00000000000E+00  0.00000000000E+00  0.27218606064E+02  0.27218606064E+02  0.00000000000E+00 0.  1.
          1   -1    0    0  501    0  0.00000000000E+00 -0.00000000000E+00 -0.85204010120E+03  0.85204010120E+03  0.00000000000E+00 0. -1.
         23    2    1    2    0    0  0.91076741786E+02  0.26387889651E+02 -0.57981612656E+03  0.60066865585E+03  0.12499919953E+03 0.  0.
          5    1    3    3  502    0  0.11472913152E+03  0.21250688315E+02 -0.54859480751E+03  0.56088565519E+03  0.47000000000E+01 0. -1.
         -5    1    3    3    0  502 -0.23652389738E+02  0.51372013364E+01 -0.31221319051E+02  0.39783000656E+02  0.47000000000E+01 0. -1.
        -11    1    1    2    0    0 -0.63557149628E+02 -0.27914544639E+01 -0.23121045435E+03  0.23980320617E+03  0.00000000000E+00 0. -1.
         11    1    1    2    0    0 -0.27519592157E+02 -0.23596435187E+02 -0.13794914228E+02  0.38786845252E+02  0.00000000000E+00 0.  1.
<mgrwt>
<rscale>  0 0.15043515E+03</rscale>
<asrwt>0</asrwt>
<pdfrwt beam="2">  1        1 0.13108308E+00 0.15689517E+03</pdfrwt>
<pdfrwt beam="1">  1       -1 0.41874782E-02 0.15689517E+03</pdfrwt>
<totfact> 0.46952667E+03</totfact>
</mgrwt>
</event>
<event>
 7    1  0.7800420E-006  0.1439245E+03  0.7546771E-02  0.1218393E+00
         -2   -1    0    0    0  501 -0.00000000000E+00  0.00000000000E+00  0.17368960541E+02  0.17368960541E+02  0.00000000000E+00 0.  1.
          2   -1    0    0  501    0  0.00000000000E+00 -0.00000000000E+00 -0.11296225933E+04  0.11296225933E+04  0.00000000000E+00 0. -1.
         23    2    1    2    0    0  0.57369945114E+02  0.42417404057E+02 -0.82192245328E+03  0.83442840899E+03  0.12499481495E+03 0.  0.
          5    1    3    3  502    0 -0.22794602136E+02 -0.28380454178E+02 -0.22779239446E+03  0.23073038170E+03  0.47000000000E+01 0. -1.
         -5    1    3    3    0  502  0.80164547250E+02  0.70797858235E+02 -0.59413005882E+03  0.60369802729E+03  0.47000000000E+01 0. -1.
        -11    1    1    2    0    0  0.25114463779E+02 -0.12230745113E+02 -0.71264176499E+02  0.76543518792E+02  0.00000000000E+00 0.  1.
         11    1    1    2    0    0 -0.82484408892E+02 -0.30186658943E+02 -0.21906700300E+03  0.23601962607E+03  0.00000000000E+00 0. -1.
<mgrwt>
<rscale>  0 0.13630235E+03</rscale>
<asrwt>0</asrwt>
<pdfrwt beam="2">  1        2 0.17378808E+00 0.14392446E+03</pdfrwt>
<pdfrwt beam="1">  1       -2 0.26721480E-02 0.14392446E+03</pdfrwt>
<totfact> 0.10707205E+04</totfact>
</mgrwt>
</event>
<event>
 7    1  0.7800420E-006  0.1671170E+03  0.7546771E-02  0.1189631E+00
         -3   -1    0    0    0  501 -0.00000000000E+00  0.00000000000E+00  0.26099907088E+03  0.26099907088E+03  0.00000000000E+00 0.  1.
          3   -1    0    0  501    0  0.00000000000E+00 -0.00000000000E+00 -0.14740121900E+03  0.14740121900E+03  0.00000000000E+00 0. -1.
         23    2    1    2    0    0  0.77540274382E+02 -0.79318865728E+02 -0.68145500903E+02  0.18047685556E+03  0.12499643790E+03 0.  0.
          5    1    3    3  502    0  0.20618095730E+02 -0.61239987469E+02 -0.94866478566E+02  0.11487898281E+03  0.47000000000E+01 0. -1.
         -5    1    3    3    0  502  0.56922178652E+02 -0.18078878258E+02  0.26720977663E+02  0.65597872746E+02  0.47000000000E+01 0. -1.
        -11    1    1    2    0    0  0.94095365332E+01  0.21043856733E+02  0.67592867378E+01  0.24022307157E+02  0.00000000000E+00 0. -1.
         11    1    1    2    0    0 -0.86949810915E+02  0.58275008995E+02  0.17498406604E+03  0.20390112716E+03  0.00000000000E+00 0.  1.
<mgrwt>
<rscale>  0 0.15917546E+03</rscale>
<asrwt>0</asrwt>
<pdfrwt beam="2">  1        3 0.22677111E-01 0.16711698E+03</pdfrwt>
<pdfrwt beam="1">  1       -3 0.40153703E-01 0.16711698E+03</pdfrwt>
<totfact> 0.26439668E+02</totfact>
</mgrwt>
</event>
<event>
 7    1  0.7800420E-006  0.1495857E+03  0.7546771E-02  0.1209739E+00
         -1   -1    0    0    0  501 -0.00000000000E+00  0.00000000000E+00  0.39146786723E+03  0.39146786723E+03  0.00000000000E+00 0.  1.
          1   -1    0    0  501    0  0.00000000000E+00 -0.00000000000E+00 -0.50585082059E+02  0.50585082059E+02  0.00000000000E+00 0. -1.
         23    2    1    2    0    0  0.51934919526E+02 -0.63685415523E+02  0.13357082794E+03  0.20054190932E+03  0.12499129291E+03 0.  0.
          5    1    3    3  502    0 -0.35327046018E+02  0.54386387510E+01  0.19104257889E+02  0.40800020114E+02  0.47000000000E+01 0.  1.
         -5    1    3    3    0  502  0.87261965544E+02 -0.69124054274E+02  0.11446657005E+03  0.15974188921E+03  0.47000000000E+01 0.  1.
        -11    1    1    2    0    0 -0.62665518620E+02  0.37322112251E+01  0.11224449948E+03  0.12860685941E+03  0.00000000000E+00 0.  1.
         11    1    1    2    0    0  0.10730599094E+02  0.59953204298E+02  0.95067457760E+02  0.11290418056E+03  0.00000000000E+00 0. -1.
<mgrwt>
<rscale>  0 0.14270159E+03</rscale>
<asrwt>0</asrwt>
<pdfrwt beam="2">  1        1 0.77823206E-02 0.14958573E+03</pdfrwt>
<pdfrwt beam="1">  1       -1 0.60225824E-01 0.14958573E+03</pdfrwt>
<totfact> 0.25321869E+03</totfact>
</mgrwt>
</event>
<event>
 7    1  0.7800420E-006  0.1305008E+03  0.7546771E-02  0.1239991E+00
          1   -1    0    0  501    0  0.00000000000E+00  0.00000000000E+00  0.24252182631E+03  0.24252182631E+03  0.00000000000E+00 0. -1.
         -1   -1    0    0    0  501 -0.00000000000E+00 -0.00000000000E+00 -0.13601009373E+03  0.13601009373E+03  0.00000000000E+00 0.  1.
         23    2    1    2    0    0  0.37467995070E+02 -0.14847848990E+01  0.20215554527E+03  0.24061863856E+03  0.12499763798E+03 0.  0.
          5    1    3    3  502    0 -0.26140933360E+02 -0.36328810278E+02  0.30930134664E+02  0.54606721962E+02  0.47000000000E+01 0. -1.
         -5    1    3    3    0  502  0.63608928430E+02  0.34844025379E+02  0.17122541060E+03  0.18601191660E+03  0.47000000000E+01 0. -1.
        -11    1    1    2    0    0  0.10320479351E+02 -0.31401291814E+02 -0.10114311057E+02  0.34566641575E+02  0.00000000000E+00 0.  1.
         11    1    1    2    0    0 -0.47788474421E+02  0.32886076713E+02 -0.85529501637E+02  0.10334663990E+03  0.00000000000E+00 0. -1.
<mgrwt>
<rscale>  0 0.12190245E+03</rscale>
<asrwt>0</asrwt>
<pdfrwt beam="1">  1        1 0.37311050E-01 0.13050082E+03</pdfrwt>
<pdfrwt beam="2">  1       -1 0.20924630E-01 0.13050082E+03</pdfrwt>
<totfact> 0.20937861E+03</totfact>
</mgrwt>
</event>
<event>
 7    1  0.7800420E-006  0.1377336E+03  0.7546771E-02  0.1227916E+00
          1   -1    0    0  501    0  0.00000000000E+00  0.00000000000E+00  0.35484902563E+02  0.35484902563E+02  0.00000000000E+00 0. -1.
         -1   -1    0    0    0  501 -0.00000000000E+00 -0.00000000000E+00 -0.62155900535E+03  0.62155900535E+03  0.00000000000E+00 0.  1.
         23    2    1    2    0    0 -0.12665289589E+02  0.56439711449E+02 -0.13391741575E+03  0.19210521030E+03  0.12499874797E+03 0.  0.
          5    1    3    3  502    0 -0.33157987747E+02 -0.27884107045E+02 -0.76195307977E+02  0.87776936235E+02  0.47000000000E+01 0.  1.
         -5    1    3    3    0  502  0.20492698158E+02  0.84323818494E+02 -0.57722107775E+02  0.10432827406E+03  0.47000000000E+01 0.  1.
        -11    1    1    2    0    0  0.22771789427E+02  0.19650477367E+02 -0.16390957773E+03  0.16664646809E+03  0.00000000000E+00 0.  1.
         11    1    1    2    0    0 -0.10106499838E+02 -0.76090188816E+02 -0.28824710930E+03  0.29829222952E+03  0.00000000000E+00 0. -1.
<mgrwt>
<rscale>  0 0.12969003E+03</rscale>
<asrwt>0</asrwt>
<pdfrwt beam="1">  1        1 0.54592159E-02 0.13773357E+03</pdfrwt>
<pdfrwt beam="2">  1       -1 0.95624461E-01 0.13773357E+03</pdfrwt>
<totfact> 0.16000249E+03</totfact>
</mgrwt>
</event>
<event>
 7    1  0.7800420E-006  0.1707380E+03  0.7546771E-02  0.1183562E+00
         -1   -1    0    0    0  501 -0.00000000000E+00  0.00000000000E+00  0.16813010540E+03  0.16813010540E+03  0.00000000000E+00 0.  1.
          1   -1    0    0  501    0  0.00000000000E+00 -0.00000000000E+00 -0.22438725339E+03  0.22438725339E+03  0.00000000000E+00 0. -1.
         23    2    1    2    0    0  0.70345111524E+02 -0.92610857230E+02 -0.14177890610E+03  0.22192954750E+03  0.12500504088E+03 0.  0.
          5    1    3    3  502    0  0.54773352941E+02  0.13315125956E+02 -0.80789200066E+02  0.98622500571E+02  0.47000000000E+01 0.  1.
         -5    1    3    3    0  502  0.15571758583E+02 -0.10592598319E+03 -0.60989706035E+02  0.12330704693E+03  0.47000000000E+01 0.  1.
        -11    1    1    2    0    0 -0.26034312266E+02  0.39316948641E+02  0.89502716993E+02  0.10116493570E+03  0.00000000000E+00 0.  1.
         11    1    1    2    0    0 -0.44310799258E+02  0.53293908589E+02 -0.39809588804E+01  0.69422875604E+02  0.00000000000E+00 0. -1.
<mgrwt>
<rscale>  0 0.16463433E+03</rscale>
<asrwt>0</asrwt>
<pdfrwt beam="2">  1        1 0.34521116E-01 0.17073800E+03</pdfrwt>
<pdfrwt beam="1">  1       -1 0.25866170E-01 0.17073800E+03</pdfrwt>
<totfact> 0.16448259E+03</totfact>
</mgrwt>
</event>
<event>
 7    1  0.7800420E-006  0.3197454E+03  0.7546771E-02  0.1077133E+00
         -2   -1    0    0    0  501 -0.00000000000E+00  0.00000000000E+00  0.23162493636E+03  0.23162493636E+03  0.00000000000E+00 0.  1.
          2   -1    0    0  501    0  0.00000000000E+00 -0.00000000000E+00 -0.42940092989E+03  0.42940092989E+03  0.00000000000E+00 0. -1.
         23    2    1    2    0    0  0.21427603824E+03 -0.20173726952E+03 -0.69131055908E+02  0.32713335116E+03  0.12499992029E+03 0.  0.
          5    1    3    3  502    0  0.20830831676E+03 -0.15102492491E+03 -0.23355662448E+02  0.25839593600E+03  0.47000000000E+01 0.  1.
         -5    1    3    3    0  502  0.59677214822E+01 -0.50712344616E+02 -0.45775393460E+02  0.68737415158E+02  0.47000000000E+01 0.  1.
        -11    1    1    2    0    0 -0.10783462233E+03  0.60488333027E+02 -0.17167577664E+02  0.12482736049E+03  0.00000000000E+00 0. -1.
         11    1    1    2    0    0 -0.10644141591E+03  0.14124893650E+03 -0.11147735995E+03  0.20906515459E+03  0.00000000000E+00 0.  1.
<mgrwt>
<rscale>  0 0.31679722E+03</rscale>
<asrwt>0</asrwt>
<pdfrwt beam="2">  1        2 0.66061681E-01 0.31974541E+03</pdfrwt>
<pdfrwt beam="1">  1       -2 0.35634606E-01 0.31974541E+03</pdfrwt>
<totfact> 0.55020830E+02</totfact>
</mgrwt>
</event>
<event>
 7    1  0.7800420E-006  0.1423534E+03  0.7546771E-02  0.1223244E+00
         -1   -1    0    0    0  501 -0.00000000000E+00  0.00000000000E+00  0.16606905951E+03  0.16606905951E+03  0.00000000000E+00 0.  1.
          1   -1    0    0  501    0  0.00000000000E+00 -0.00000000000E+00 -0.10059122242E+03  0.10059122242E+03  0.00000000000E+00 0. -1.
         23    2    1    2    0    0 -0.22915807591E+02  0.64138556296E+02  0.41877109321E+01  0.14241497274E+03  0.12500239556E+03 0.  0.
          5    1    3    3  502    0 -0.46588327955E+02  0.52380643117E+02  0.52117497182E+02  0.87478726485E+02  0.47000000000E+01 0. -1.
         -5    1    3    3    0  502  0.23672520364E+02  0.11757913179E+02 -0.47929786250E+02  0.54936246256E+02  0.47000000000E+01 0. -1.
        -11    1    1    2    0    0  0.93498789046E+01 -0.45475893933E+01  0.62259834093E+02  0.63122006829E+02  0.00000000000E+00 0.  1.
         11    1    1    2    0    0  0.13565928687E+02 -0.59590966903E+02 -0.96970793056E+00  0.61123302357E+02  0.00000000000E+00 0. -1.
<mgrwt>
<rscale>  0 0.13287955E+03</rscale>
<asrwt>0</asrwt>
<pdfrwt beam="2">  1        1 0.15475573E-01 0.14235339E+03</pdfrwt>
<pdfrwt beam="1">  1       -1 0.25549086E-01 0.14235339E+03</pdfrwt>
<totfact> 0.46025264E+03</totfact>
</mgrwt>
</event>
<event>
 7    1  0.7800420E-006  0.1459443E+03  0.7546771E-02  0.1215391E+00
          1   -1    0    0  501    0  0.00000000000E+00  0.00000000000E+00  0.18930774187E+03  0.18930774187E+03  0.00000000000E+00 0. -1.
         -1   -1    0    0    0  501 -0.00000000000E+00 -0.00000000000E+00 -0.92229670839E+02  0.92229670839E+02  0.00000000000E+00 0.  1.
         23    2    1    2    0    0  0.23317168583E+02 -0.71635565626E+02  0.51474449927E+02  0.15475576921E+03  0.12499753795E+03 0.  0.
          5    1    3    3  502    0  0.46359196831E+02 -0.91377426643E+02  0.64754655609E+02  0.12130236871E+03  0.47000000000E+01 0.  1.
         -5    1    3    3    0  502 -0.23042028248E+02  0.19741861017E+02 -0.13280205682E+02  0.33453400502E+02  0.47000000000E+01 0.  1.
        -11    1    1    2    0    0 -0.27733827187E+02 -0.12165286438E+02  0.27557562865E+02  0.40946045422E+02  0.00000000000E+00 0. -1.
         11    1    1    2    0    0  0.44166586042E+01  0.83800852064E+02  0.18046058239E+02  0.85835598080E+02  0.00000000000E+00 0.  1.
<mgrwt>
<rscale>  0 0.13847858E+03</rscale>
<asrwt>0</asrwt>
<pdfrwt beam="1">  1        1 0.29124268E-01 0.14594427E+03</pdfrwt>
<pdfrwt beam="2">  1       -1 0.14189180E-01 0.14594427E+03</pdfrwt>
<totfact> 0.53005010E+03</totfact>
</mgrwt>
</event>
<event>
 7    1  0.7800420E-006  0.1853553E+03  0.7546771E-02  0.1167993E+00
          1   -1    0    0  501    0  0.00000000000E+00  0.00000000000E+00  0.49743202800E+03  0.49743202800E+03  0.00000000000E+00 0. -1.
         -1   -1    0    0    0  501 -0.00000000000E+00 -0.00000000000E+00 -0.14427434213E+03  0.14427434213E+03  0.00000000000E+00 0.  1.
         23    2    1    2    0    0 -0.13081261811E+03 -0.40251989195E+02  0.42414976215E+03  0.46288183870E+03  0.12499764866E+03 0.  0.
          5    1    3    3  502    0 -0.13325984671E+03 -0.17688687988E+02  0.41770003750E+03  0.43882398266E+03  0.47000000000E+01 0. -1.
         -5    1    3    3    0  502  0.24472285921E+01 -0.22563301207E+02  0.64497246499E+01  0.24057856039E+02  0.47000000000E+01 0. -1.
        -11    1    1    2    0    0  0.40987668751E+02  0.40649007915E+02  0.91465417518E+01  0.58446471751E+02  0.00000000000E+00 0. -1.
         11    1    1    2    0    0  0.89824949362E+02 -0.39701872055E+00 -0.80138618033E+02  0.12037805968E+03  0.00000000000E+00 0.  1.
<mgrwt>
<rscale>  0 0.17980429E+03</rscale>
<asrwt>0</asrwt>
<pdfrwt beam="1">  1        1 0.76528004E-01 0.18535527E+03</pdfrwt>
<pdfrwt beam="2">  1       -1 0.22196053E-01 0.18535527E+03</pdfrwt>
<totfact> 0.77493251E+02</totfact>
</mgrwt>
</event>
<event>
 7    1  0.7800420E-006  0.1526529E+03  0.7546771E-02  0.1205704E+00
         -2   -1    0    0    0  501 -0.00000000000E+00  0.00000000000E+00  0.17102230015E+02  0.17102230015E+02  0.00000000000E+00 0. -1.
          2   -1    0    0  501    0  0.00000000000E+00 -0.00000000000E+00 -0.22770911764E+04  0.22770911764E+04  0.00000000000E+00 0.  1.
         23    2    1    2    0    0 -0.66069960279E+02  0.57549796996E+02 -0.19892880002E+04  0.19951365033E+04  0.12500280066E+03 0.  0.
          5    1    3    3  502    0 -0.95841771980E+02  0.70269195102E+02 -0.16469827462E+04  0.16512715287E+04  0.47000000000E+01 0.  1.
         -5    1    3    3    0  502  0.29771811700E+02 -0.12719398106E+02 -0.34230525397E+03  0.34386497459E+03  0.47000000000E+01 0.  1.
        -11    1    1    2    0    0  0.75011131145E+02 -0.74470231435E+02 -0.24647770974E+03  0.26818602977E+03  0.00000000000E+00 0. -1.
         11    1    1    2    0    0 -0.89411708661E+01  0.16920434439E+02 -0.24223236393E+02  0.30870873318E+02  0.00000000000E+00 0.  1.
<mgrwt>
<rscale>  0 0.14582121E+03</rscale>
<asrwt>0</asrwt>
<pdfrwt beam="2">  1        2 0.35032156E+00 0.15265294E+03</pdfrwt>
<pdfrwt beam="1">  1       -2 0.26311135E-02 0.15265294E+03</pdfrwt>
<totfact> 0.27451766E+03</totfact>
</mgrwt>
</event>
<event>
 7    1  0.7800420E-006  0.1588568E+03  0.7546771E-02  0.1197649E+00
         -2   -1    0    0    0  501 -0.00000000000E+00  0.00000000000E+00  0.47979706957E+02  0.47979706957E+02  0.00000000000E+00 0. -1.
          2   -1    0    0  501    0  0.00000000000E+00 -0.00000000000E+00 -0.46835042233E+03  0.46835042233E+03  0.00000000000E+00 0.  1.
         23    2    1    2    0    0  0.96107349902E+02 -0.19335807358E+02 -0.28098298235E+03  0.32278000063E+03  0.12499998514E+03 0.  0.
          5    1    3    3  502    0  0.56541775077E+02  0.50509172200E+02 -0.10819967630E+03  0.13220215111E+03  0.47000000000E+01 0.  1.
         -5    1    3    3    0  502  0.39565574824E+02 -0.69844979558E+02 -0.17278330604E+03  0.19057784952E+03  0.47000000000E+01 0.  1.
        -11    1    1    2    0    0 -0.87294537590E+02  0.66028200012E+01 -0.15076210875E+03  0.17433630419E+03  0.00000000000E+00 0.  1.
         11    1    1    2    0    0 -0.88128123117E+01  0.12732987357E+02  0.11374375717E+02  0.19213824472E+02  0.00000000000E+00 0. -1.
<mgrwt>
<rscale>  0 0.15232180E+03</rscale>
<asrwt>0</asrwt>
<pdfrwt beam="2">  1        2 0.72053910E-01 0.15885683E+03</pdfrwt>
<pdfrwt beam="1">  1       -2 0.73814935E-02 0.15885683E+03</pdfrwt>
<totfact> 0.69482919E+03</totfact>
</mgrwt>
</event>
<event>
 7    1  0.7800420E-006  0.1278637E+03  0.7546771E-02  0.1245097E+00
         -3   -1    0    0    0  501 -0.00000000000E+00  0.00000000000E+00  0.11289065648E+03  0.11289065648E+03  0.00000000000E+00 0.  1.
          3   -1    0    0  501    0  0.00000000000E+00 -0.00000000000E+00 -0.11386777509E+03  0.11386777509E+03  0.00000000000E+00 0. -1.
         23    2    1    2    0    0  0.26574760663E+02  0.38981992204E+01 -0.20529664567E+02  0.12950131914E+03  0.12501084221E+03 0.  0.
          5    1    3    3  502    0 -0.30161560568E+02 -0.18157329184E+02 -0.50300273625E+02  0.61576098169E+02  0.47000000000E+01 0. -1.
         -5    1    3    3    0  502  0.56736321231E+02  0.22055528404E+02  0.29770609057E+02  0.67925220969E+02  0.47000000000E+01 0. -1.
        -11    1    1    2    0    0 -0.49919948885E+02  0.26019290696E+02  0.18634481254E+02  0.59297965198E+02  0.00000000000E+00 0. -1.
         11    1    1    2    0    0  0.23345188222E+02 -0.29917489917E+02  0.91806470649E+00  0.37959147235E+02  0.00000000000E+00 0.  1.
<mgrwt>
<rscale>  0 0.11879580E+03</rscale>
<asrwt>0</asrwt>
<pdfrwt beam="2">  1        3 0.17518119E-01 0.12786370E+03</pdfrwt>
<pdfrwt beam="1">  1       -3 0.17367793E-01 0.12786370E+03</pdfrwt>
<totfact> 0.18517343E+03</totfact>
</mgrwt>
</event>
<event>
 7    1  0.7800420E-006  0.2211717E+03  0.7546771E-02  0.1136247E+00
          2   -1    0    0  501    0  0.00000000000E+00  0.00000000000E+00  0.49740018102E+03  0.49740018102E+03  0.00000000000E+00 0.  1.
         -2   -1    0    0    0  501 -0.00000000000E+00 -0.00000000000E+00 -0.93231440923E+02  0.93231440923E+02  0.00000000000E+00 0. -1.
         23    2    1    2    0    0  0.15650739018E+03 -0.93795902048E+02  0.25514000319E+03  0.33765862997E+03  0.12499877897E+03 0.  0.
          5    1    3    3  502    0 -0.61987861750E+01 -0.29079694391E+02  0.97364056468E+02  0.10191125094E+03  0.47000000000E+01 0. -1.
         -5    1    3    3    0  502  0.16270617635E+03 -0.64716207657E+02  0.15777594672E+03  0.23574737903E+03  0.47000000000E+01 0. -1.
        -11    1    1    2    0    0 -0.13153102066E+03  0.35743942313E+02  0.74768442788E+02  0.15546176008E+03  0.00000000000E+00 0. -1.
         11    1    1    2    0    0 -0.24976369512E+02  0.58051959735E+02  0.74260294118E+02  0.97511231895E+02  0.00000000000E+00 0.  1.
<mgrwt>
<rscale>  0 0.21685815E+03</rscale>
<asrwt>0</asrwt>
<pdfrwt beam="1">  1        2 0.76523104E-01 0.22117172E+03</pdfrwt>
<pdfrwt beam="2">  1       -2 0.14343299E-01 0.22117172E+03</pdfrwt>
<totfact> 0.22928577E+03</totfact>
</mgrwt>
</event>
<event>
 6    1  0.7800420E-006  0.2986089E+03  0.7546771E-02  0.1127972E+00
         -2   -1    0    0    0  501 -0.00000000000E+00  0.00000000000E+00  0.46270260610E+02  0.46270260610E+02  0.00000000000E+00 0.  1.
          2   -1    0    0  501    0  0.00000000000E+00 -0.00000000000E+00 -0.87257240709E+03  0.87257240709E+03  0.00000000000E+00 0. -1.
          5    1    1    2  502    0  0.96522117261E+01 -0.45429698236E+02 -0.67864597112E+03  0.68024956214E+03  0.47000000000E+01 0. -1.
         -5    1    1    2    0  502 -0.18927290862E+02  0.56294692344E+01  0.28617570624E+02  0.35085447292E+02  0.47000000000E+01 0.  1.
        -11    1    1    2    0    0  0.36243708812E+02  0.33921084973E+02 -0.38027060920E+02  0.62532421962E+02  0.00000000000E+00 0.  1.
         11    1    1    2    0    0 -0.26968629675E+02  0.58791440283E+01 -0.13824668507E+03  0.14097523631E+03  0.00000000000E+00 0. -1.
<mgrwt>
<rscale>  0 0.22811691E+03</rscale>
<asrwt>0</asrwt>
<pdfrwt beam="2">  1        2 0.13424191E+00 0.29860887E+03</pdfrwt>
<pdfrwt beam="1">  1       -2 0.71185014E-02 0.29860887E+03</pdfrwt>
<totfact> 0.35932748E+03</totfact>
</mgrwt>
</event>
<event>
 7    1  0.7800420E-006  0.3143180E+03  0.7546771E-02  0.1078294E+00
         -1   -1    0    0    0  501 -0.00000000000E+00  0.00000000000E+00  0.43270922278E+03  0.43270922278E+03  0.00000000000E+00 0.  1.
          1   -1    0    0  501    0  0.00000000000E+00 -0.00000000000E+00 -0.57079804821E+02  0.57079804821E+02  0.00000000000E+00 0. -1.
         23    2    1    2    0    0 -0.82579056665E+02 -0.26305565697E+02  0.12381564835E+03  0.19363365482E+03  0.12104707396E+03 0.  0.
          5    1    3    3  502    0 -0.88078961820E+02 -0.50552121901E+02  0.45590714307E+02  0.11141823807E+03  0.47000000000E+01 0. -1.
         -5    1    3    3    0  502  0.54999051547E+01  0.24246556204E+02  0.78224934045E+02  0.82215416746E+02  0.47000000000E+01 0.  1.
        -11    1    1    2    0    0  0.63916721083E+02 -0.47565370035E+02  0.13060150892E+03  0.15298550844E+03  0.00000000000E+00 0.  1.
         11    1    1    2    0    0  0.18662335582E+02  0.73870935732E+02  0.12121226069E+03  0.14316986434E+03  0.00000000000E+00 0. -1.
<mgrwt>
<rscale>  0 0.31431804E+03</rscale>
<asrwt>0</asrwt>
<pdfrwt beam="2">  1        1 0.87815087E-02 0.31431804E+03</pdfrwt>
<pdfrwt beam="1">  1       -1 0.66570648E-01 0.31431804E+03</pdfrwt>
<totfact> 0.18174610E+03</totfact>
</mgrwt>
</event>
<event>
 6    1  0.7800420E-006  0.2248703E+03  0.7546771E-02  0.1149196E+00
          1   -1    0    0  501    0  0.00000000000E+00  0.00000000000E+00  0.18492313045E+04  0.18492313045E+04  0.00000000000E+00 0. -1.
         -1   -1    0    0    0  501 -0.00000000000E+00 -0.00000000000E+00 -0.25227472902E+02  0.25227472902E+02  0.00000000000E+00 0.  1.
          5    1    1    2  502    0  0.48856323351E+02  0.72609458031E+02  0.65138299589E+03  0.65725259305E+03  0.47000000000E+01 0. -1.
         -5    1    1    2    0  502 -0.13645687414E+03 -0.81900671682E+01  0.89236084261E+03  0.90278320715E+03  0.47000000000E+01 0.  1.
        -11    1    1    2    0    0 -0.14104911765E+02  0.19520117299E+00  0.69400057508E+01  0.15721015210E+02  0.00000000000E+00 0.  1.
         11    1    1    2    0    0  0.10170546255E+03 -0.64614592036E+02  0.27331998739E+03  0.29870196204E+03  0.00000000000E+00 0. -1.
<mgrwt>
<rscale>  0 0.20064542E+03</rscale>
<asrwt>0</asrwt>
<pdfrwt beam="1">  1        1 0.28449702E+00 0.22487032E+03</pdfrwt>
<pdfrwt beam="2">  1       -1 0.38811511E-02 0.22487032E+03</pdfrwt>
<totfact> 0.10911515E+03</totfact>
</mgrwt>
</event>
<event>
 7    1  0.7800420E-006  0.1375585E+03  0.7546771E-02  0.1227938E+00
          1   -1    0    0  501    0  0.00000000000E+00  0.00000000000E+00  0.50300867455E+03  0.50300867455E+03  0.00000000000E+00 0. -1.
         -1   -1    0    0    0  501 -0.00000000000E+00 -0.00000000000E+00 -0.31231342311E+02  0.31231342311E+02  0.00000000000E+00 0.  1.
         23    2    1    2    0    0  0.45577132379E+02  0.34927425194E+02  0.31257817720E+03  0.34150761627E+03  0.12500054033E+03 0.  0.
          5    1    3    3  502    0 -0.29757049275E+01  0.57429082660E+02  0.59848442702E+02  0.83131705436E+02  0.47000000000E+01 0.  1.
         -5    1    3    3    0  502  0.48552837307E+02 -0.22501657466E+02  0.25272973450E+03  0.25837591084E+03  0.47000000000E+01 0.  1.
        -11    1    1    2    0    0 -0.53727096071E+02 -0.59480693928E+02  0.10022939498E+03  0.12833738902E+03  0.00000000000E+00 0. -1.
         11    1    1    2    0    0  0.81499636914E+01  0.24553268734E+02  0.58969760054E+02  0.64395011566E+02  0.00000000000E+00 0.  1.
<mgrwt>
<rscale>  0 0.12967530E+03</rscale>
<asrwt>0</asrwt>
<pdfrwt beam="1">  1        1 0.77385944E-01 0.13755848E+03</pdfrwt>
<pdfrwt beam="2">  1       -1 0.48048222E-02 0.13755848E+03</pdfrwt>
<totfact> 0.80096878E+03</totfact>
</mgrwt>
</event>
<event>
 7    1  0.7800420E-006  0.1420908E+03  0.7546771E-02  0.1219871E+00
         -2   -1    0    0    0  501 -0.00000000000E+00  0.00000000000E+00  0.12490277889E+03  0.12490277889E+03  0.00000000000E+00 0.  1.
          2   -1    0    0  501    0  0.00000000000E+00 -0.00000000000E+00 -0.15083357929E+03  0.15083357929E+03  0.00000000000E+00 0. -1.
         23    2    1    2    0    0 -0.21297909590E+02 -0.64129952363E+02 -0.59986020456E+02  0.15423392887E+03  0.12499412155E+03 0.  0.
          5    1    3    3  502    0 -0.69647282222E+02 -0.59491616382E+02 -0.28036314213E+02  0.95906836332E+02  0.47000000000E+01 0.  1.
         -5    1    3    3    0  502  0.48349372632E+02 -0.46383359814E+01 -0.31949706243E+02  0.58327092535E+02  0.47000000000E+01 0.  1.
        -11    1    1    2    0    0  0.44130144962E+02  0.68599240761E+02  0.16176052372E+01  0.81583957824E+02  0.00000000000E+00 0. -1.
         11    1    1    2    0    0 -0.22832235372E+02 -0.44692883985E+01  0.32437614816E+02  0.39918471486E+02  0.00000000000E+00 0.  1.
<mgrwt>
<rscale>  0 0.13524743E+03</rscale>
<asrwt>0</asrwt>
<pdfrwt beam="2">  1        2 0.23205166E-01 0.14209075E+03</pdfrwt>
<pdfrwt beam="1">  1       -2 0.19215812E-01 0.14209075E+03</pdfrwt>
<totfact> 0.50459528E+03</totfact>
</mgrwt>
</event>
<event>
 7    1  0.7800420E-006  0.1266271E+03  0.7546771E-02  0.1246881E+00
         -2   -1    0    0    0  501 -0.00000000000E+00  0.00000000000E+00  0.40921442885E+02  0.40921442885E+02  0.00000000000E+00 0.  1.
          2   -1    0    0  501    0  0.00000000000E+00 -0.00000000000E+00 -0.33946538145E+03  0.33946538145E+03  0.00000000000E+00 0. -1.
         23    2    1    2    0    0 -0.20249386598E+02  0.48627333916E-01 -0.23327774721E+03  0.26542970371E+03  0.12499752096E+03 0.  0.
          5    1    3    3  502    0 -0.54454249201E+02 -0.12161822356E+02 -0.40250548131E+02  0.68959203910E+02  0.47000000000E+01 0. -1.
         -5    1    3    3    0  502  0.34204862604E+02  0.12210449690E+02 -0.19302719908E+03  0.19647049980E+03  0.47000000000E+01 0. -1.
        -11    1    1    2    0    0 -0.26041659447E+01  0.38393921510E+02 -0.58063695809E+02  0.69658220335E+02  0.00000000000E+00 0.  1.
         11    1    1    2    0    0  0.22853552542E+02 -0.38442548844E+02 -0.72024955459E+01  0.45298900291E+02  0.00000000000E+00 0. -1.
<mgrwt>
<rscale>  0 0.11773511E+03</rscale>
<asrwt>0</asrwt>
<pdfrwt beam="2">  1        2 0.52225443E-01 0.12662709E+03</pdfrwt>
<pdfrwt beam="1">  1       -2 0.62956067E-02 0.12662709E+03</pdfrwt>
<totfact> 0.12322853E+04</totfact>
</mgrwt>
</event>
<event>
 7    1  0.7800420E-006  0.1572179E+03  0.7546771E-02  0.1199760E+00
         -2   -1    0    0    0  501 -0.00000000000E+00  0.00000000000E+00  0.38058162590E+02  0.38058162590E+02  0.00000000000E+00 0.  1.
          2   -1    0    0  501    0  0.00000000000E+00 -0.00000000000E+00 -0.55729103728E+03  0.55729103728E+03  0.00000000000E+00 0. -1.
         23    2    1    2    0    0 -0.92355182458E+02  0.23409659453E+02 -0.31408559453E+03  0.35123671210E+03  0.12505988707E+03 0.  0.
          5    1    3    3  502    0 -0.10986548796E+03 -0.16470776853E+02 -0.19684966972E+03  0.22608315816E+03  0.47000000000E+01 0.  1.
         -5    1    3    3    0  502  0.17510305501E+02  0.39880436306E+02 -0.11723592481E+03  0.12515355394E+03  0.47000000000E+01 0.  1.
        -11    1    1    2    0    0  0.82316674431E+01  0.20547572794E+02 -0.51369262508E+01  0.22723360401E+02  0.00000000000E+00 0.  1.
         11    1    1    2    0    0  0.84123515015E+02 -0.43957232246E+02 -0.20001035391E+03  0.22138912737E+03  0.00000000000E+00 0. -1.
<mgrwt>
<rscale>  0 0.15058208E+03</rscale>
<asrwt>0</asrwt>
<pdfrwt beam="2">  1        2 0.85737085E-01 0.15721790E+03</pdfrwt>
<pdfrwt beam="1">  1       -2 0.58551018E-02 0.15721790E+03</pdfrwt>
<totfact> 0.81632639E+03</totfact>
</mgrwt>
</event>
<event>
 7    1  0.7800420E-006  0.1582041E+03  0.7546771E-02  0.1198894E+00
         -1   -1    0    0    0  501 -0.00000000000E+00  0.00000000000E+00  0.52873035222E+03  0.52873035222E+03  0.00000000000E+00 0.  1.
          1   -1    0    0  501    0  0.00000000000E+00 -0.00000000000E+00 -0.42860923021E+02  0.42860923021E+02  0.00000000000E+00 0. -1.
         23    2    1    2    0    0 -0.91897651981E+02  0.30956275246E+02  0.18834976526E+03  0.24597593934E+03  0.12500023698E+03 0.  0.
          5    1    3    3  502    0  0.24794067676E+02  0.18482686742E+02  0.10795456307E+02  0.33090593497E+02  0.47000000000E+01 0.  1.
         -5    1    3    3    0  502 -0.11669171966E+03  0.12473588504E+02  0.17755430895E+03  0.21288534584E+03  0.47000000000E+01 0.  1.
        -11    1    1    2    0    0  0.14625225504E+02 -0.43208341704E+02  0.16994735839E+03  0.17596295814E+03  0.00000000000E+00 0.  1.
         11    1    1    2    0    0  0.77272426477E+02  0.12252066457E+02  0.12757230555E+03  0.14965237776E+03  0.00000000000E+00 0. -1.
<mgrwt>
<rscale>  0 0.15129199E+03</rscale>
<asrwt>0</asrwt>
<pdfrwt beam="2">  1        1 0.65939886E-02 0.15820407E+03</pdfrwt>
<pdfrwt beam="1">  1       -1 0.81343126E-01 0.15820407E+03</pdfrwt>
<totfact> 0.17511226E+03</totfact>
</mgrwt>
</event>
<event>
 6    1  0.7800420E-006  0.2177398E+03  0.7546771E-02  0.1165840E+00
         -4   -1    0    0    0  501 -0.00000000000E+00  0.00000000000E+00  0.10831107073E+03  0.10831107073E+03  0.00000000000E+00 0.  1.
          4   -1    0    0  501    0  0.00000000000E+00 -0.00000000000E+00 -0.24708317740E+03  0.24708317740E+03  0.00000000000E+00 0. -1.
          5    1    1    2  502    0 -0.33061323706E+02 -0.17318424804E+02 -0.14201315977E+03  0.14691087949E+03  0.47000000000E+01 0. -1.
         -5    1    1    2    0  502  0.81606677065E+02  0.50373864872E+02  0.26452920476E+02  0.99594292033E+02  0.47000000000E+01 0.  1.
        -11    1    1    2    0    0 -0.65683973783E+02 -0.39787361319E+02 -0.37614699141E+02  0.85511894635E+02  0.00000000000E+00 0.  1.
         11    1    1    2    0    0  0.17138620424E+02  0.67319212503E+01  0.14402831769E+02  0.23377181967E+02  0.00000000000E+00 0. -1.
<mgrwt>
<rscale>  0 0.18204334E+03</rscale>
<asrwt>0</asrwt>
<pdfrwt beam="2">  1        4 0.38012797E-01 0.21773982E+03</pdfrwt>
<pdfrwt beam="1">  1       -4 0.16663242E-01 0.21773982E+03</pdfrwt>
<totfact> 0.37955859E+02</totfact>
</mgrwt>
</event>
<event>
 7    1  0.7800420E-006  0.2758573E+03  0.7546771E-02  0.1100067E+00
          2   -1    0    0  501    0  0.00000000000E+00  0.00000000000E+00  0.29463769961E+03  0.29463769961E+03  0.00000000000E+00 0. -1.
         -2   -1    0    0    0  501 -0.00000000000E+00 -0.00000000000E+00 -0.34381352428E+03  0.34381352428E+03  0.00000000000E+00 0.  1.
         23    2    1    2    0    0 -0.97756083372E+02  0.22564095837E+03  0.14622343493E+03  0.31221554539E+03  0.12500863942E+03 0.  0.
          5    1    3    3  502    0 -0.94895194189E+02  0.78624983752E+02  0.36269680759E+02  0.12854791205E+03  0.47000000000E+01 0.  1.
         -5    1    3    3    0  502 -0.28608891831E+01  0.14701597462E+03  0.10995375417E+03  0.18366763334E+03  0.47000000000E+01 0.  1.
        -11    1    1    2    0    0  0.25793189422E+02 -0.16082852288E+03 -0.10528502535E+03  0.19394854719E+03  0.00000000000E+00 0. -1.
         11    1    1    2    0    0  0.71962893949E+02 -0.64812435492E+02 -0.90114234246E+02  0.13228713132E+03  0.00000000000E+00 0.  1.
<mgrwt>
<rscale>  0 0.27212929E+03</rscale>
<asrwt>0</asrwt>
<pdfrwt beam="1">  1        2 0.45328877E-01 0.27585731E+03</pdfrwt>
<pdfrwt beam="2">  1       -2 0.52894388E-01 0.27585731E+03</pdfrwt>
<totfact> 0.38423739E+02</totfact>
</mgrwt>
</event>
<event>
 7    1  0.7800420E-006  0.1888398E+03  0.7546771E-02  0.1164437E+00
          2   -1    0    0  501    0  0.00000000000E+00  0.00000000000E+00  0.23123051726E+04  0.23123051726E+04  0.00000000000E+00 0. -1.
         -2   -1    0    0    0  501 -0.00000000000E+00 -0.00000000000E+00 -0.25977000563E+02  0.25977000563E+02  0.00000000000E+00 0.  1.
         23    2    1    2    0    0 -0.50148402994E+01 -0.14127028510E+03  0.19775242294E+04  0.19865202070E+04  0.12521187167E+03 0.  0.
          5    1    3    3  502    0  0.32166254669E+02 -0.14368340720E+02  0.14762479482E+03  0.15184296889E+03  0.47000000000E+01 0.  1.
         -5    1    3    3    0  502 -0.37181094968E+02 -0.12690194438E+03  0.18298994346E+04  0.18346772381E+04  0.47000000000E+01 0.  1.
        -11    1    1    2    0    0  0.31530292518E+02  0.57346366080E+02  0.63663703911E+02  0.91300778992E+02  0.00000000000E+00 0.  1.
         11    1    1    2    0    0 -0.26515452218E+02  0.83923919017E+02  0.24514023872E+03  0.26046118719E+03  0.00000000000E+00 0. -1.
<mgrwt>
<rscale>  0 0.18352285E+03</rscale>
<asrwt>0</asrwt>
<pdfrwt beam="1">  1        2 0.35573910E+00 0.18883976E+03</pdfrwt>
<pdfrwt beam="2">  1       -2 0.39964634E-02 0.18883976E+03</pdfrwt>
<totfact> 0.14099868E+03</totfact>
</mgrwt>
</event>
<event>
 7    1  0.7800420E-006  0.1586033E+03  0.7546771E-02  0.1197988E+00
         -1   -1    0    0    0  501 -0.00000000000E+00  0.00000000000E+00  0.19290599632E+02  0.19290599632E+02  0.00000000000E+00 0.  1.
          1   -1    0    0  501    0  0.00000000000E+00 -0.00000000000E+00 -0.13277821115E+04  0.13277821115E+04  0.00000000000E+00 0. -1.
         23    2    1    2    0    0  0.89157681647E+02  0.39766946177E+02 -0.97286507067E+03  0.98570860569E+03  0.12499802955E+03 0.  0.
          5    1    3    3  502    0  0.62318959164E+02  0.24138877582E+02 -0.93080998429E+03  0.93321790325E+03  0.47000000000E+01 0. -1.
         -5    1    3    3    0  502  0.26838722483E+02  0.15628068594E+02 -0.42055086379E+02  0.52490702442E+02  0.47000000000E+01 0. -1.
        -11    1    1    2    0    0 -0.48359822163E+02  0.25837765681E+02 -0.16961612383E+03  0.17825793670E+03  0.00000000000E+00 0. -1.
         11    1    1    2    0    0 -0.40797859483E+02 -0.65604711858E+02 -0.16601031733E+03  0.18310616870E+03  0.00000000000E+00 0.  1.
<mgrwt>
<rscale>  0 0.15204029E+03</rscale>
<asrwt>0</asrwt>
<pdfrwt beam="2">  1        1 0.20427417E+00 0.15860331E+03</pdfrwt>
<pdfrwt beam="1">  1       -1 0.29677846E-02 0.15860331E+03</pdfrwt>
<totfact> 0.35471763E+03</totfact>
</mgrwt>
</event>
<event>
 7    1  0.7800420E-006  0.1315828E+03  0.7546771E-02  0.1238465E+00
          3   -1    0    0  501    0  0.00000000000E+00  0.00000000000E+00  0.24603808523E+02  0.24603808523E+02  0.00000000000E+00 0. -1.
         -3   -1    0    0    0  501 -0.00000000000E+00 -0.00000000000E+00 -0.59039410441E+03  0.59039410441E+03  0.00000000000E+00 0.  1.
         23    2    1    2    0    0  0.41026819611E+02  0.21970536691E+01 -0.23386943575E+03  0.26834484762E+03  0.12500406910E+03 0.  0.
          5    1    3    3  502    0 -0.13099797895E+02  0.52299061714E+02 -0.69187285219E+02  0.87839438733E+02  0.47000000000E+01 0. -1.
         -5    1    3    3    0  502  0.54126617507E+02 -0.50102008044E+02 -0.16468215053E+03  0.18050540889E+03  0.47000000000E+01 0. -1.
        -11    1    1    2    0    0 -0.64347988609E+02 -0.55431204972E+00 -0.30147595092E+03  0.30826728643E+03  0.00000000000E+00 0.  1.
         11    1    1    2    0    0  0.23321168998E+02 -0.16427416194E+01 -0.30444909214E+02  0.38385778884E+02  0.00000000000E+00 0. -1.
<mgrwt>
<rscale>  0 0.12285209E+03</rscale>
<asrwt>0</asrwt>
<pdfrwt beam="1">  1        3 0.37852010E-02 0.13158284E+03</pdfrwt>
<pdfrwt beam="2">  1       -3 0.90829869E-01 0.13158284E+03</pdfrwt>
<totfact> 0.91607351E+02</totfact>
</mgrwt>
</event>
<event>
 7    1  0.7800420E-006  0.1348952E+03  0.7546771E-02  0.1230076E+00
          2   -1    0    0  501    0  0.00000000000E+00  0.00000000000E+00  0.60399134519E+02  0.60399134519E+02  0.00000000000E+00 0.  1.
         -2   -1    0    0    0  501 -0.00000000000E+00 -0.00000000000E+00 -0.24889223049E+03  0.24889223049E+03  0.00000000000E+00 0. -1.
         23    2    1    2    0    0 -0.31132313286E+02 -0.41834476418E+02 -0.99148691242E+02  0.16741317813E+03  0.12440805798E+03 0.  0.
          5    1    3    3  502    0  0.43551038365E+02 -0.13702451145E+02 -0.67074895953E+02  0.81274730250E+02  0.47000000000E+01 0. -1.
         -5    1    3    3    0  502 -0.74683351651E+02 -0.28132025273E+02 -0.32073795288E+02  0.86138447885E+02  0.47000000000E+01 0. -1.
        -11    1    1    2    0    0  0.58236592646E+01  0.25437336356E+02 -0.10479439107E+03  0.10799461787E+03  0.00000000000E+00 0. -1.
         11    1    1    2    0    0  0.25308654022E+02  0.16397140062E+02  0.15449986344E+02  0.33883569007E+02  0.00000000000E+00 0.  1.
<mgrwt>
<rscale>  0 0.12824958E+03</rscale>
<asrwt>0</asrwt>
<pdfrwt beam="1">  1        2 0.92921745E-02 0.13489518E+03</pdfrwt>
<pdfrwt beam="2">  1       -2 0.38291113E-01 0.13489518E+03</pdfrwt>
<totfact> 0.43380596E+03</totfact>
</mgrwt>
</event>
<event>
 6    1  0.7800420E-006  0.1411257E+03  0.7546771E-02  0.1228632E+00
          3   -1    0    0  501    0  0.00000000000E+00  0.00000000000E+00  0.10551201049E+04  0.10551201049E+04  0.00000000000E+00 0. -1.
         -3   -1    0    0    0  501 -0.00000000000E+00 -0.00000000000E+00 -0.30392503024E+02  0.30392503024E+02  0.00000000000E+00 0.  1.
          5    1    1    2  502    0 -0.42335449924E+02  0.55443888982E+02  0.54095739764E+03  0.54545697466E+03  0.47000000000E+01 0. -1.
         -5    1    1    2    0  502  0.55945020381E+02 -0.41681533532E+02  0.41137003195E+03  0.41727040241E+03  0.47000000000E+01 0.  1.
        -11    1    1    2    0    0  0.29798444965E+02  0.26534978278E+02  0.30828657118E+02  0.50422797366E+02  0.00000000000E+00 0. -1.
         11    1    1    2    0    0 -0.43408015422E+02 -0.40297333728E+02  0.41571515202E+02  0.72362433518E+02  0.00000000000E+00 0.  1.
<mgrwt>
<rscale>  0 0.12921064E+03</rscale>
<asrwt>0</asrwt>
<pdfrwt beam="1">  1        3 0.16232614E+00 0.14112572E+03</pdfrwt>
<pdfrwt beam="2">  1       -3 0.46757705E-02 0.14112572E+03</pdfrwt>
<totfact> 0.16816973E+02</totfact>
</mgrwt>
</event>
<event>
 7    1  0.7800420E-006  0.1357702E+03  0.7546771E-02  0.1231336E+00
          2   -1    0    0  501    0  0.00000000000E+00  0.00000000000E+00  0.53818913661E+03  0.53818913661E+03  0.00000000000E+00 0. -1.
         -2   -1    0    0    0  501 -0.00000000000E+00 -0.00000000000E+00 -0.34487166463E+02  0.34487166463E+02  0.00000000000E+00 0.  1.
         23    2    1    2    0    0 -0.34973951997E+02 -0.39841327485E+02  0.40932209586E+03  0.43125180249E+03  0.12499212095E+03 0.  0.
          5    1    3    3  502    0  0.23621081091E+02 -0.60256446461E+02  0.13269500686E+03  0.14771204981E+03  0.47000000000E+01 0.  1.
         -5    1    3    3    0  502 -0.58595033088E+02  0.20415118976E+02  0.27662708900E+03  0.28353975268E+03  0.47000000000E+01 0.  1.
        -11    1    1    2    0    0  0.45694457166E+02 -0.12672934164E+02  0.24552198934E+02  0.53398475152E+02  0.00000000000E+00 0.  1.
         11    1    1    2    0    0 -0.10720505169E+02  0.52514261649E+02  0.69827675356E+02  0.88026025431E+02  0.00000000000E+00 0. -1.
<mgrwt>
<rscale>  0 0.12741953E+03</rscale>
<asrwt>0</asrwt>
<pdfrwt beam="1">  1        2 0.82798322E-01 0.13577017E+03</pdfrwt>
<pdfrwt beam="2">  1       -2 0.53057183E-02 0.13577017E+03</pdfrwt>
<totfact> 0.97618003E+03</totfact>
</mgrwt>
</event>
<event>
 7    1  0.7800420E-006  0.1259962E+03  0.7546771E-02  0.1249131E+00
         -4   -1    0    0    0  501 -0.00000000000E+00  0.00000000000E+00  0.21735771512E+03  0.21735771512E+03  0.00000000000E+00 0.  1.
          4   -1    0    0  501    0  0.00000000000E+00 -0.00000000000E+00 -0.59927189072E+02  0.59927189072E+02  0.00000000000E+00 0. -1.
         23    2    1    2    0    0  0.15765685457E+02  0.12129071902E+01  0.48980604432E+02  0.13518184206E+03  0.12500001132E+03 0.  0.
          5    1    3    3  502    0  0.11733485048E+02  0.60309545773E+02  0.43668904252E+02  0.75524692527E+02  0.47000000000E+01 0. -1.
         -5    1    3    3    0  502  0.40322004086E+01 -0.59096638583E+02  0.53117001798E+01  0.59657149536E+02  0.47000000000E+01 0. -1.
        -11    1    1    2    0    0 -0.15659702111E+02 -0.29632721929E+02  0.10862956430E+03  0.11368248202E+03  0.00000000000E+00 0.  1.
         11    1    1    2    0    0 -0.10598334526E+00  0.28419814739E+02 -0.17964267908E+00  0.28420580110E+02  0.00000000000E+00 0. -1.
<mgrwt>
<rscale>  0 0.11641491E+03</rscale>
<asrwt>0</asrwt>
<pdfrwt beam="2">  1        4 0.92195677E-02 0.12599615E+03</pdfrwt>
<pdfrwt beam="1">  1       -4 0.33439648E-01 0.12599615E+03</pdfrwt>
<totfact> 0.12195177E+03</totfact>
</mgrwt>
</event>
<event>
 6    1  0.7800420E-006  0.4925241E+03  0.7546771E-02  0.1065732E+00
         -2   -1    0    0    0  501 -0.00000000000E+00  0.00000000000E+00  0.70009337220E+03  0.70009337220E+03  0.00000000000E+00 0.  1.
          2   -1    0    0  501    0  0.00000000000E+00 -0.00000000000E+00 -0.14048043462E+03  0.14048043462E+03  0.00000000000E+00 0. -1.
          5    1    1    2  502    0 -0.48997623830E+02 -0.12403621994E+03 -0.87565860900E+02  0.15961084234E+03  0.47000000000E+01 0. -1.
         -5    1    1    2    0  502 -0.27163633333E+01  0.51205457853E+02  0.44740845470E+03  0.45036184661E+03  0.47000000000E+01 0.  1.
        -11    1    1    2    0    0 -0.31293200036E+01 -0.12953493339E+02  0.25280266959E+02  0.28577570416E+02  0.00000000000E+00 0. -1.
         11    1    1    2    0    0  0.54843307167E+02  0.85784255423E+02  0.17449007682E+03  0.20202354746E+03  0.00000000000E+00 0.  1.
<mgrwt>
<rscale>  0 0.34251067E+03</rscale>
<asrwt>0</asrwt>
<pdfrwt beam="2">  1        2 0.21612375E-01 0.49252410E+03</pdfrwt>
<pdfrwt beam="1">  1       -2 0.10770667E+00 0.49252410E+03</pdfrwt>
<totfact> 0.18227552E+02</totfact>
</mgrwt>
</event>
<event>
 7    1  0.7800420E-006  0.1272584E+03  0.7546771E-02  0.1243415E+00
         -3   -1    0    0    0  501 -0.00000000000E+00  0.00000000000E+00  0.23046407986E+03  0.23046407986E+03  0.00000000000E+00 0.  1.
          3   -1    0    0  501    0  0.00000000000E+00 -0.00000000000E+00 -0.56605163983E+02  0.56605163983E+02  0.00000000000E+00 0. -1.
         23    2    1    2    0    0 -0.16026093391E+02 -0.17696362758E+02  0.82647670028E+02  0.15174106355E+03  0.12499886432E+03 0.  0.
          5    1    3    3  502    0 -0.29867859021E+02 -0.38494567523E+02  0.10629338900E+03  0.11702262719E+03  0.47000000000E+01 0. -1.
         -5    1    3    3    0  502  0.13841765630E+02  0.20798204765E+02 -0.23645718968E+02  0.34718436352E+02  0.47000000000E+01 0. -1.
        -11    1    1    2    0    0  0.22677542362E+02  0.50318540016E+02  0.23723956900E+02  0.60075390368E+02  0.00000000000E+00 0. -1.
         11    1    1    2    0    0 -0.66514489705E+01 -0.32622177258E+02  0.67487288951E+02  0.75252789931E+02  0.00000000000E+00 0.  1.
<mgrwt>
<rscale>  0 0.11980739E+03</rscale>
<asrwt>0</asrwt>
<pdfrwt beam="2">  1        3 0.87084869E-02 0.12725845E+03</pdfrwt>
<pdfrwt beam="1">  1       -3 0.35456012E-01 0.12725845E+03</pdfrwt>
<totfact> 0.16505974E+03</totfact>
</mgrwt>
</event>
<event>
 6    1  0.7800420E-006  0.1404770E+03  0.7546771E-02  0.1230900E+00
          1   -1    0    0  501    0  0.00000000000E+00  0.00000000000E+00  0.15580007083E+04  0.15580007083E+04  0.00000000000E+00 0. -1.
         -1   -1    0    0    0  501 -0.00000000000E+00 -0.00000000000E+00 -0.96253618934E+01  0.96253618934E+01  0.00000000000E+00 0.  1.
          5    1    1    2  502    0  0.57219909075E+02  0.79066785320E+01  0.58059280838E+03  0.58347813387E+03  0.47000000000E+01 0. -1.
         -5    1    1    2    0  502 -0.73210105827E+02 -0.31269727026E+02  0.53070706411E+03  0.53666525257E+03  0.47000000000E+01 0.  1.
        -11    1    1    2    0    0 -0.14561269743E+02  0.51071448679E+02  0.28542232928E+03  0.29032090778E+03  0.00000000000E+00 0. -1.
         11    1    1    2    0    0  0.30551466495E+02 -0.27708400185E+02  0.15165314461E+03  0.15716177594E+03  0.00000000000E+00 0.  1.
<mgrwt>
<rscale>  0 0.12770609E+03</rscale>
<asrwt>0</asrwt>
<pdfrwt beam="1">  1        1 0.23969222E+00 0.14047704E+03</pdfrwt>
<pdfrwt beam="2">  1       -1 0.14808261E-02 0.14047704E+03</pdfrwt>
<totfact> 0.68321306E+03</totfact>
</mgrwt>
</event>
<event>
 7    1  0.7800420E-006  0.1401163E+03  0.7546771E-02  0.1224216E+00
          2   -1    0    0  501    0  0.00000000000E+00  0.00000000000E+00  0.65645395451E+02  0.65645395451E+02  0.00000000000E+00 0. -1.
         -2   -1    0    0    0  501 -0.00000000000E+00 -0.00000000000E+00 -0.24530415800E+03  0.24530415800E+03  0.00000000000E+00 0.  1.
         23    2    1    2    0    0  0.57436006585E+02 -0.25775833416E+02 -0.77875284996E+02  0.16030324434E+03  0.12517700145E+03 0.  0.
          5    1    3    3  502    0  0.38585893818E+02 -0.52878723538E+00  0.29180630770E+02  0.48608127199E+02  0.47000000000E+01 0. -1.
         -5    1    3    3    0  502  0.18850112767E+02 -0.25247046180E+02 -0.10705591577E+03  0.11169511714E+03  0.47000000000E+01 0. -1.
        -11    1    1    2    0    0 -0.54970477470E+02  0.54039464115E-01 -0.11046543957E+03  0.12338707247E+03  0.00000000000E+00 0.  1.
         11    1    1    2    0    0 -0.24655291150E+01  0.25721793952E+02  0.86819620159E+01  0.27259236643E+02  0.00000000000E+00 0. -1.
<mgrwt>
<rscale>  0 0.13220757E+03</rscale>
<asrwt>0</asrwt>
<pdfrwt beam="1">  1        2 0.10099292E-01 0.14011627E+03</pdfrwt>
<pdfrwt beam="2">  1       -2 0.37739102E-01 0.14011627E+03</pdfrwt>
<totfact> 0.40332317E+03</totfact>
</mgrwt>
</event>
<event>
 7    1  0.7800420E-006  0.1292735E+03  0.7546771E-02  0.1242857E+00
          4   -1    0    0  501    0  0.00000000000E+00  0.00000000000E+00  0.64504697999E+02  0.64504697999E+02  0.00000000000E+00 0. -1.
         -4   -1    0    0    0  501 -0.00000000000E+00 -0.00000000000E+00 -0.20181484484E+03  0.20181484484E+03  0.00000000000E+00 0.  1.
         23    2    1    2    0    0  0.29217615141E+02  0.15246586414E+02 -0.59089375777E+02  0.14213794933E+03  0.12500205949E+03 0.  0.
          5    1    3    3  502    0 -0.33277849872E+01 -0.52216750162E+02 -0.35743235105E+02  0.63540003197E+02  0.47000000000E+01 0.  1.
         -5    1    3    3    0  502  0.32545400128E+02  0.67463336576E+02 -0.23346140671E+02  0.78597946129E+02  0.47000000000E+01 0.  1.
        -11    1    1    2    0    0  0.17764093142E+01 -0.42544182264E+02 -0.89176768470E+01  0.43505034593E+02  0.00000000000E+00 0.  1.
         11    1    1    2    0    0 -0.30994024455E+02  0.27297595851E+02 -0.69303094214E+02  0.80676558917E+02  0.00000000000E+00 0. -1.
<mgrwt>
<rscale>  0 0.12014552E+03</rscale>
<asrwt>0</asrwt>
<pdfrwt beam="1">  1        4 0.99237999E-02 0.12927352E+03</pdfrwt>
<pdfrwt beam="2">  1       -4 0.31048437E-01 0.12927352E+03</pdfrwt>
<totfact> 0.12487157E+03</totfact>
</mgrwt>
</event>
<event>
 7    1  0.7800420E-006  0.1612536E+03  0.7546771E-02  0.1193130E+00
          2   -1    0    0  501    0  0.00000000000E+00  0.00000000000E+00  0.63007431439E+03  0.63007431439E+03  0.00000000000E+00 0. -1.
         -2   -1    0    0    0  501 -0.00000000000E+00 -0.00000000000E+00 -0.43204515922E+02  0.43204515922E+02  0.00000000000E+00 0.  1.
         23    2    1    2    0    0 -0.56754692365E+02 -0.84583726843E+02  0.44248835826E+03  0.47095505755E+03  0.12500886803E+03 0.  0.
          5    1    3    3  502    0 -0.46221910463E+01 -0.29889219225E+02  0.35043671671E+03  0.35177082382E+03  0.47000000000E+01 0.  1.
         -5    1    3    3    0  502 -0.52132501319E+02 -0.54694507618E+02  0.92051641549E+02  0.11918423373E+03  0.47000000000E+01 0.  1.
        -11    1    1    2    0    0  0.69373553667E+02  0.22497279694E+02  0.49162274178E+02  0.87953094001E+02  0.00000000000E+00 0.  1.
         11    1    1    2    0    0 -0.12618861302E+02  0.62086447149E+02  0.95219166030E+02  0.11437067876E+03  0.00000000000E+00 0. -1.
<mgrwt>
<rscale>  0 0.15613547E+03</rscale>
<asrwt>0</asrwt>
<pdfrwt beam="1">  1        2 0.96934503E-01 0.16125359E+03</pdfrwt>
<pdfrwt beam="2">  1       -2 0.66468491E-02 0.16125359E+03</pdfrwt>
<totfact> 0.58550609E+03</totfact>
</mgrwt>
</event>
<event>
 7    1  0.7800420E-006  0.1417083E+03  0.7546771E-02  0.1221981E+00
          2   -1    0    0  501    0  0.00000000000E+00  0.00000000000E+00  0.15497835292E+04  0.15497835292E+04  0.00000000000E+00 0. -1.
         -2   -1    0    0    0  501 -0.00000000000E+00 -0.00000000000E+00 -0.26879452126E+02  0.26879452126E+02  0.00000000000E+00 0.  1.
         23    2    1    2    0    0 -0.61011937196E+02 -0.27092102666E+02  0.14106292849E+04  0.14177292508E+04  0.12499924345E+03 0.  0.
          5    1    3    3  502    0 -0.26939048861E+02  0.49083520423E+02  0.68553124937E+03  0.68782998494E+03  0.47000000000E+01 0. -1.
         -5    1    3    3    0  502 -0.34072888336E+02 -0.76175623089E+02  0.72509803549E+03  0.72989926589E+03  0.47000000000E+01 0. -1.
        -11    1    1    2    0    0  0.67683249203E+02 -0.51951433014E+01  0.10522200004E+03  0.12521853309E+03  0.00000000000E+00 0. -1.
         11    1    1    2    0    0 -0.66713120069E+01  0.32287245967E+02  0.70527921320E+01  0.33715197358E+02  0.00000000000E+00 0.  1.
<mgrwt>
<rscale>  0 0.13376001E+03</rscale>
<asrwt>0</asrwt>
<pdfrwt beam="1">  1        2 0.23842816E+00 0.14170832E+03</pdfrwt>
<pdfrwt beam="2">  1       -2 0.41353016E-02 0.14170832E+03</pdfrwt>
<totfact> 0.33353817E+03</totfact>
</mgrwt>
</event>
<event>
 7    1  0.7800420E-006  0.1271581E+03  0.7546771E-02  0.1237430E+00
         -1   -1    0    0    0  501 -0.00000000000E+00  0.00000000000E+00  0.31791113534E+02  0.31791113534E+02  0.00000000000E+00 0.  1.
          1   -1    0    0  501    0  0.00000000000E+00 -0.00000000000E+00 -0.72559161178E+03  0.72559161178E+03  0.00000000000E+00 0. -1.
         23    2    1    2    0    0  0.76212058550E+01 -0.21934545347E+02 -0.59094039467E+03  0.60446649230E+03  0.12501993126E+03 0.  0.
          5    1    3    3  502    0  0.61182436158E+02  0.13139948547E+02 -0.30942089538E+03  0.31572033390E+03  0.47000000000E+01 0. -1.
         -5    1    3    3    0  502 -0.53561230303E+02 -0.35074493894E+02 -0.28151949929E+03  0.28874615841E+03  0.47000000000E+01 0. -1.
        -11    1    1    2    0    0  0.14494720621E+02 -0.22123048010E+02  0.11151529436E+02  0.28703358478E+02  0.00000000000E+00 0.  1.
         11    1    1    2    0    0 -0.22115926476E+02  0.44057593356E+02 -0.11401163301E+03  0.12421287453E+03  0.00000000000E+00 0. -1.
<mgrwt>
<rscale>  0 0.12350166E+03</rscale>
<asrwt>0</asrwt>
<pdfrwt beam="2">  1        1 0.11162948E+00 0.12715813E+03</pdfrwt>
<pdfrwt beam="1">  1       -1 0.48909404E-02 0.12715813E+03</pdfrwt>
<totfact> 0.47081884E+03</totfact>
</mgrwt>
</event>
<event>
 6    1  0.7800420E-006  0.1795880E+03  0.7546771E-02  0.1176052E+00
          2   -1    0    0  501    0  0.00000000000E+00  0.00000000000E+00  0.15627139440E+04  0.15627139440E+04  0.00000000000E+00 0. -1.
         -2   -1    0    0    0  501 -0.00000000000E+00 -0.00000000000E+00 -0.20141524378E+02  0.20141524378E+02  0.00000000000E+00 0.  1.
          5    1    1    2  502    0 -0.30535188138E+02 -0.10703305366E+03  0.57709827514E+03  0.58775248316E+03  0.47000000000E+01 0. -1.
         -5    1    1    2    0  502 -0.57143342873E+02  0.26067762344E+02  0.54479689666E+03  0.54842559977E+03  0.47000000000E+01 0.  1.
        -11    1    1    2    0    0  0.70164315836E+02  0.99773374448E+02  0.37406896230E+03  0.39345310524E+03  0.00000000000E+00 0.  1.
         11    1    1    2    0    0  0.17514215175E+02 -0.18808083135E+02  0.46608285478E+02  0.53224280170E+02  0.00000000000E+00 0. -1.
<mgrwt>
<rscale>  0 0.17173333E+03</rscale>
<asrwt>0</asrwt>
<pdfrwt beam="1">  1        2 0.24041743E+00 0.17958803E+03</pdfrwt>
<pdfrwt beam="2">  1       -2 0.30986973E-02 0.17958803E+03</pdfrwt>
<totfact> 0.50605432E+03</totfact>
</mgrwt>
</event>
<event>
 7    1  0.7800420E-006  0.2479985E+03  0.7546771E-02  0.1117172E+00
         -1   -1    0    0    0  501 -0.00000000000E+00  0.00000000000E+00  0.44915652374E+02  0.44915652374E+02  0.00000000000E+00 0.  1.
          1   -1    0    0  501    0  0.00000000000E+00 -0.00000000000E+00 -0.13118540729E+04  0.13118540729E+04  0.00000000000E+00 0. -1.
         23    2    1    2    0    0  0.21197902073E+03 -0.30697446603E+02 -0.75256225215E+03  0.79237186762E+03  0.12500317911E+03 0.  0.
          5    1    3    3  502    0  0.75363471857E+02  0.70398374478E+01 -0.10535840662E+03  0.12981408262E+03  0.47000000000E+01 0.  1.
         -5    1    3    3    0  502  0.13661554887E+03 -0.37737284051E+02 -0.64720384553E+03  0.66255778500E+03  0.47000000000E+01 0.  1.
        -11    1    1    2    0    0 -0.16794055295E+03 -0.86372675874E+01 -0.32349579406E+03  0.36459314378E+03  0.00000000000E+00 0.  1.
         11    1    1    2    0    0 -0.44038467782E+02  0.39334714191E+02 -0.19088037430E+03  0.19980471385E+03  0.00000000000E+00 0. -1.
<mgrwt>
<rscale>  0 0.24397641E+03</rscale>
<asrwt>0</asrwt>
<pdfrwt beam="2">  1        1 0.20182369E+00 0.24799845E+03</pdfrwt>
<pdfrwt beam="1">  1       -1 0.69101007E-02 0.24799845E+03</pdfrwt>
<totfact> 0.10344363E+03</totfact>
</mgrwt>
</event>
<event>
 7    1  0.7800420E-006  0.1371678E+03  0.7546771E-02  0.1228193E+00
         -1   -1    0    0    0  501 -0.00000000000E+00  0.00000000000E+00  0.65039329787E+02  0.65039329787E+02  0.00000000000E+00 0.  1.
          1   -1    0    0  501    0  0.00000000000E+00 -0.00000000000E+00 -0.24199974334E+03  0.24199974334E+03  0.00000000000E+00 0. -1.
         23    2    1    2    0    0 -0.39118774519E+02  0.40730882587E+02 -0.12779315273E+03  0.18747295196E+03  0.12500293802E+03 0.  0.
          5    1    3    3  502    0 -0.75661724190E+02  0.58111436642E+02 -0.79352179789E+02  0.12417928174E+03  0.47000000000E+01 0. -1.
         -5    1    3    3    0  502  0.36542949671E+02 -0.17380554056E+02 -0.48440972942E+02  0.63293670216E+02  0.47000000000E+01 0. -1.
        -11    1    1    2    0    0  0.28405494126E+02  0.93721657061E+01 -0.60140698603E+02  0.67168543344E+02  0.00000000000E+00 0. -1.
         11    1    1    2    0    0  0.10713280394E+02 -0.50103048293E+02  0.10973437784E+02  0.52397577824E+02  0.00000000000E+00 0.  1.
<mgrwt>
<rscale>  0 0.12950456E+03</rscale>
<asrwt>0</asrwt>
<pdfrwt beam="2">  1        1 0.37230729E-01 0.13716785E+03</pdfrwt>
<pdfrwt beam="1">  1       -1 0.10006051E-01 0.13716785E+03</pdfrwt>
<totfact> 0.66746075E+03</totfact>
</mgrwt>
</event>
<event>
 7    1  0.7800420E-006  0.1355453E+03  0.7546771E-02  0.1231925E+00
         -1   -1    0    0    0  501 -0.00000000000E+00  0.00000000000E+00  0.58811979542E+02  0.58811979542E+02  0.00000000000E+00 0.  1.
          1   -1    0    0  501    0  0.00000000000E+00 -0.00000000000E+00 -0.25214457064E+03  0.25214457064E+03  0.00000000000E+00 0. -1.
         23    2    1    2    0    0 -0.52875795892E+01 -0.52140325054E+02 -0.13458566348E+03  0.19101265981E+03  0.12500385355E+03 0.  0.
          5    1    3    3  502    0 -0.49239823660E+02 -0.68260001655E+02 -0.62536341789E+02  0.10496128860E+03  0.47000000000E+01 0.  1.
         -5    1    3    3    0  502  0.43952244071E+02  0.16119676601E+02 -0.72049321687E+02  0.86051371216E+02  0.47000000000E+01 0.  1.
        -11    1    1    2    0    0  0.33716146307E+02  0.64866350851E+02 -0.45414808563E+02  0.86063504642E+02  0.00000000000E+00 0. -1.
         11    1    1    2    0    0 -0.28428566718E+02 -0.12726025797E+02 -0.13332119057E+02  0.33880385723E+02  0.00000000000E+00 0.  1.
<mgrwt>
<rscale>  0 0.12703325E+03</rscale>
<asrwt>0</asrwt>
<pdfrwt beam="2">  1        1 0.38791473E-01 0.13554533E+03</pdfrwt>
<pdfrwt beam="1">  1       -1 0.90479967E-02 0.13554533E+03</pdfrwt>
<totfact> 0.73885230E+03</totfact>
</mgrwt>
</event>
<event>
 6    1  0.7800420E-006  0.3026267E+03  0.7546771E-02  0.1083935E+00
          4   -1    0    0  501    0  0.00000000000E+00  0.00000000000E+00  0.13737982498E+04  0.13737982498E+04  0.00000000000E+00 0. -1.
         -4   -1    0    0    0  501 -0.00000000000E+00 -0.00000000000E+00 -0.16666001881E+02  0.16666001881E+02  0.00000000000E+00 0.  1.
          5    1    1    2  502    0 -0.35593093389E+02  0.77435744067E+02  0.10824334143E+04  0.10857934192E+04  0.47000000000E+01 0. -1.
         -5    1    1    2    0  502  0.64831405715E+01 -0.14094752889E+02  0.17556646804E+02  0.23896004220E+02  0.47000000000E+01 0.  1.
        -11    1    1    2    0    0 -0.25105040651E+02 -0.15108102367E+02  0.13956871033E+03  0.14261115920E+03  0.00000000000E+00 0. -1.
         11    1    1    2    0    0  0.54214993469E+02 -0.48232888811E+02  0.11757347645E+03  0.13816366905E+03  0.00000000000E+00 0.  1.
<mgrwt>
<rscale>  0 0.30262666E+03</rscale>
<asrwt>0</asrwt>
<pdfrwt beam="1">  1        4 0.21135349E+00 0.30262666E+03</pdfrwt>
<pdfrwt beam="2">  1       -4 0.25640014E-02 0.30262666E+03</pdfrwt>
<totfact> 0.15894959E+02</totfact>
</mgrwt>
</event>
<event>
 7    1  0.7800420E-006  0.1613563E+03  0.7546771E-02  0.1192098E+00
         -1   -1    0    0    0  501 -0.00000000000E+00  0.00000000000E+00  0.50570122985E+02  0.50570122985E+02  0.00000000000E+00 0.  1.
          1   -1    0    0  501    0  0.00000000000E+00 -0.00000000000E+00 -0.80631145632E+03  0.80631145632E+03  0.00000000000E+00 0. -1.
         23    2    1    2    0    0 -0.22669243654E+02 -0.99478922782E+02 -0.66895616890E+03  0.68814112175E+03  0.12500358736E+03 0.  0.
          5    1    3    3  502    0  0.16202463906E+01 -0.12541450910E+03 -0.52083328494E+03  0.53574324540E+03  0.47000000000E+01 0. -1.
         -5    1    3    3    0  502 -0.24289490044E+02  0.25935586315E+02 -0.14812288396E+03  0.15239787635E+03  0.47000000000E+01 0. -1.
        -11    1    1    2    0    0  0.53057647052E+02  0.15647547791E+02 -0.37842827859E+02  0.67022677378E+02  0.00000000000E+00 0. -1.
         11    1    1    2    0    0 -0.30388403399E+02  0.83831374991E+02 -0.48942336575E+02  0.10171778017E+03  0.00000000000E+00 0.  1.
<mgrwt>
<rscale>  0 0.15702392E+03</rscale>
<asrwt>0</asrwt>
<pdfrwt beam="2">  1        1 0.12404791E+00 0.16135628E+03</pdfrwt>
<pdfrwt beam="1">  1       -1 0.77800194E-02 0.16135628E+03</pdfrwt>
<totfact> 0.20284643E+03</totfact>
</mgrwt>
</event>
<event>
 7    1  0.7800420E-006  0.1273684E+03  0.7546771E-02  0.1247240E+00
          1   -1    0    0  501    0  0.00000000000E+00  0.00000000000E+00  0.34132748205E+03  0.34132748205E+03  0.00000000000E+00 0. -1.
         -1   -1    0    0    0  501 -0.00000000000E+00 -0.00000000000E+00 -0.10730694076E+03  0.10730694076E+03  0.00000000000E+00 0.  1.
         23    2    1    2    0    0  0.21521623324E+02 -0.11611686911E+02  0.30607738645E+03  0.33152085684E+03  0.12499880191E+03 0.  0.
          5    1    3    3  502    0  0.54990960360E+02 -0.45177384662E+02  0.23782843338E+03  0.24829308393E+03  0.47000000000E+01 0. -1.
         -5    1    3    3    0  502 -0.33469337036E+02  0.33565697751E+02  0.68248953070E+02  0.83227772902E+02  0.47000000000E+01 0. -1.
        -11    1    1    2    0    0 -0.48314928133E+02  0.30724942246E+02 -0.57435679954E+02  0.81100010409E+02  0.00000000000E+00 0.  1.
         11    1    1    2    0    0  0.26793304809E+02 -0.19113255335E+02 -0.14621165204E+02  0.36013555559E+02  0.00000000000E+00 0. -1.
<mgrwt>
<rscale>  0 0.11752301E+03</rscale>
<asrwt>0</asrwt>
<pdfrwt beam="1">  1        1 0.52511920E-01 0.12736841E+03</pdfrwt>
<pdfrwt beam="2">  1       -1 0.16508760E-01 0.12736841E+03</pdfrwt>
<totfact> 0.20002131E+03</totfact>
</mgrwt>
</event>
<event>
 7    1  0.7800420E-006  0.1968733E+03  0.7546771E-02  0.1156737E+00
          2   -1    0    0  501    0  0.00000000000E+00  0.00000000000E+00  0.26016270926E+03  0.26016270926E+03  0.00000000000E+00 0. -1.
         -2   -1    0    0    0  501 -0.00000000000E+00 -0.00000000000E+00 -0.16454101535E+03  0.16454101535E+03  0.00000000000E+00 0.  1.
         23    2    1    2    0    0 -0.91321843769E+02 -0.12163452084E+03  0.13983296197E+03  0.24147948483E+03  0.12499779410E+03 0.  0.
          5    1    3    3  502    0 -0.58535183979E+02 -0.32693352410E+02  0.12963813131E+03  0.14602519695E+03  0.47000000000E+01 0.  1.
         -5    1    3    3    0  502 -0.32786659790E+02 -0.88941168432E+02  0.10194830667E+02  0.95454287879E+02  0.47000000000E+01 0.  1.
        -11    1    1    2    0    0  0.30779757219E+02  0.38482496783E+02 -0.61623709945E+02  0.78903597132E+02  0.00000000000E+00 0.  1.
         11    1    1    2    0    0  0.60542086550E+02  0.83152024059E+02  0.17412441881E+02  0.10432064264E+03  0.00000000000E+00 0. -1.
<mgrwt>
<rscale>  0 0.19192399E+03</rscale>
<asrwt>0</asrwt>
<pdfrwt beam="1">  1        2 0.40025033E-01 0.19687327E+03</pdfrwt>
<pdfrwt beam="2">  1       -2 0.25314002E-01 0.19687327E+03</pdfrwt>
<totfact> 0.17572401E+03</totfact>
</mgrwt>
</event>
<event>
 7    1  0.7800420E-006  0.1460270E+03  0.7546771E-02  0.1216846E+00
          1   -1    0    0  501    0  0.00000000000E+00  0.00000000000E+00  0.71768701150E+03  0.71768701150E+03  0.00000000000E+00 0. -1.
         -1   -1    0    0    0  501 -0.00000000000E+00 -0.00000000000E+00 -0.26658181083E+02  0.26658181083E+02  0.00000000000E+00 0.  1.
         23    2    1    2    0    0 -0.46447738108E+01 -0.75356979494E+02  0.50685482827E+03  0.52747103664E+03  0.12499451700E+03 0.  0.
          5    1    3    3  502    0 -0.12815871027E+02 -0.56087406498E+02  0.50221728878E+03  0.50552382622E+03  0.47000000000E+01 0. -1.
         -5    1    3    3    0  502  0.81710972162E+01 -0.19269572996E+02  0.46375394807E+01  0.21947210429E+02  0.47000000000E+01 0. -1.
        -11    1    1    2    0    0  0.36557760085E+02  0.73864007272E+02  0.13766417410E+03  0.16044870278E+03  0.00000000000E+00 0.  1.
         11    1    1    2    0    0 -0.31912986274E+02  0.14929722216E+01  0.46509828054E+02  0.56425453163E+02  0.00000000000E+00 0. -1.
<mgrwt>
<rscale>  0 0.13741784E+03</rscale>
<asrwt>0</asrwt>
<pdfrwt beam="1">  1        1 0.11041337E+00 0.14602698E+03</pdfrwt>
<pdfrwt beam="2">  1       -1 0.41012592E-02 0.14602698E+03</pdfrwt>
<totfact> 0.62421836E+03</totfact>
</mgrwt>
</event>
<event>
 7    1  0.7800420E-006  0.1343927E+03  0.7546771E-02  0.1239013E+00
          3   -1    0    0  501    0  0.00000000000E+00  0.00000000000E+00  0.21338917071E+03  0.21338917071E+03  0.00000000000E+00 0. -1.
         -3   -1    0    0    0  501 -0.00000000000E+00 -0.00000000000E+00 -0.60791809873E+02  0.60791809873E+02  0.00000000000E+00 0.  1.
         23    2    1    2    0    0  0.25497441044E+02  0.42283446117E+02  0.80441248864E+02  0.15662760036E+03  0.12499360527E+03 0.  0.
          5    1    3    3  502    0  0.51540109245E+02  0.70702355833E+02  0.78669763084E+02  0.11775494726E+03  0.47000000000E+01 0. -1.
         -5    1    3    3    0  502 -0.26042668201E+02 -0.28418909717E+02  0.17714857794E+01  0.38872653092E+02  0.47000000000E+01 0. -1.
        -11    1    1    2    0    0  0.12995396423E+02  0.71142592428E+01  0.48329562663E+02  0.50549378235E+02  0.00000000000E+00 0. -1.
         11    1    1    2    0    0 -0.38492837467E+02 -0.49397705359E+02  0.23826549310E+02  0.67004001993E+02  0.00000000000E+00 0.  1.
<mgrwt>
<rscale>  0 0.12251005E+03</rscale>
<asrwt>0</asrwt>
<pdfrwt beam="1">  1        3 0.32829103E-01 0.13439275E+03</pdfrwt>
<pdfrwt beam="2">  1       -3 0.93525862E-02 0.13439275E+03</pdfrwt>
<totfact> 0.17136257E+03</totfact>
</mgrwt>
</event>
<event>
 7    1  0.7800420E-006  0.1564146E+03  0.7546771E-02  0.1200595E+00
         -3   -1    0    0    0  501 -0.00000000000E+00  0.00000000000E+00  0.56451586303E+03  0.56451586303E+03  0.00000000000E+00 0.  1.
          3   -1    0    0  501    0  0.00000000000E+00 -0.00000000000E+00 -0.36834473096E+02  0.36834473096E+02  0.00000000000E+00 0. -1.
         23    2    1    2    0    0  0.44367240097E+02 -0.82900921219E+02  0.29140950099E+03  0.33073405278E+03  0.12499800666E+03 0.  0.
          5    1    3    3  502    0 -0.30443800463E+02 -0.74163799489E+02  0.13523837089E+03  0.15728509498E+03  0.47000000000E+01 0.  1.
         -5    1    3    3    0  502  0.74811040560E+02 -0.87371217306E+01  0.15617113009E+03  0.17344895779E+03  0.47000000000E+01 0.  1.
        -11    1    1    2    0    0 -0.72069146776E+02  0.67014638862E+02  0.19506434117E+03  0.21848345689E+03  0.00000000000E+00 0.  1.
         11    1    1    2    0    0  0.27701906678E+02  0.15886282358E+02  0.41207547784E+02  0.52132826464E+02  0.00000000000E+00 0. -1.
<mgrwt>
<rscale>  0 0.14990078E+03</rscale>
<asrwt>0</asrwt>
<pdfrwt beam="2">  1        3 0.56668424E-02 0.15641457E+03</pdfrwt>
<pdfrwt beam="1">  1       -3 0.86848588E-01 0.15641457E+03</pdfrwt>
<totfact> 0.54905463E+02</totfact>
</mgrwt>
</event>
<event>
 7    1  0.7800420E-006  0.4145603E+03  0.7546771E-02  0.1039615E+00
         -2   -1    0    0    0  501 -0.00000000000E+00  0.00000000000E+00  0.12447426216E+03  0.12447426216E+03  0.00000000000E+00 0.  1.
          2   -1    0    0  501    0  0.00000000000E+00 -0.00000000000E+00 -0.15353268518E+04  0.15353268518E+04  0.00000000000E+00 0. -1.
         23    2    1    2    0    0 -0.21238279303E+03  0.33334487601E+03 -0.10002882310E+04  0.10827912065E+04  0.12503997259E+03 0.  0.
          5    1    3    3  502    0  0.11735027487E+02  0.52668073463E+02 -0.10543969771E+03  0.11853799680E+03  0.47000000000E+01 0. -1.
         -5    1    3    3    0  502 -0.22411782051E+03  0.28067680255E+03 -0.89484853327E+03  0.96425320972E+03  0.47000000000E+01 0. -1.
        -11    1    1    2    0    0  0.53587352506E+02 -0.16623914091E+03 -0.16697880748E+03  0.24163811468E+03  0.00000000000E+00 0. -1.
         11    1    1    2    0    0  0.15879544052E+03 -0.16710573510E+03 -0.24358555121E+03  0.33537179278E+03  0.00000000000E+00 0.  1.
<mgrwt>
<rscale>  0 0.41225984E+03</rscale>
<asrwt>0</asrwt>
<pdfrwt beam="2">  1        2 0.23620415E+00 0.41456031E+03</pdfrwt>
<pdfrwt beam="1">  1       -2 0.19149885E-01 0.41456031E+03</pdfrwt>
<totfact> 0.29171341E+02</totfact>
</mgrwt>
</event>
<event>
 7    1  0.7800420E-006  0.1433717E+03  0.7546771E-02  0.1218881E+00
          1   -1    0    0  501    0  0.00000000000E+00  0.00000000000E+00  0.13418701286E+03  0.13418701286E+03  0.00000000000E+00 0. -1.
         -1   -1    0    0    0  501 -0.00000000000E+00 -0.00000000000E+00 -0.12577619108E+03  0.12577619108E+03  0.00000000000E+00 0.  1.
         23    2    1    2    0    0 -0.46933571597E+02 -0.52270973359E+02  0.12943496576E+02  0.14395480731E+03  0.12498174925E+03 0.  0.
          5    1    3    3  502    0 -0.79451114156E+02 -0.12649495356E+02  0.35119912857E+02  0.87908973105E+02  0.47000000000E+01 0.  1.
         -5    1    3    3    0  502  0.32517542559E+02 -0.39621478003E+02 -0.22176416281E+02  0.56045834210E+02  0.47000000000E+01 0.  1.
        -11    1    1    2    0    0  0.14849350776E+02 -0.21214733430E+02  0.19368665641E+02  0.32337491270E+02  0.00000000000E+00 0. -1.
         11    1    1    2    0    0  0.32084220821E+02  0.73485706788E+02 -0.23901340439E+02  0.83670905353E+02  0.00000000000E+00 0.  1.
<mgrwt>
<rscale>  0 0.13595246E+03</rscale>
<asrwt>0</asrwt>
<pdfrwt beam="1">  1        1 0.20644156E-01 0.14337173E+03</pdfrwt>
<pdfrwt beam="2">  1       -1 0.19350183E-01 0.14337173E+03</pdfrwt>
<totfact> 0.49984196E+03</totfact>
</mgrwt>
</event>
<event>
 7    1  0.7800420E-006  0.1276870E+03  0.7546771E-02  0.1245783E+00
          1   -1    0    0  501    0  0.00000000000E+00  0.00000000000E+00  0.58133389748E+03  0.58133389748E+03  0.00000000000E+00 0. -1.
         -1   -1    0    0    0  501 -0.00000000000E+00 -0.00000000000E+00 -0.23712728273E+02  0.23712728273E+02  0.00000000000E+00 0.  1.
         23    2    1    2    0    0  0.18135930806E+02 -0.18701044957E+02  0.41366279775E+03  0.43292133043E+03  0.12500130812E+03 0.  0.
          5    1    3    3  502    0  0.71444075610E+02 -0.30436413151E+01  0.24638111779E+03  0.25659163061E+03  0.47000000000E+01 0.  1.
         -5    1    3    3    0  502 -0.53308144803E+02 -0.15657403642E+02  0.16728167996E+03  0.17632969983E+03  0.47000000000E+01 0.  1.
        -11    1    1    2    0    0 -0.52717770087E+02  0.11717382868E+02  0.11277834531E+03  0.12504165512E+03  0.00000000000E+00 0. -1.
         11    1    1    2    0    0  0.34581839281E+02  0.69836620884E+01  0.31180026150E+02  0.47083640205E+02  0.00000000000E+00 0.  1.
<mgrwt>
<rscale>  0 0.11838664E+03</rscale>
<asrwt>0</asrwt>
<pdfrwt beam="1">  1        1 0.89435974E-01 0.12768699E+03</pdfrwt>
<pdfrwt beam="2">  1       -1 0.36481125E-02 0.12768699E+03</pdfrwt>
<totfact> 0.98614524E+03</totfact>
</mgrwt>
</event>
<event>
 7    1  0.7800420E-006  0.2945754E+03  0.7546771E-02  0.1089584E+00
         -2   -1    0    0    0  501 -0.00000000000E+00  0.00000000000E+00  0.80679938426E+02  0.80679938426E+02  0.00000000000E+00 0. -1.
          2   -1    0    0  501    0  0.00000000000E+00 -0.00000000000E+00 -0.10879443746E+04  0.10879443746E+04  0.00000000000E+00 0.  1.
         23    2    1    2    0    0  0.24348928893E+03 -0.10890599474E+03 -0.64697126172E+03  0.71087726241E+03  0.12500847650E+03 0.  0.
          5    1    3    3  502    0  0.14048654891E+03 -0.37023345995E+02 -0.48222785346E+03  0.50365959856E+03  0.47000000000E+01 0.  1.
         -5    1    3    3    0  502  0.10300274002E+03 -0.71882648741E+02 -0.16474340826E+03  0.20721766384E+03  0.47000000000E+01 0.  1.
        -11    1    1    2    0    0 -0.15321715785E+03  0.58347543917E+02 -0.28843677360E+03  0.33177659005E+03  0.00000000000E+00 0.  1.
         11    1    1    2    0    0 -0.90272131078E+02  0.50558450819E+02 -0.71856400903E+02  0.12597046062E+03  0.00000000000E+00 0. -1.
<mgrwt>
<rscale>  0 0.29147015E+03</rscale>
<asrwt>0</asrwt>
<pdfrwt beam="2">  1        2 0.16737605E+00 0.29457540E+03</pdfrwt>
<pdfrwt beam="1">  1       -2 0.12412299E-01 0.29457540E+03</pdfrwt>
<totfact> 0.10873079E+03</totfact>
</mgrwt>
</event>
<event>
 7    1  0.7800420E-006  0.1842346E+03  0.7546771E-02  0.1168846E+00
         -2   -1    0    0    0  501 -0.00000000000E+00  0.00000000000E+00  0.24894563478E+02  0.24894563478E+02  0.00000000000E+00 0.  1.
          2   -1    0    0  501    0  0.00000000000E+00 -0.00000000000E+00 -0.12229914513E+04  0.12229914513E+04  0.00000000000E+00 0. -1.
         23    2    1    2    0    0  0.84322088644E+02  0.10588744642E+03 -0.59070328726E+03  0.61876714039E+03  0.12498013646E+03 0.  0.
          5    1    3    3  502    0  0.36032608659E+02  0.19261010780E+02 -0.34237329922E+02  0.53512803918E+02  0.47000000000E+01 0. -1.
         -5    1    3    3    0  502  0.48289479985E+02  0.86626435639E+02 -0.55646595734E+03  0.56525433647E+03  0.47000000000E+01 0. -1.
        -11    1    1    2    0    0 -0.18948050346E+02 -0.95893319189E+02 -0.35743034542E+03  0.37055500145E+03  0.00000000000E+00 0.  1.
         11    1    1    2    0    0 -0.65374038298E+02 -0.99941272296E+01 -0.24996325514E+03  0.25856387293E+03  0.00000000000E+00 0. -1.
<mgrwt>
<rscale>  0 0.17892620E+03</rscale>
<asrwt>0</asrwt>
<pdfrwt beam="2">  1        2 0.18815256E+00 0.18423463E+03</pdfrwt>
<pdfrwt beam="1">  1       -2 0.38299322E-02 0.18423463E+03</pdfrwt>
<totfact> 0.56254310E+03</totfact>
</mgrwt>
</event>
<event>
 7    1  0.7800420E-006  0.1467826E+03  0.7546771E-02  0.1214251E+00
          1   -1    0    0  501    0  0.00000000000E+00  0.00000000000E+00  0.27829540588E+03  0.27829540588E+03  0.00000000000E+00 0. -1.
         -1   -1    0    0    0  501 -0.00000000000E+00 -0.00000000000E+00 -0.64059069273E+02  0.64059069273E+02  0.00000000000E+00 0.  1.
         23    2    1    2    0    0 -0.37659481417E+02 -0.67110346382E+02  0.13384404122E+03  0.19864378752E+03  0.12499236703E+03 0.  0.
          5    1    3    3  502    0 -0.69353118013E+02 -0.84627782265E+02  0.10873459500E+03  0.15432763414E+03  0.47000000000E+01 0.  1.
         -5    1    3    3    0  502  0.31693636596E+02  0.17517435883E+02  0.25109446220E+02  0.44316153376E+02  0.47000000000E+01 0.  1.
        -11    1    1    2    0    0  0.54567860113E+01  0.47747892800E+02 -0.70159028791E+01  0.48568103460E+02  0.00000000000E+00 0.  1.
         11    1    1    2    0    0  0.32202695406E+02  0.19362453582E+02  0.87408198264E+02  0.95142584177E+02  0.00000000000E+00 0. -1.
<mgrwt>
<rscale>  0 0.13931667E+03</rscale>
<asrwt>0</asrwt>
<pdfrwt beam="1">  1        1 0.42814677E-01 0.14678258E+03</pdfrwt>
<pdfrwt beam="2">  1       -1 0.98552416E-02 0.14678258E+03</pdfrwt>
<totfact> 0.57706121E+03</totfact>
</mgrwt>
</event>
<event>
 7    1  0.7800420E-006  0.2000502E+03  0.7546771E-02  0.1153651E+00
         -2   -1    0    0    0  501 -0.00000000000E+00  0.00000000000E+00  0.26567154571E+02  0.26567154571E+02  0.00000000000E+00 0.  1.
          2   -1    0    0  501    0  0.00000000000E+00 -0.00000000000E+00 -0.14895531696E+04  0.14895531696E+04  0.00000000000E+00 0. -1.
         23    2    1    2    0    0 -0.15535372165E+03 -0.16131346950E+02 -0.97298549588E+03  0.99333823776E+03  0.12500032091E+03 0.  0.
          5    1    3    3  502    0 -0.94208510268E+02  0.28224383654E+02 -0.29184211238E+03  0.30800286979E+03  0.47000000000E+01 0.  1.
         -5    1    3    3    0  502 -0.61145211378E+02 -0.44355730605E+02 -0.68114338350E+03  0.68533536798E+03  0.47000000000E+01 0.  1.
        -11    1    1    2    0    0  0.74553681235E+02  0.24691857776E+02 -0.36740570043E+03  0.37570585294E+03  0.00000000000E+00 0. -1.
         11    1    1    2    0    0  0.80800040411E+02 -0.85605108256E+01 -0.12259481876E+03  0.14707623351E+03  0.00000000000E+00 0.  1.
<mgrwt>
<rscale>  0 0.19543281E+03</rscale>
<asrwt>0</asrwt>
<pdfrwt beam="2">  1        2 0.22916204E+00 0.20005019E+03</pdfrwt>
<pdfrwt beam="1">  1       -2 0.40872542E-02 0.20005019E+03</pdfrwt>
<totfact> 0.36653362E+03</totfact>
</mgrwt>
</event>
<event>
 7    1  0.7800420E-006  0.1251242E+03  0.7546771E-02  0.1250544E+00
         -2   -1    0    0    0  501 -0.00000000000E+00  0.00000000000E+00  0.10826175893E+03  0.10826175893E+03  0.00000000000E+00 0. -1.
          2   -1    0    0  501    0  0.00000000000E+00 -0.00000000000E+00 -0.10959925149E+03  0.10959925149E+03  0.00000000000E+00 0.  1.
         23    2    1    2    0    0  0.37555595925E+01 -0.41058009674E+01 -0.13727631774E+02  0.12587498014E+03  0.12500040368E+03 0.  0.
          5    1    3    3  502    0  0.32799606145E+02  0.44413654141E+02  0.21103260812E+02  0.59294388050E+02  0.47000000000E+01 0.  1.
         -5    1    3    3    0  502 -0.29044046552E+02 -0.48519455108E+02 -0.34830892586E+02  0.66580592085E+02  0.47000000000E+01 0.  1.
        -11    1    1    2    0    0 -0.34146740566E+02 -0.47423504235E+01 -0.25304153952E+02  0.42764354152E+02  0.00000000000E+00 0.  1.
         11    1    1    2    0    0  0.30391180974E+02  0.88481513909E+01  0.37694293160E+02  0.49221676128E+02  0.00000000000E+00 0. -1.
<mgrwt>
<rscale>  0 0.11559591E+03</rscale>
<asrwt>0</asrwt>
<pdfrwt beam="2">  1        2 0.16861423E-01 0.12512419E+03</pdfrwt>
<pdfrwt beam="1">  1       -2 0.16655655E-01 0.12512419E+03</pdfrwt>
<totfact> 0.91091821E+03</totfact>
</mgrwt>
</event>
<event>
 7    1  0.7800420E-006  0.1453707E+03  0.7546771E-02  0.1217705E+00
         -1   -1    0    0    0  501 -0.00000000000E+00  0.00000000000E+00  0.66274808092E+02  0.66274808092E+02  0.00000000000E+00 0.  1.
          1   -1    0    0  501    0  0.00000000000E+00 -0.00000000000E+00 -0.25512407543E+03  0.25512407543E+03  0.00000000000E+00 0. -1.
         23    2    1    2    0    0 -0.66468432616E+02  0.33001281804E+02 -0.11749969979E+03  0.18691930156E+03  0.12500203481E+03 0.  0.
          5    1    3    3  502    0 -0.32727243316E+02  0.15802178023E+02 -0.13856517645E+03  0.14332892036E+03  0.47000000000E+01 0. -1.
         -5    1    3    3    0  502 -0.33741189300E+02  0.17199103781E+02  0.21065476660E+02  0.43590381200E+02  0.47000000000E+01 0. -1.
        -11    1    1    2    0    0  0.36680912116E+02 -0.79858786701E+01 -0.85268252654E+02  0.93166187442E+02  0.00000000000E+00 0. -1.
         11    1    1    2    0    0  0.29787520499E+02 -0.25015403134E+02  0.13918685112E+02  0.41313394519E+02  0.00000000000E+00 0.  1.
<mgrwt>
<rscale>  0 0.13679668E+03</rscale>
<asrwt>0</asrwt>
<pdfrwt beam="2">  1        1 0.39249858E-01 0.14537072E+03</pdfrwt>
<pdfrwt beam="1">  1       -1 0.10196124E-01 0.14537072E+03</pdfrwt>
<totfact> 0.60971984E+03</totfact>
</mgrwt>
</event>
<event>
 7    1  0.7800420E-006  0.1360893E+03  0.7546771E-02  0.1230805E+00
         -1   -1    0    0    0  501 -0.00000000000E+00  0.00000000000E+00  0.10864399409E+03  0.10864399409E+03  0.00000000000E+00 0.  1.
          1   -1    0    0  501    0  0.00000000000E+00 -0.00000000000E+00 -0.15364944327E+03  0.15364944327E+03  0.00000000000E+00 0. -1.
         23    2    1    2    0    0 -0.33670236152E+01  0.53705954387E+02 -0.70874622357E+02  0.15343898374E+03  0.12499857300E+03 0.  0.
          5    1    3    3  502    0 -0.18598164290E+02  0.84819613568E+01  0.32959673737E+02  0.39067447783E+02  0.47000000000E+01 0. -1.
         -5    1    3    3    0  502  0.15231140675E+02  0.45223993030E+02 -0.10383429609E+03  0.11437153596E+03  0.47000000000E+01 0. -1.
        -11    1    1    2    0    0 -0.14468735493E+02  0.11164420360E+02 -0.20257377001E+02  0.27282776833E+02  0.00000000000E+00 0. -1.
         11    1    1    2    0    0  0.17835759108E+02 -0.64870374747E+02  0.46126550173E+02  0.81571676786E+02  0.00000000000E+00 0.  1.
<mgrwt>
<rscale>  0 0.12776847E+03</rscale>
<asrwt>0</asrwt>
<pdfrwt beam="2">  1        1 0.23638376E-01 0.13608934E+03</pdfrwt>
<pdfrwt beam="1">  1       -1 0.16714461E-01 0.13608934E+03</pdfrwt>
<totfact> 0.52997284E+03</totfact>
</mgrwt>
</event>
<event>
 7    1  0.7800420E-006  0.1331495E+03  0.7546771E-02  0.1235034E+00
         -3   -1    0    0    0  501 -0.00000000000E+00  0.00000000000E+00  0.77916587060E+02  0.77916587060E+02  0.00000000000E+00 0.  1.
          3   -1    0    0  501    0  0.00000000000E+00 -0.00000000000E+00 -0.18910886996E+03  0.18910886996E+03  0.00000000000E+00 0. -1.
         23    2    1    2    0    0 -0.10286637706E+02  0.44706524341E+02 -0.91792553040E+02  0.16172400047E+03  0.12499716517E+03 0.  0.
          5    1    3    3  502    0 -0.38704722861E+02 -0.29798280852E+02 -0.16013317410E+02  0.51618886544E+02  0.47000000000E+01 0. -1.
         -5    1    3    3    0  502  0.28418085155E+02  0.74504805193E+02 -0.75779235629E+02  0.11010511393E+03  0.47000000000E+01 0. -1.
        -11    1    1    2    0    0 -0.26160234478E+02 -0.17801708019E+02  0.26157293234E+02  0.41054386680E+02  0.00000000000E+00 0. -1.
         11    1    1    2    0    0  0.36446872185E+02 -0.26904816322E+02 -0.45557023097E+02  0.64247069870E+02  0.00000000000E+00 0.  1.
<mgrwt>
<rscale>  0 0.12502263E+03</rscale>
<asrwt>0</asrwt>
<pdfrwt beam="2">  1        3 0.29093672E-01 0.13314946E+03</pdfrwt>
<pdfrwt beam="1">  1       -3 0.11987167E-01 0.13314946E+03</pdfrwt>
<totfact> 0.14181887E+03</totfact>
</mgrwt>
</event>
<event>
 7    1  0.7800420E-006  0.1615799E+03  0.7546771E-02  0.1194407E+00
         -2   -1    0    0    0  501 -0.00000000000E+00  0.00000000000E+00  0.72847733043E+02  0.72847733043E+02  0.00000000000E+00 0. -1.
          2   -1    0    0  501    0  0.00000000000E+00 -0.00000000000E+00 -0.33346820409E+03  0.33346820409E+03  0.00000000000E+00 0.  1.
         23    2    1    2    0    0 -0.74977109363E+02  0.69693780381E+02 -0.19837545783E+03  0.25585322006E+03  0.12501703082E+03 0.  0.
          5    1    3    3  502    0 -0.94631914501E+02  0.44754603018E+02 -0.19769246214E+03  0.22374667220E+03  0.47000000000E+01 0.  1.
         -5    1    3    3    0  502  0.19654805138E+02  0.24939177363E+02 -0.68299568808E+00  0.32106547863E+02  0.47000000000E+01 0.  1.
        -11    1    1    2    0    0  0.90271544370E+02 -0.40937832035E+02 -0.63760903288E+02  0.11785716186E+03  0.00000000000E+00 0. -1.
         11    1    1    2    0    0 -0.15294435008E+02 -0.28755948345E+02  0.15158900712E+01  0.32605555204E+02  0.00000000000E+00 0.  1.
<mgrwt>
<rscale>  0 0.15504500E+03</rscale>
<asrwt>0</asrwt>
<pdfrwt beam="2">  1        2 0.51302801E-01 0.16157985E+03</pdfrwt>
<pdfrwt beam="1">  1       -2 0.11207344E-01 0.16157985E+03</pdfrwt>
<totfact> 0.52124753E+03</totfact>
</mgrwt>
</event>
<event>
 7    1  0.7800420E-006  0.2749053E+03  0.7546771E-02  0.1100578E+00
         -1   -1    0    0    0  501 -0.00000000000E+00  0.00000000000E+00  0.81063026855E+02  0.81063026855E+02  0.00000000000E+00 0.  1.
          1   -1    0    0  501    0  0.00000000000E+00 -0.00000000000E+00 -0.91918347436E+03  0.91918347436E+03  0.00000000000E+00 0. -1.
         23    2    1    2    0    0  0.14392418299E+03 -0.19808258393E+03 -0.52765456781E+03  0.59497251125E+03  0.12498826230E+03 0.  0.
          5    1    3    3  502    0  0.42157886298E+02 -0.29786058753E+02 -0.30102408215E+02  0.59939483260E+02  0.47000000000E+01 0.  1.
         -5    1    3    3    0  502  0.10176629669E+03 -0.16829652518E+03 -0.49755215959E+03  0.53503302799E+03  0.47000000000E+01 0.  1.
        -11    1    1    2    0    0 -0.77791454929E+02  0.42823012580E+02 -0.79235283570E+02  0.11901071813E+03  0.00000000000E+00 0. -1.
         11    1    1    2    0    0 -0.66132728059E+02  0.15525957135E+03 -0.23123059613E+03  0.28626327184E+03  0.00000000000E+00 0.  1.
<mgrwt>
<rscale>  0 0.27122984E+03</rscale>
<asrwt>0</asrwt>
<pdfrwt beam="2">  1        1 0.14141284E+00 0.27490534E+03</pdfrwt>
<pdfrwt beam="1">  1       -1 0.12471235E-01 0.27490534E+03</pdfrwt>
<totfact> 0.79709366E+02</totfact>
</mgrwt>
</event>
<event>
 7    1  0.7800420E-006  0.1345831E+03  0.7546771E-02  0.1228385E+00
         -2   -1    0    0    0  501 -0.00000000000E+00  0.00000000000E+00  0.21985539578E+02  0.21985539578E+02  0.00000000000E+00 0.  1.
          2   -1    0    0  501    0  0.00000000000E+00 -0.00000000000E+00 -0.75057411102E+03  0.75057411102E+03  0.00000000000E+00 0. -1.
         23    2    1    2    0    0 -0.48296316737E+02 -0.12449384111E+02 -0.48315951989E+03  0.50155331848E+03  0.12500035300E+03 0.  0.
          5    1    3    3  502    0 -0.34237848241E+02  0.21727848706E+02 -0.41103258336E+02  0.57930108816E+02  0.47000000000E+01 0. -1.
         -5    1    3    3    0  502 -0.14058468496E+02 -0.34177232816E+02 -0.44205626155E+03  0.44362320967E+03  0.47000000000E+01 0. -1.
        -11    1    1    2    0    0 -0.26140697110E+02 -0.18365722166E+02 -0.96961675886E+02  0.10208918839E+03  0.00000000000E+00 0. -1.
         11    1    1    2    0    0  0.74437013848E+02  0.30815106276E+02 -0.14846737567E+03  0.16891714372E+03  0.00000000000E+00 0.  1.
<mgrwt>
<rscale>  0 0.12937539E+03</rscale>
<asrwt>0</asrwt>
<pdfrwt beam="2">  1        2 0.11547293E+00 0.13458310E+03</pdfrwt>
<pdfrwt beam="1">  1       -2 0.33823911E-02 0.13458310E+03</pdfrwt>
<totfact> 0.12984837E+04</totfact>
</mgrwt>
</event>
<event>
 7    1  0.7800420E-006  0.1450705E+03  0.7546771E-02  0.1216705E+00
          3   -1    0    0  501    0  0.00000000000E+00  0.00000000000E+00  0.14932267734E+03  0.14932267734E+03  0.00000000000E+00 0. -1.
         -3   -1    0    0    0  501 -0.00000000000E+00 -0.00000000000E+00 -0.13049371976E+03  0.13049371976E+03  0.00000000000E+00 0.  1.
         23    2    1    2    0    0 -0.67356204846E+02 -0.29703170739E+02  0.58086843739E+02  0.15626746920E+03  0.12500521522E+03 0.  0.
          5    1    3    3  502    0 -0.16805118844E+02 -0.29012980499E+02 -0.35959988616E+02  0.49390037842E+02  0.47000000000E+01 0.  1.
         -5    1    3    3    0  502 -0.50551086002E+02 -0.69019024074E+00  0.94046832355E+02  0.10687743136E+03  0.47000000000E+01 0.  1.
        -11    1    1    2    0    0  0.14051785892E+02  0.22004936067E+02 -0.60313397137E+02  0.65721958068E+02  0.00000000000E+00 0.  1.
         11    1    1    2    0    0  0.53304418953E+02  0.76982346718E+01  0.21055510974E+02  0.57826969827E+02  0.00000000000E+00 0. -1.
<mgrwt>
<rscale>  0 0.13752005E+03</rscale>
<asrwt>0</asrwt>
<pdfrwt beam="1">  1        3 0.22972720E-01 0.14507047E+03</pdfrwt>
<pdfrwt beam="2">  1       -3 0.20075957E-01 0.14507047E+03</pdfrwt>
<totfact> 0.91012821E+02</totfact>
</mgrwt>
</event>
<event>
 7    1  0.7800420E-006  0.1483031E+03  0.7546771E-02  0.1208968E+00
         -1   -1    0    0    0  501 -0.00000000000E+00  0.00000000000E+00  0.56280837390E+02  0.56280837390E+02  0.00000000000E+00 0.  1.
          1   -1    0    0  501    0  0.00000000000E+00 -0.00000000000E+00 -0.35397028185E+03  0.35397028185E+03  0.00000000000E+00 0. -1.
         23    2    1    2    0    0 -0.67174613786E+02  0.65091995634E+02 -0.19605711464E+03  0.24582964898E+03  0.11508443633E+03 0.  0.
          5    1    3    3  502    0 -0.70208496401E+02  0.29222917980E+02 -0.40887810559E+02  0.86470312561E+02  0.47000000000E+01 0. -1.
         -5    1    3    3    0  502  0.30338826156E+01  0.35869077654E+02 -0.15516930408E+03  0.15935933642E+03  0.47000000000E+01 0.  1.
        -11    1    1    2    0    0  0.31611946737E+02 -0.13534943345E+02  0.10523879212E+02  0.35961950747E+02  0.00000000000E+00 0.  1.
         11    1    1    2    0    0  0.35562667049E+02 -0.51557052289E+02 -0.11215620903E+03  0.12845951951E+03  0.00000000000E+00 0. -1.
<mgrwt>
<rscale>  0 0.14329120E+03</rscale>
<asrwt>0</asrwt>
<pdfrwt beam="2">  1        1 0.54456967E-01 0.14830315E+03</pdfrwt>
<pdfrwt beam="1">  1       -1 0.86585903E-02 0.14830315E+03</pdfrwt>
<totfact> 0.52137898E+03</totfact>
</mgrwt>
</event>
<event>
 7    1  0.7800420E-006  0.1746509E+03  0.7546771E-02  0.1179480E+00
          3   -1    0    0  501    0  0.00000000000E+00  0.00000000000E+00  0.73182875508E+02  0.73182875508E+02  0.00000000000E+00 0. -1.
         -3   -1    0    0    0  501 -0.00000000000E+00 -0.00000000000E+00 -0.59045500546E+03  0.59045500546E+03  0.00000000000E+00 0.  1.
         23    2    1    2    0    0 -0.10840132683E+03 -0.55949387986E+02 -0.64279024888E+02  0.18610408054E+03  0.12498701564E+03 0.  0.
          5    1    3    3  502    0 -0.73605653127E+02 -0.36780590119E+02 -0.10198961122E+03  0.13112808540E+03  0.47000000000E+01 0.  1.
         -5    1    3    3    0  502 -0.34795673699E+02 -0.19168797867E+02  0.37710586336E+02  0.54975995140E+02  0.47000000000E+01 0.  1.
        -11    1    1    2    0    0 -0.28498490604E+01  0.36710738549E+02 -0.14144544493E+03  0.14615954931E+03  0.00000000000E+00 0.  1.
         11    1    1    2    0    0  0.11125117589E+03  0.19238649437E+02 -0.31154766013E+03  0.33137425112E+03  0.00000000000E+00 0. -1.
<mgrwt>
<rscale>  0 0.16844382E+03</rscale>
<asrwt>0</asrwt>
<pdfrwt beam="1">  1        3 0.11258904E-01 0.17465090E+03</pdfrwt>
<pdfrwt beam="2">  1       -3 0.90839235E-01 0.17465090E+03</pdfrwt>
<totfact> 0.16391319E+02</totfact>
</mgrwt>
</event>
<event>
 7    1  0.7800420E-006  0.1480278E+03  0.7546771E-02  0.1212347E+00
          2   -1    0    0  501    0  0.00000000000E+00  0.00000000000E+00  0.39979860660E+03  0.39979860660E+03  0.00000000000E+00 0. -1.
         -2   -1    0    0    0  501 -0.00000000000E+00 -0.00000000000E+00 -0.45331026447E+02  0.45331026447E+02  0.00000000000E+00 0.  1.
         23    2    1    2    0    0 -0.41224074183E+02  0.67738210303E+02  0.20523260057E+03  0.25304673734E+03  0.12499736602E+03 0.  0.
          5    1    3    3  502    0 -0.66187146996E+02  0.30470520143E+02  0.19294962375E+03  0.20630278314E+03  0.47000000000E+01 0. -1.
         -5    1    3    3    0  502  0.24963072813E+02  0.37267690160E+02  0.12282976819E+02  0.46743954194E+02  0.47000000000E+01 0. -1.
        -11    1    1    2    0    0 -0.22119425896E+02 -0.47471482393E+02  0.83550679266E+02  0.98607944145E+02  0.00000000000E+00 0.  1.
         11    1    1    2    0    0  0.63343500079E+02 -0.20266727910E+02  0.65684300309E+02  0.93474951562E+02  0.00000000000E+00 0. -1.
<mgrwt>
<rscale>  0 0.14073223E+03</rscale>
<asrwt>0</asrwt>
<pdfrwt beam="1">  1        2 0.61507476E-01 0.14802780E+03</pdfrwt>
<pdfrwt beam="2">  1       -2 0.69740043E-02 0.14802780E+03</pdfrwt>
<totfact> 0.89586227E+03</totfact>
</mgrwt>
</event>
<event>
 7    1  0.7800420E-006  0.1525046E+03  0.7546771E-02  0.1206183E+00
          4   -1    0    0  501    0  0.00000000000E+00  0.00000000000E+00  0.52942234978E+02  0.52942234978E+02  0.00000000000E+00 0. -1.
         -4   -1    0    0    0  501 -0.00000000000E+00 -0.00000000000E+00 -0.40774217729E+03  0.40774217729E+03  0.00000000000E+00 0.  1.
         23    2    1    2    0    0  0.80959389473E+02 -0.32863202049E+02 -0.11970996260E+03  0.19387661757E+03  0.12499301941E+03 0.  0.
          5    1    3    3  502    0  0.68599148322E+02 -0.32546518129E+02 -0.14589659900E+03  0.16453883005E+03  0.47000000000E+01 0.  1.
         -5    1    3    3    0  502  0.12360241151E+02 -0.31668391963E+00  0.26186636408E+02  0.29337787517E+02  0.47000000000E+01 0.  1.
        -11    1    1    2    0    0 -0.79474764113E+00  0.35096265498E+02 -0.28564005242E+02  0.45257948155E+02  0.00000000000E+00 0.  1.
         11    1    1    2    0    0 -0.80164641832E+02 -0.22330634488E+01 -0.20652597447E+03  0.22154984655E+03  0.00000000000E+00 0. -1.
<mgrwt>
<rscale>  0 0.14544612E+03</rscale>
<asrwt>0</asrwt>
<pdfrwt beam="1">  1        4 0.81449593E-02 0.15250465E+03</pdfrwt>
<pdfrwt beam="2">  1       -4 0.62729565E-01 0.15250465E+03</pdfrwt>
<totfact> 0.43933867E+02</totfact>
</mgrwt>
</event>
<event>
 7    1  0.7800420E-006  0.3589388E+03  0.7546771E-02  0.1059005E+00
          1   -1    0    0  501    0  0.00000000000E+00  0.00000000000E+00  0.15126584577E+03  0.15126584577E+03  0.00000000000E+00 0. -1.
         -1   -1    0    0    0  501 -0.00000000000E+00 -0.00000000000E+00 -0.21293155640E+03  0.21293155640E+03  0.00000000000E+00 0.  1.
         23    2    1    2    0    0  0.46524219727E+02 -0.17870588019E+02  0.37132558266E+02  0.13638792780E+03  0.12140419691E+03 0.  0.
          5    1    3    3  502    0  0.60412648602E+02 -0.45343622119E+00  0.72398502604E+02  0.94411476500E+02  0.47000000000E+01 0. -1.
         -5    1    3    3    0  502 -0.13888428876E+02 -0.17417151798E+02 -0.35265944338E+02  0.41976451297E+02  0.47000000000E+01 0.  1.
        -11    1    1    2    0    0 -0.33432009978E+02 -0.86552036458E+02 -0.16565682307E+02  0.94251663839E+02  0.00000000000E+00 0.  1.
         11    1    1    2    0    0 -0.13092209749E+02  0.10442262448E+03 -0.82232586583E+02  0.13355781054E+03  0.00000000000E+00 0. -1.
<mgrwt>
<rscale>  0 0.35893884E+03</rscale>
<asrwt>0</asrwt>
<pdfrwt beam="1">  1        1 0.23271669E-01 0.35893884E+03</pdfrwt>
<pdfrwt beam="2">  1       -1 0.32758701E-01 0.35893884E+03</pdfrwt>
<totfact> 0.18491398E+03</totfact>
</mgrwt>
</event>
<event>
 7    1  0.7800420E-006  0.1325987E+03  0.7546771E-02  0.1236463E+00
          1   -1    0    0  501    0  0.00000000000E+00  0.00000000000E+00  0.22416532734E+03  0.22416532734E+03  0.00000000000E+00 0. -1.
         -1   -1    0    0    0  501 -0.00000000000E+00 -0.00000000000E+00 -0.61323120837E+02  0.61323120837E+02  0.00000000000E+00 0.  1.
         23    2    1    2    0    0 -0.26936434299E+02  0.35071730029E+02  0.96589184224E+02  0.16404843491E+03  0.12500728277E+03 0.  0.
          5    1    3    3  502    0  0.12275857506E+02  0.26786396140E+02 -0.23103344464E+02  0.37736748947E+02  0.47000000000E+01 0. -1.
         -5    1    3    3    0  502 -0.39212291805E+02  0.82853338894E+01  0.11969252869E+03  0.12631168596E+03  0.47000000000E+01 0. -1.
        -11    1    1    2    0    0  0.44379906080E+02 -0.52402903289E+02  0.24359327262E+02  0.72863002693E+02  0.00000000000E+00 0.  1.
         11    1    1    2    0    0 -0.17443471781E+02  0.17331173259E+02  0.41893695013E+02  0.48577010572E+02  0.00000000000E+00 0. -1.
<mgrwt>
<rscale>  0 0.12411238E+03</rscale>
<asrwt>0</asrwt>
<pdfrwt beam="1">  1        1 0.34486973E-01 0.13259871E+03</pdfrwt>
<pdfrwt beam="2">  1       -1 0.94343264E-02 0.13259871E+03</pdfrwt>
<totfact> 0.80076721E+03</totfact>
</mgrwt>
</event>
<event>
 7    1  0.7800420E-006  0.1251083E+03  0.7546771E-02  0.1265616E+00
         -2   -1    0    0    0  501 -0.00000000000E+00  0.00000000000E+00  0.16566458497E+03  0.16566458497E+03  0.00000000000E+00 0.  1.
          2   -1    0    0  501    0  0.00000000000E+00 -0.00000000000E+00 -0.95786924687E+02  0.95786924687E+02  0.00000000000E+00 0. -1.
         23    2    1    2    0    0 -0.24927792966E+01  0.48835235630E+01 -0.40881965739E+02  0.13161848619E+03  0.12498811157E+03 0.  0.
          5    1    3    3  502    0  0.27128900602E+02  0.44417836505E+02 -0.58976666793E+02  0.78798849444E+02  0.47000000000E+01 0.  1.
         -5    1    3    3    0  502 -0.29621679899E+02 -0.39534312942E+02  0.18094701054E+02  0.52819636747E+02  0.47000000000E+01 0.  1.
        -11    1    1    2    0    0  0.24269357539E+02  0.21844799793E+02  0.45195766806E+02  0.55757101167E+02  0.00000000000E+00 0.  1.
         11    1    1    2    0    0 -0.21776578243E+02 -0.26728323356E+02  0.65563859218E+02  0.74075922302E+02  0.00000000000E+00 0. -1.
<mgrwt>
<rscale>  0 0.10731945E+03</rscale>
<asrwt>0</asrwt>
<pdfrwt beam="2">  1        2 0.14736450E-01 0.12510832E+03</pdfrwt>
<pdfrwt beam="1">  1       -2 0.25486859E-01 0.12510832E+03</pdfrwt>
<totfact> 0.51748979E+03</totfact>
</mgrwt>
</event>
<event>
 7    1  0.7800420E-006  0.1412573E+03  0.7546771E-02  0.1223238E+00
          1   -1    0    0  501    0  0.00000000000E+00  0.00000000000E+00  0.63715202634E+03  0.63715202634E+03  0.00000000000E+00 0.  1.
         -1   -1    0    0    0  501 -0.00000000000E+00 -0.00000000000E+00 -0.25601259896E+02  0.25601259896E+02  0.00000000000E+00 0. -1.
         23    2    1    2    0    0  0.49355489603E+02  0.43491417131E+02  0.39660655871E+03  0.42101115156E+03  0.12500463836E+03 0.  0.
          5    1    3    3  502    0 -0.55993837091E+01  0.62710513896E+02  0.31121716539E+03  0.31755657084E+03  0.47000000000E+01 0. -1.
         -5    1    3    3    0  502  0.54954873312E+02 -0.19219096765E+02  0.85389393320E+02  0.10345458072E+03  0.47000000000E+01 0. -1.
        -11    1    1    2    0    0  0.95649674823E+00 -0.24029395013E+02  0.44643633088E+01  0.24459297833E+02  0.00000000000E+00 0. -1.
         11    1    1    2    0    0 -0.50311986351E+02 -0.19462022118E+02  0.21047984442E+03  0.21728283684E+03  0.00000000000E+00 0.  1.
<mgrwt>
<rscale>  0 0.13288412E+03</rscale>
<asrwt>0</asrwt>
<pdfrwt beam="1">  1        1 0.98023377E-01 0.14125731E+03</pdfrwt>
<pdfrwt beam="2">  1       -1 0.39386558E-02 0.14125731E+03</pdfrwt>
<totfact> 0.78266122E+03</totfact>
</mgrwt>
</event>
<event>
 7    1  0.7800420E-006  0.1399667E+03  0.7546771E-02  0.1224953E+00
         -2   -1    0    0    0  501 -0.00000000000E+00  0.00000000000E+00  0.14026810824E+02  0.14026810824E+02  0.00000000000E+00 0.  1.
          2   -1    0    0  501    0  0.00000000000E+00 -0.00000000000E+00 -0.11924044160E+04  0.11924044160E+04  0.00000000000E+00 0. -1.
         23    2    1    2    0    0  0.90144659438E+01 -0.62347636196E+02 -0.81207862348E+03  0.82405240257E+03  0.12498873205E+03 0.  0.
          5    1    3    3  502    0 -0.57650004058E+02 -0.29092549637E+02 -0.41462777661E+03  0.41965245448E+03  0.47000000000E+01 0.  1.
         -5    1    3    3    0  502  0.66664470002E+02 -0.33255086559E+02 -0.39745084686E+03  0.40439994809E+03  0.47000000000E+01 0.  1.
        -11    1    1    2    0    0 -0.10280955327E+02 -0.22505385853E+02 -0.75558273642E+02  0.79506245985E+02  0.00000000000E+00 0.  1.
         11    1    1    2    0    0  0.12664893829E+01  0.84853022050E+02 -0.29074070808E+03  0.30287257829E+03  0.00000000000E+00 0. -1.
<mgrwt>
<rscale>  0 0.13170146E+03</rscale>
<asrwt>0</asrwt>
<pdfrwt beam="2">  1        2 0.18344694E+00 0.13996668E+03</pdfrwt>
<pdfrwt beam="1">  1       -2 0.21579697E-02 0.13996668E+03</pdfrwt>
<totfact> 0.13470168E+04</totfact>
</mgrwt>
</event>
<event>
 7    1  0.7800420E-006  0.1996061E+03  0.7546771E-02  0.1154165E+00
          2   -1    0    0  501    0  0.00000000000E+00  0.00000000000E+00  0.18751663346E+03  0.18751663346E+03  0.00000000000E+00 0. -1.
         -2   -1    0    0    0  501 -0.00000000000E+00 -0.00000000000E+00 -0.20484050445E+03  0.20484050445E+03  0.00000000000E+00 0.  1.
         23    2    1    2    0    0  0.38108950135E+01 -0.15557438632E+03  0.37343724970E+02  0.20306934972E+03  0.12499877761E+03 0.  0.
          5    1    3    3  502    0 -0.37117456728E+02 -0.87551735651E+02  0.68885315660E+02  0.11751718480E+03  0.47000000000E+01 0.  1.
         -5    1    3    3    0  502  0.40928351741E+02 -0.68022650665E+02 -0.31541590690E+02  0.85552164923E+02  0.47000000000E+01 0.  1.
        -11    1    1    2    0    0  0.43122056828E+02  0.70356219028E+02 -0.36886888698E+02  0.90388892563E+02  0.00000000000E+00 0.  1.
         11    1    1    2    0    0 -0.46932951841E+02  0.85218167288E+02 -0.17780707257E+02  0.98898895621E+02  0.00000000000E+00 0. -1.
<mgrwt>
<rscale>  0 0.19484218E+03</rscale>
<asrwt>0</asrwt>
<pdfrwt beam="1">  1        2 0.28848713E-01 0.19960613E+03</pdfrwt>
<pdfrwt beam="2">  1       -2 0.31513924E-01 0.19960613E+03</pdfrwt>
<totfact> 0.16931094E+03</totfact>
</mgrwt>
</event>
<event>
 7    1  0.7800420E-006  0.1459238E+03  0.7546771E-02  0.1215334E+00
          1   -1    0    0  501    0  0.00000000000E+00  0.00000000000E+00  0.23462065845E+03  0.23462065845E+03  0.00000000000E+00 0. -1.
         -1   -1    0    0    0  501 -0.00000000000E+00 -0.00000000000E+00 -0.74578689259E+02  0.74578689259E+02  0.00000000000E+00 0.  1.
         23    2    1    2    0    0  0.65475024444E+02 -0.37902010051E+02  0.83225076275E+02  0.16798861373E+03  0.12478068693E+03 0.  0.
          5    1    3    3  502    0  0.40584152740E+02 -0.78978474041E+02  0.80018575436E+02  0.11962330555E+03  0.47000000000E+01 0. -1.
         -5    1    3    3    0  502  0.24890871704E+02  0.41076463989E+02  0.32065008396E+01  0.48365308184E+02  0.47000000000E+01 0.  1.
        -11    1    1    2    0    0  0.94780458008E+01  0.10631867414E+02  0.57373776601E+02  0.59115312724E+02  0.00000000000E+00 0. -1.
         11    1    1    2    0    0 -0.74953070245E+02  0.27270142638E+02  0.19443116312E+02  0.82095421252E+02  0.00000000000E+00 0.  1.
<mgrwt>
<rscale>  0 0.13852052E+03</rscale>
<asrwt>0</asrwt>
<pdfrwt beam="1">  1        1 0.36095485E-01 0.14592382E+03</pdfrwt>
<pdfrwt beam="2">  1       -1 0.11473645E-01 0.14592382E+03</pdfrwt>
<totfact> 0.56442220E+03</totfact>
</mgrwt>
</event>
<event>
 7    1  0.7800420E-006  0.1459216E+03  0.7546771E-02  0.1213833E+00
         -1   -1    0    0    0  501 -0.00000000000E+00  0.00000000000E+00  0.49788727694E+02  0.49788727694E+02  0.00000000000E+00 0.  1.
          1   -1    0    0  501    0  0.00000000000E+00 -0.00000000000E+00 -0.39347725598E+03  0.39347725598E+03  0.00000000000E+00 0. -1.
         23    2    1    2    0    0 -0.32810495895E+02  0.67740021445E+02 -0.24887967751E+03  0.28850339181E+03  0.12501149572E+03 0.  0.
          5    1    3    3  502    0 -0.31524110404E+02  0.52376082439E+02 -0.26114711527E+03  0.26824788790E+03  0.47000000000E+01 0.  1.
         -5    1    3    3    0  502 -0.12863854913E+01  0.15363939006E+02  0.12267437761E+02  0.20255503910E+02  0.47000000000E+01 0.  1.
        -11    1    1    2    0    0 -0.33022737237E+02 -0.36273752820E+02 -0.43486549852E+02  0.65554300669E+02  0.00000000000E+00 0. -1.
         11    1    1    2    0    0  0.65833233132E+02 -0.31466268625E+02 -0.51322300923E+02  0.89208291194E+02  0.00000000000E+00 0.  1.
<mgrwt>
<rscale>  0 0.13962593E+03</rscale>
<asrwt>0</asrwt>
<pdfrwt beam="2">  1        1 0.60534962E-01 0.14592160E+03</pdfrwt>
<pdfrwt beam="1">  1       -1 0.76598044E-02 0.14592160E+03</pdfrwt>
<totfact> 0.54898428E+03</totfact>
</mgrwt>
</event>
<event>
 7    1  0.7800420E-006  0.1788591E+03  0.7546771E-02  0.1173997E+00
         -3   -1    0    0    0  501 -0.00000000000E+00  0.00000000000E+00  0.29103181689E+02  0.29103181689E+02  0.00000000000E+00 0.  1.
          3   -1    0    0  501    0  0.00000000000E+00 -0.00000000000E+00 -0.98496058055E+03  0.98496058055E+03  0.00000000000E+00 0. -1.
         23    2    1    2    0    0 -0.20163306768E+02  0.12633160393E+03 -0.47829456022E+03  0.51064299954E+03  0.12499741417E+03 0.  0.
          5    1    3    3  502    0  0.23408175951E+02  0.91809569963E+02 -0.14885400755E+03  0.17651216786E+03  0.47000000000E+01 0. -1.
         -5    1    3    3    0  502 -0.43571482719E+02  0.34522033966E+02 -0.32944055267E+03  0.33413083168E+03  0.47000000000E+01 0. -1.
        -11    1    1    2    0    0 -0.10909808785E+02 -0.67759240053E+02 -0.10803665841E+03  0.12799319553E+03  0.00000000000E+00 0.  1.
         11    1    1    2    0    0  0.31073115553E+02 -0.58572363876E+02 -0.36952618023E+03  0.37542756718E+03  0.00000000000E+00 0. -1.
<mgrwt>
<rscale>  0 0.17374617E+03</rscale>
<asrwt>0</asrwt>
<pdfrwt beam="2">  1        3 0.15153239E+00 0.17885913E+03</pdfrwt>
<pdfrwt beam="1">  1       -3 0.44774128E-02 0.17885913E+03</pdfrwt>
<totfact> 0.21998212E+02</totfact>
</mgrwt>
</event>
<event>
 6    1  0.7800420E-006  0.2068536E+03  0.7546771E-02  0.1174859E+00
          1   -1    0    0  501    0  0.00000000000E+00  0.00000000000E+00  0.14394912289E+04  0.14394912289E+04  0.00000000000E+00 0. -1.
         -1   -1    0    0    0  501 -0.00000000000E+00 -0.00000000000E+00 -0.22229385584E+02  0.22229385584E+02  0.00000000000E+00 0.  1.
          5    1    1    2  502    0  0.10840981718E+03 -0.45087302392E+02  0.97298196918E+03  0.98005181274E+03  0.47000000000E+01 0. -1.
         -5    1    1    2    0  502 -0.70746024460E+02  0.22585227513E+02  0.27188563446E+03  0.28188469399E+03  0.47000000000E+01 0.  1.
        -11    1    1    2    0    0  0.23477412831E+02  0.24906118875E+02  0.95919279212E+02  0.10184307436E+03  0.00000000000E+00 0.  1.
         11    1    1    2    0    0 -0.61141205548E+02 -0.24040439951E+01  0.76474960414E+02  0.97941033350E+02  0.00000000000E+00 0. -1.
<mgrwt>
<rscale>  0 0.17289797E+03</rscale>
<asrwt>0</asrwt>
<pdfrwt beam="1">  1        1 0.22146012E+00 0.20685356E+03</pdfrwt>
<pdfrwt beam="2">  1       -1 0.34199066E-02 0.20685356E+03</pdfrwt>
<totfact> 0.24357840E+03</totfact>
</mgrwt>
</event>
<event>
 7    1  0.7800420E-006  0.1734544E+03  0.7546771E-02  0.1180673E+00
          2   -1    0    0  501    0  0.00000000000E+00  0.00000000000E+00  0.71381916428E+03  0.71381916428E+03  0.00000000000E+00 0. -1.
         -2   -1    0    0    0  501 -0.00000000000E+00 -0.00000000000E+00 -0.39057474658E+02  0.39057474658E+02  0.00000000000E+00 0.  1.
         23    2    1    2    0    0  0.92954537924E+02  0.76268340209E+02  0.45274252619E+03  0.48483215608E+03  0.12501607380E+03 0.  0.
          5    1    3    3  502    0 -0.27743178311E+02 -0.42411217079E+00  0.10733904345E+03  0.11096677008E+03  0.47000000000E+01 0.  1.
         -5    1    3    3    0  502  0.12069771623E+03  0.76692452379E+02  0.34540348274E+03  0.37386538600E+03  0.47000000000E+01 0.  1.
        -11    1    1    2    0    0 -0.15983028954E+02 -0.57753675275E+02  0.14797144229E+03  0.15964489330E+03  0.00000000000E+00 0. -1.
         11    1    1    2    0    0 -0.76971508970E+02 -0.18514664934E+02  0.74047721136E+02  0.10839958956E+03  0.00000000000E+00 0.  1.
<mgrwt>
<rscale>  0 0.16731895E+03</rscale>
<asrwt>0</asrwt>
<pdfrwt beam="1">  1        2 0.10981832E+00 0.17345439E+03</pdfrwt>
<pdfrwt beam="2">  1       -2 0.60088428E-02 0.17345439E+03</pdfrwt>
<totfact> 0.59141842E+03</totfact>
</mgrwt>
</event>
<event>
 7    1  0.7800420E-006  0.1323051E+03  0.7546771E-02  0.1237454E+00
         -2   -1    0    0    0  501 -0.00000000000E+00  0.00000000000E+00  0.12322616330E+02  0.12322616330E+02  0.00000000000E+00 0. -1.
          2   -1    0    0  501    0  0.00000000000E+00 -0.00000000000E+00 -0.18255322374E+04  0.18255322374E+04  0.00000000000E+00 0.  1.
         23    2    1    2    0    0  0.41786438133E+02 -0.11614853441E+02 -0.15579676338E+04  0.15635753200E+04  0.12499448909E+03 0.  0.
          5    1    3    3  502    0  0.32554836801E+02 -0.52677395791E+02 -0.39634401995E+03  0.40118000645E+03  0.47000000000E+01 0. -1.
         -5    1    3    3    0  502  0.92316013316E+01  0.41062542350E+02 -0.11616236138E+04  0.11623953136E+04  0.47000000000E+01 0. -1.
        -11    1    1    2    0    0 -0.30092131081E+02 -0.34475500731E+02 -0.74891451217E+02  0.87765744850E+02  0.00000000000E+00 0.  1.
         11    1    1    2    0    0 -0.11694307051E+02  0.46090354172E+02 -0.18035053606E+03  0.18651378883E+03  0.00000000000E+00 0. -1.
<mgrwt>
<rscale>  0 0.12348642E+03</rscale>
<asrwt>0</asrwt>
<pdfrwt beam="2">  1        2 0.28085094E+00 0.13230508E+03</pdfrwt>
<pdfrwt beam="1">  1       -2 0.18957883E-02 0.13230508E+03</pdfrwt>
<totfact> 0.75516731E+03</totfact>
</mgrwt>
</event>
<event>
 7    1  0.7800420E-006  0.1301464E+03  0.7546771E-02  0.1241734E+00
         -2   -1    0    0    0  501 -0.00000000000E+00  0.00000000000E+00  0.41084003884E+03  0.41084003884E+03  0.00000000000E+00 0.  1.
          2   -1    0    0  501    0  0.00000000000E+00 -0.00000000000E+00 -0.36061533951E+02  0.36061533951E+02  0.00000000000E+00 0. -1.
         23    2    1    2    0    0  0.35142575733E+02 -0.88824361788E+01  0.13105830263E+03  0.18470075703E+03  0.12499677059E+03 0.  0.
          5    1    3    3  502    0  0.11415988743E+02 -0.27845389573E+02  0.14696867502E+03  0.15009187838E+03  0.47000000000E+01 0.  1.
         -5    1    3    3    0  502  0.23726586990E+02  0.18962953395E+02 -0.15910372390E+02  0.34608878647E+02  0.47000000000E+01 0.  1.
        -11    1    1    2    0    0  0.16012656047E+02 -0.27739783492E+02  0.10718152215E+03  0.11186500540E+03  0.00000000000E+00 0.  1.
         11    1    1    2    0    0 -0.51155231779E+02  0.36622219671E+02  0.13653868011E+03  0.15033581036E+03  0.00000000000E+00 0. -1.
<mgrwt>
<rscale>  0 0.12082980E+03</rscale>
<asrwt>0</asrwt>
<pdfrwt beam="2">  1        2 0.55479286E-02 0.13014642E+03</pdfrwt>
<pdfrwt beam="1">  1       -2 0.63206156E-01 0.13014642E+03</pdfrwt>
<totfact> 0.30949595E+03</totfact>
</mgrwt>
</event>
<event>
 7    1  0.7800420E-006  0.1425403E+03  0.7546771E-02  0.1221682E+00
         -3   -1    0    0    0  501 -0.00000000000E+00  0.00000000000E+00  0.30032829657E+02  0.30032829657E+02  0.00000000000E+00 0.  1.
          3   -1    0    0  501    0  0.00000000000E+00 -0.00000000000E+00 -0.58597689723E+03  0.58597689723E+03  0.00000000000E+00 0. -1.
         23    2    1    2    0    0 -0.64376671712E+02 -0.23422809144E+02 -0.39861839461E+03  0.42333715699E+03  0.12499896047E+03 0.  0.
          5    1    3    3  502    0  0.18796083461E+02  0.94861825892E+01 -0.24165154624E+03  0.24261253104E+03  0.47000000000E+01 0.  1.
         -5    1    3    3    0  502 -0.83172755173E+02 -0.32908991733E+02 -0.15696684836E+03  0.18072462595E+03  0.47000000000E+01 0.  1.
        -11    1    1    2    0    0 -0.77118326605E+01  0.14055897126E+02 -0.96686800824E+02  0.98007030669E+02  0.00000000000E+00 0. -1.
         11    1    1    2    0    0  0.72088504372E+02  0.93669120178E+01 -0.60638872145E+02  0.94665539234E+02  0.00000000000E+00 0.  1.
<mgrwt>
<rscale>  0 0.13396930E+03</rscale>
<asrwt>0</asrwt>
<pdfrwt beam="2">  1        3 0.90150290E-01 0.14254025E+03</pdfrwt>
<pdfrwt beam="1">  1       -3 0.46204354E-02 0.14254025E+03</pdfrwt>
<totfact> 0.69082911E+02</totfact>
</mgrwt>
</event>
<event>
 7    1  0.7800420E-006  0.1403448E+03  0.7546771E-02  0.1224153E+00
          2   -1    0    0  501    0  0.00000000000E+00  0.00000000000E+00  0.26296081980E+04  0.26296081980E+04  0.00000000000E+00 0. -1.
         -2   -1    0    0    0  501 -0.00000000000E+00 -0.00000000000E+00 -0.85032956349E+01  0.85032956349E+01  0.00000000000E+00 0.  1.
         23    2    1    2    0    0  0.41044579446E+02  0.48872820016E+02  0.21332787938E+04  0.21378903333E+04  0.12499382037E+03 0.  0.
          5    1    3    3  502    0 -0.12669168594E+02 -0.24117670696E+02  0.11748227230E+04  0.11751479441E+04  0.47000000000E+01 0. -1.
         -5    1    3    3    0  502  0.53713748039E+02  0.72990490712E+02  0.95845607078E+03  0.96274238926E+03  0.47000000000E+01 0. -1.
        -11    1    1    2    0    0 -0.37699495153E+01  0.19701562056E+02  0.32044222913E+02  0.37804712522E+02  0.00000000000E+00 0.  1.
         11    1    1    2    0    0 -0.37274629930E+02 -0.68574382072E+02  0.45578188566E+03  0.46241644781E+03  0.00000000000E+00 0. -1.
<mgrwt>
<rscale>  0 0.13225147E+03</rscale>
<asrwt>0</asrwt>
<pdfrwt beam="1">  1        2 0.40455446E+00 0.14034481E+03</pdfrwt>
<pdfrwt beam="2">  1       -2 0.13082014E-02 0.14034481E+03</pdfrwt>
<totfact> 0.49156594E+03</totfact>
</mgrwt>
</event>
<event>
 7    1  0.7800420E-006  0.3849783E+03  0.7546771E-02  0.1050082E+00
         -2   -1    0    0    0  501 -0.00000000000E+00  0.00000000000E+00  0.25311285033E+03  0.25311285033E+03  0.00000000000E+00 0. -1.
          2   -1    0    0  501    0  0.00000000000E+00 -0.00000000000E+00 -0.60760786032E+03  0.60760786032E+03  0.00000000000E+00 0.  1.
         23    2    1    2    0    0 -0.10832842235E+03 -0.34762750402E+03 -0.28716920209E+03  0.48028578430E+03  0.12501342062E+03 0.  0.
          5    1    3    3  502    0  0.22528663058E+02 -0.39473808297E+02 -0.12918988442E+02  0.47483812642E+02  0.47000000000E+01 0.  1.
         -5    1    3    3    0  502 -0.13085708541E+03 -0.30815369572E+03 -0.27425021365E+03  0.43280197166E+03  0.47000000000E+01 0.  1.
        -11    1    1    2    0    0 -0.69243384162E+01  0.11067415462E+03 -0.22599581150E+02  0.11317003151E+03  0.00000000000E+00 0.  1.
         11    1    1    2    0    0  0.11525276077E+03  0.23695334940E+03 -0.44726226748E+02  0.26726489484E+03  0.00000000000E+00 0. -1.
<mgrwt>
<rscale>  0 0.38231373E+03</rscale>
<asrwt>0</asrwt>
<pdfrwt beam="2">  1        2 0.93478133E-01 0.38497829E+03</pdfrwt>
<pdfrwt beam="1">  1       -2 0.38940438E-01 0.38497829E+03</pdfrwt>
<totfact> 0.31188179E+02</totfact>
</mgrwt>
</event>
<event>
 7    1  0.7800420E-006  0.1407045E+03  0.7546771E-02  0.1222898E+00
          2   -1    0    0  501    0  0.00000000000E+00  0.00000000000E+00  0.60764456929E+03  0.60764456929E+03  0.00000000000E+00 0. -1.
         -2   -1    0    0    0  501 -0.00000000000E+00 -0.00000000000E+00 -0.30868355973E+02  0.30868355973E+02  0.00000000000E+00 0.  1.
         23    2    1    2    0    0  0.61677480648E+02 -0.19208662346E+02  0.43611605146E+03  0.45825207207E+03  0.12499866755E+03 0.  0.
          5    1    3    3  502    0  0.62962805710E+01  0.36617228192E+02  0.28859878405E+03  0.29101857794E+03  0.47000000000E+01 0. -1.
         -5    1    3    3    0  502  0.55381200077E+02 -0.55825890537E+02  0.14751726741E+03  0.16723349414E+03  0.47000000000E+01 0. -1.
        -11    1    1    2    0    0 -0.54160729260E+02 -0.72390366979E+01  0.14258675895E+03  0.15269830410E+03  0.00000000000E+00 0. -1.
         11    1    1    2    0    0 -0.75167513885E+01  0.26447699043E+02 -0.19265970942E+01  0.27562549093E+02  0.00000000000E+00 0.  1.
<mgrwt>
<rscale>  0 0.13312008E+03</rscale>
<asrwt>0</asrwt>
<pdfrwt beam="1">  1        2 0.93483771E-01 0.14070448E+03</pdfrwt>
<pdfrwt beam="2">  1       -2 0.47489783E-02 0.14070448E+03</pdfrwt>
<totfact> 0.10080736E+04</totfact>
</mgrwt>
</event>
<event>
 7    1  0.7800420E-006  0.1526668E+03  0.7546771E-02  0.1205585E+00
         -1   -1    0    0    0  501 -0.00000000000E+00  0.00000000000E+00  0.15378299730E+03  0.15378299730E+03  0.00000000000E+00 0.  1.
          1   -1    0    0  501    0  0.00000000000E+00 -0.00000000000E+00 -0.17648238547E+03  0.17648238547E+03  0.00000000000E+00 0. -1.
         23    2    1    2    0    0  0.57392938225E+02  0.66251221730E+02 -0.98821457780E+02  0.18185937700E+03  0.12499591492E+03 0.  0.
          5    1    3    3  502    0  0.34651403806E+02  0.50961960194E+01 -0.10996301997E+03  0.11550171757E+03  0.47000000000E+01 0. -1.
         -5    1    3    3    0  502  0.22741534419E+02  0.61155025710E+02  0.11141562191E+02  0.66357659433E+02  0.47000000000E+01 0. -1.
        -11    1    1    2    0    0 -0.58618823225E+02 -0.86763909627E+02  0.72943622801E+02  0.12761236052E+03  0.00000000000E+00 0.  1.
         11    1    1    2    0    0  0.12258850001E+01  0.20512687897E+02  0.31784468001E+01  0.20793645252E+02  0.00000000000E+00 0. -1.
<mgrwt>
<rscale>  0 0.14591418E+03</rscale>
<asrwt>0</asrwt>
<pdfrwt beam="2">  1        1 0.27151136E-01 0.15266680E+03</pdfrwt>
<pdfrwt beam="1">  1       -1 0.23658923E-01 0.15266680E+03</pdfrwt>
<totfact> 0.25622881E+03</totfact>
</mgrwt>
</event>
<event>
 7    1  0.7800420E-006  0.1340460E+03  0.7546771E-02  0.1234871E+00
         -2   -1    0    0    0  501 -0.00000000000E+00  0.00000000000E+00  0.34252641975E+03  0.34252641975E+03  0.00000000000E+00 0.  1.
          2   -1    0    0  501    0  0.00000000000E+00 -0.00000000000E+00 -0.41479712802E+02  0.41479712802E+02  0.00000000000E+00 0. -1.
         23    2    1    2    0    0  0.44670859276E+02 -0.18668631745E+02  0.19854586885E+03  0.23955956668E+03  0.12499728186E+03 0.  0.
          5    1    3    3  502    0 -0.23202679654E+01  0.45954002449E+02  0.36845297173E+02  0.59133915043E+02  0.47000000000E+01 0. -1.
         -5    1    3    3    0  502  0.46991127241E+02 -0.64622634194E+02  0.16170057167E+03  0.18042565164E+03  0.47000000000E+01 0. -1.
        -11    1    1    2    0    0 -0.15680636469E+02  0.25065140663E+02 -0.75063411202E+01  0.30503914397E+02  0.00000000000E+00 0. -1.
         11    1    1    2    0    0 -0.28990222806E+02 -0.63965089187E+01  0.11000717922E+03  0.11394265147E+03  0.00000000000E+00 0.  1.
<mgrwt>
<rscale>  0 0.12512724E+03</rscale>
<asrwt>0</asrwt>
<pdfrwt beam="2">  1        2 0.63814945E-02 0.13404598E+03</pdfrwt>
<pdfrwt beam="1">  1       -2 0.52696370E-01 0.13404598E+03</pdfrwt>
<totfact> 0.37507540E+03</totfact>
</mgrwt>
</event>
<event>
 7    1  0.7800420E-006  0.1131752E+03  0.7546771E-02  0.1312686E+00
          1   -1    0    0  501    0  0.00000000000E+00  0.00000000000E+00  0.12160463984E+04  0.12160463984E+04  0.00000000000E+00 0. -1.
         -1   -1    0    0    0  501 -0.00000000000E+00 -0.00000000000E+00 -0.24126310389E+02  0.24126310389E+02  0.00000000000E+00 0.  1.
         23    2    1    2    0    0 -0.92865713609E+01 -0.19368117720E+02  0.11966948095E+04  0.12020345611E+04  0.11111820133E+03 0.  0.
          5    1    3    3  502    0  0.77544659847E+01 -0.30124791787E+02  0.11555605129E+04  0.11559886781E+04  0.47000000000E+01 0. -1.
         -5    1    3    3    0  502 -0.17041037346E+02  0.10756674067E+02  0.41134296591E+02  0.46045883061E+02  0.47000000000E+01 0.  1.
        -11    1    1    2    0    0 -0.10119070218E+02  0.91548173524E+01  0.44423772612E+01  0.14350643838E+02  0.00000000000E+00 0. -1.
         11    1    1    2    0    0  0.19405641579E+02  0.10213300368E+02 -0.92170987401E+01  0.23787503835E+02  0.00000000000E+00 0.  1.
<mgrwt>
<rscale>  0 0.86058870E+02</rscale>
<asrwt>0</asrwt>
<pdfrwt beam="1">  1        1 0.18708401E+00 0.11317517E+03</pdfrwt>
<pdfrwt beam="2">  1       -1 0.37117410E-02 0.11317517E+03</pdfrwt>
<totfact> 0.30183486E+03</totfact>
</mgrwt>
</event>
<event>
 7    1  0.7800420E-006  0.1876819E+03  0.7546771E-02  0.1165708E+00
          3   -1    0    0  501    0  0.00000000000E+00  0.00000000000E+00  0.22183529918E+02  0.22183529918E+02  0.00000000000E+00 0. -1.
         -3   -1    0    0    0  501 -0.00000000000E+00 -0.00000000000E+00 -0.14660384008E+04  0.14660384008E+04  0.00000000000E+00 0.  1.
         23    2    1    2    0    0 -0.88794696075E+02  0.10824854495E+03 -0.62439687411E+03  0.65199384128E+03  0.12498906809E+03 0.  0.
          5    1    3    3  502    0  0.12969687882E+02  0.67063157143E+02 -0.34574217427E+03  0.35245626809E+03  0.47000000000E+01 0. -1.
         -5    1    3    3    0  502 -0.10176438396E+03  0.41185387802E+02 -0.27865469984E+03  0.29953757319E+03  0.47000000000E+01 0. -1.
        -11    1    1    2    0    0  0.80113205819E+02 -0.28588118145E+02 -0.36695557509E+03  0.37668528022E+03  0.00000000000E+00 0.  1.
         11    1    1    2    0    0  0.86814902560E+01 -0.79660426800E+02 -0.45250242172E+03  0.45954280925E+03  0.00000000000E+00 0. -1.
<mgrwt>
<rscale>  0 0.18218225E+03</rscale>
<asrwt>0</asrwt>
<pdfrwt beam="1">  1        3 0.34128506E-02 0.18768195E+03</pdfrwt>
<pdfrwt beam="2">  1       -3 0.22554438E+00 0.18768195E+03</pdfrwt>
<totfact> 0.11480993E+02</totfact>
</mgrwt>
</event>
<event>
 7    1  0.7800420E-006  0.1408985E+03  0.7546771E-02  0.1222306E+00
         -2   -1    0    0    0  501 -0.00000000000E+00  0.00000000000E+00  0.35105626367E+03  0.35105626367E+03  0.00000000000E+00 0. -1.
          2   -1    0    0  501    0  0.00000000000E+00 -0.00000000000E+00 -0.46205617248E+02  0.46205617248E+02  0.00000000000E+00 0.  1.
         23    2    1    2    0    0 -0.30164654336E+02 -0.57537553572E+02  0.16179076912E+03  0.21454287558E+03  0.12502766113E+03 0.  0.
          5    1    3    3  502    0 -0.81639461192E+01  0.30364594830E+01  0.14817743761E+03  0.14850761974E+03  0.47000000000E+01 0.  1.
         -5    1    3    3    0  502 -0.22000708217E+02 -0.60574013055E+02  0.13613331507E+02  0.66035255843E+02  0.47000000000E+01 0.  1.
        -11    1    1    2    0    0  0.82500776383E+01  0.75833025047E+02  0.13128767911E+03  0.15183927738E+03  0.00000000000E+00 0. -1.
         11    1    1    2    0    0  0.21914576698E+02 -0.18295471475E+02  0.11772198188E+02  0.30879727954E+02  0.00000000000E+00 0.  1.
<mgrwt>
<rscale>  0 0.13353284E+03</rscale>
<asrwt>0</asrwt>
<pdfrwt beam="2">  1        2 0.71085567E-02 0.14089852E+03</pdfrwt>
<pdfrwt beam="1">  1       -2 0.54008654E-01 0.14089852E+03</pdfrwt>
<totfact> 0.31214159E+03</totfact>
</mgrwt>
</event>
<event>
 7    1  0.7800420E-006  0.1299671E+03  0.7546771E-02  0.1241059E+00
          2   -1    0    0  501    0  0.00000000000E+00  0.00000000000E+00  0.32484588274E+03  0.32484588274E+03  0.00000000000E+00 0. -1.
         -2   -1    0    0    0  501 -0.00000000000E+00 -0.00000000000E+00 -0.40343059076E+02  0.40343059076E+02  0.00000000000E+00 0.  1.
         23    2    1    2    0    0 -0.33871795062E+02  0.10796414789E+02  0.17439931029E+03  0.21750073518E+03  0.12501035677E+03 0.  0.
          5    1    3    3  502    0 -0.39150030244E+02  0.56400160050E+02  0.15059759215E+03  0.16557604804E+03  0.47000000000E+01 0.  1.
         -5    1    3    3    0  502  0.52782351820E+01 -0.45603745261E+02  0.23801718138E+02  0.51924687142E+02  0.47000000000E+01 0.  1.
        -11    1    1    2    0    0  0.50230663967E+02 -0.27432123592E+02  0.11040142104E+03  0.12435479394E+03  0.00000000000E+00 0. -1.
         11    1    1    2    0    0 -0.16358868905E+02  0.16635708803E+02 -0.29790766709E+00  0.23333412699E+02  0.00000000000E+00 0.  1.
<mgrwt>
<rscale>  0 0.12124396E+03</rscale>
<asrwt>0</asrwt>
<pdfrwt beam="1">  1        2 0.49976288E-01 0.12996711E+03</pdfrwt>
<pdfrwt beam="2">  1       -2 0.62066247E-02 0.12996711E+03</pdfrwt>
<totfact> 0.13221068E+04</totfact>
</mgrwt>
</event>
<event>
 6    1  0.7800420E-006  0.1911118E+03  0.7546771E-02  0.1174212E+00
          1   -1    0    0  501    0  0.00000000000E+00  0.00000000000E+00  0.18570605055E+04  0.18570605055E+04  0.00000000000E+00 0. -1.
         -1   -1    0    0    0  501 -0.00000000000E+00 -0.00000000000E+00 -0.68503413651E+02  0.68503413651E+02  0.00000000000E+00 0.  1.
          5    1    1    2  502    0 -0.48372377617E+02  0.48482221158E+01  0.10954001949E+04  0.10964885176E+04  0.47000000000E+01 0. -1.
         -5    1    1    2    0  502  0.72167933994E+02  0.86173944189E+02  0.69000834078E+03  0.69911927430E+03  0.47000000000E+01 0.  1.
        -11    1    1    2    0    0 -0.37923070433E+01 -0.45977582925E+02 -0.42538011200E+02  0.62751909304E+02  0.00000000000E+00 0.  1.
         11    1    1    2    0    0 -0.20003249334E+02 -0.45044583379E+02  0.45686567363E+02  0.67204217971E+02  0.00000000000E+00 0. -1.
<mgrwt>
<rscale>  0 0.17353332E+03</rscale>
<asrwt>0</asrwt>
<pdfrwt beam="1">  1        1 0.28570158E+00 0.19111176E+03</pdfrwt>
<pdfrwt beam="2">  1       -1 0.10538988E-01 0.19111176E+03</pdfrwt>
<totfact> 0.23983973E+02</totfact>
</mgrwt>
</event>
<event>
 7    1  0.7800420E-006  0.1345189E+03  0.7546771E-02  0.1232966E+00
          2   -1    0    0  501    0  0.00000000000E+00  0.00000000000E+00  0.54256217646E+03  0.54256217646E+03  0.00000000000E+00 0. -1.
         -2   -1    0    0    0  501 -0.00000000000E+00 -0.00000000000E+00 -0.26676696656E+02  0.26676696656E+02  0.00000000000E+00 0.  1.
         23    2    1    2    0    0 -0.47481538382E+02  0.14659903472E+02  0.31987019113E+03  0.34700470344E+03  0.12500366306E+03 0.  0.
          5    1    3    3  502    0 -0.73478131836E+02 -0.12022460061E+02  0.10456770256E+03  0.12845259757E+03  0.47000000000E+01 0.  1.
         -5    1    3    3    0  502  0.25996593454E+02  0.26682363534E+02  0.21530248858E+03  0.21855210587E+03  0.47000000000E+01 0.  1.
        -11    1    1    2    0    0  0.24305588519E+02  0.17291305305E+02  0.17498606797E+03  0.17751021057E+03  0.00000000000E+00 0. -1.
         11    1    1    2    0    0  0.23175949863E+02 -0.31951208777E+02  0.21029220691E+02  0.44723959096E+02  0.00000000000E+00 0.  1.
<mgrwt>
<rscale>  0 0.12635534E+03</rscale>
<asrwt>0</asrwt>
<pdfrwt beam="1">  1        2 0.83471096E-01 0.13451886E+03</pdfrwt>
<pdfrwt beam="2">  1       -2 0.41041076E-02 0.13451886E+03</pdfrwt>
<totfact> 0.14197938E+04</totfact>
</mgrwt>
</event>
<event>
 7    1  0.7800420E-006  0.1854970E+03  0.7546771E-02  0.1167637E+00
          1   -1    0    0  501    0  0.00000000000E+00  0.00000000000E+00  0.50369940170E+03  0.50369940170E+03  0.00000000000E+00 0. -1.
         -1   -1    0    0    0  501 -0.00000000000E+00 -0.00000000000E+00 -0.61013616109E+02  0.61013616109E+02  0.00000000000E+00 0.  1.
         23    2    1    2    0    0  0.75091919204E+02  0.11465779863E+03  0.23106116492E+03  0.29630792669E+03  0.12499567341E+03 0.  0.
          5    1    3    3  502    0  0.36015813738E+02  0.77778028792E+02  0.22645074128E+03  0.24217470724E+03  0.47000000000E+01 0.  1.
         -5    1    3    3    0  502  0.39076105466E+02  0.36879769843E+02  0.46104236362E+01  0.54133219451E+02  0.47000000000E+01 0.  1.
        -11    1    1    2    0    0 -0.19082898110E+02 -0.57076630620E+02  0.16475600275E+03  0.17540364650E+03  0.00000000000E+00 0. -1.
         11    1    1    2    0    0 -0.56009021093E+02 -0.57581168015E+02  0.46868617920E+02  0.93001444610E+02  0.00000000000E+00 0.  1.
<mgrwt>
<rscale>  0 0.18017146E+03</rscale>
<asrwt>0</asrwt>
<pdfrwt beam="1">  1        1 0.77492213E-01 0.18549697E+03</pdfrwt>
<pdfrwt beam="2">  1       -1 0.93867105E-02 0.18549697E+03</pdfrwt>
<totfact> 0.29632877E+03</totfact>
</mgrwt>
</event>
<event>
 7    1  0.7800420E-006  0.1305431E+03  0.7546771E-02  0.1237854E+00
         -3   -1    0    0    0  501 -0.00000000000E+00  0.00000000000E+00  0.41611609925E+02  0.41611609925E+02  0.00000000000E+00 0.  1.
          3   -1    0    0  501    0  0.00000000000E+00 -0.00000000000E+00 -0.34640314263E+03  0.34640314263E+03  0.00000000000E+00 0. -1.
         23    2    1    2    0    0 -0.56797809496E+02  0.88908817576E+01 -0.21150806388E+03  0.24855011672E+03  0.11720264711E+03 0.  0.
          5    1    3    3  502    0 -0.10563667311E+02  0.12684340770E+02 -0.19971998358E+03  0.20045609347E+03  0.47000000000E+01 0. -1.
         -5    1    3    3    0  502 -0.46234142185E+02 -0.37934590123E+01 -0.11788080305E+02  0.48094023247E+02  0.47000000000E+01 0.  1.
        -11    1    1    2    0    0 -0.12590912487E+02  0.94704774847E+01 -0.56806142963E+02  0.58950478365E+02  0.00000000000E+00 0. -1.
         11    1    1    2    0    0  0.69388721983E+02 -0.18361359242E+02 -0.36477325854E+02  0.80514157470E+02  0.00000000000E+00 0.  1.
<mgrwt>
<rscale>  0 0.12323507E+03</rscale>
<asrwt>0</asrwt>
<pdfrwt beam="2">  1        3 0.53292789E-01 0.13054309E+03</pdfrwt>
<pdfrwt beam="1">  1       -3 0.64017863E-02 0.13054309E+03</pdfrwt>
<totfact> 0.12326224E+03</totfact>
</mgrwt>
</event>
<event>
 7    1  0.7800420E-006  0.2096964E+03  0.7546771E-02  0.1145516E+00
         -2   -1    0    0    0  501 -0.00000000000E+00  0.00000000000E+00  0.15333038672E+03  0.15333038672E+03  0.00000000000E+00 0.  1.
          2   -1    0    0  501    0  0.00000000000E+00 -0.00000000000E+00 -0.37050023728E+03  0.37050023728E+03  0.00000000000E+00 0. -1.
         23    2    1    2    0    0 -0.83062023011E+00 -0.16836613923E+03 -0.25304825835E+03  0.32864267912E+03  0.12499897087E+03 0.  0.
          5    1    3    3  502    0  0.14437378607E+02 -0.32416269346E+02  0.53820279107E+01  0.36198185642E+02  0.47000000000E+01 0. -1.
         -5    1    3    3    0  502 -0.15267998837E+02 -0.13594986988E+03 -0.25843028626E+03  0.29244449348E+03  0.47000000000E+01 0. -1.
        -11    1    1    2    0    0 -0.29740632919E+01  0.74784795926E+02  0.62839190117E+02  0.97726017870E+02  0.00000000000E+00 0.  1.
         11    1    1    2    0    0  0.38046835220E+01  0.93581343305E+02 -0.26960782330E+02  0.97461927004E+02  0.00000000000E+00 0. -1.
<mgrwt>
<rscale>  0 0.20508815E+03</rscale>
<asrwt>0</asrwt>
<pdfrwt beam="2">  1        2 0.57000036E-01 0.20969642E+03</pdfrwt>
<pdfrwt beam="1">  1       -2 0.23589290E-01 0.20969642E+03</pdfrwt>
<totfact> 0.13621474E+03</totfact>
</mgrwt>
</event>
<event>
 7    1  0.7800420E-006  0.1720504E+03  0.7546771E-02  0.1182040E+00
         -1   -1    0    0    0  501 -0.00000000000E+00  0.00000000000E+00  0.21131567328E+03  0.21131567328E+03  0.00000000000E+00 0.  1.
          1   -1    0    0  501    0  0.00000000000E+00 -0.00000000000E+00 -0.12243756019E+03  0.12243756019E+03  0.00000000000E+00 0. -1.
         23    2    1    2    0    0 -0.75535725321E+02  0.90976472507E+02  0.55954790966E+02  0.18092061412E+03  0.12497586020E+03 0.  0.
          5    1    3    3  502    0 -0.38997245037E+02  0.75975577674E+02 -0.26360313301E+02  0.89498768934E+02  0.47000000000E+01 0.  1.
         -5    1    3    3    0  502 -0.36538480284E+02  0.15000894832E+02  0.82315104266E+02  0.91421845188E+02  0.47000000000E+01 0.  1.
        -11    1    1    2    0    0  0.27427172739E+02 -0.92926415383E+02  0.38713923380E+02  0.10433760752E+03  0.00000000000E+00 0.  1.
         11    1    1    2    0    0  0.48108552583E+02  0.19499428764E+01 -0.57906012483E+01  0.48495011822E+02  0.00000000000E+00 0. -1.
<mgrwt>
<rscale>  0 0.16604131E+03</rscale>
<asrwt>0</asrwt>
<pdfrwt beam="2">  1        1 0.18836548E-01 0.17205037E+03</pdfrwt>
<pdfrwt beam="1">  1       -1 0.32510104E-01 0.17205037E+03</pdfrwt>
<totfact> 0.24072448E+03</totfact>
</mgrwt>
</event>
<event>
 7    1  0.7800420E-006  0.1305752E+03  0.7546771E-02  0.1241368E+00
         -1   -1    0    0    0  501 -0.00000000000E+00  0.00000000000E+00  0.28065866592E+03  0.28065866592E+03  0.00000000000E+00 0.  1.
          1   -1    0    0  501    0  0.00000000000E+00 -0.00000000000E+00 -0.45915903438E+02  0.45915903438E+02  0.00000000000E+00 0. -1.
         23    2    1    2    0    0  0.28611602273E+02  0.24730324909E+02  0.13625502059E+03  0.18872017849E+03  0.12497864769E+03 0.  0.
          5    1    3    3  502    0  0.69115840085E+02 -0.16757015945E+02  0.87232746803E+02  0.11264741031E+03  0.47000000000E+01 0. -1.
         -5    1    3    3    0  502 -0.40504237812E+02  0.41487340855E+02  0.49022273792E+02  0.76072768187E+02  0.47000000000E+01 0. -1.
        -11    1    1    2    0    0  0.19156538726E+02 -0.69816712256E+01  0.81693469590E+02  0.84199404289E+02  0.00000000000E+00 0.  1.
         11    1    1    2    0    0 -0.47768140999E+02 -0.17748653684E+02  0.16794272295E+02  0.53654986572E+02  0.00000000000E+00 0. -1.
<mgrwt>
<rscale>  0 0.12105400E+03</rscale>
<asrwt>0</asrwt>
<pdfrwt beam="2">  1        1 0.70639853E-02 0.13057517E+03</pdfrwt>
<pdfrwt beam="1">  1       -1 0.43178255E-01 0.13057517E+03</pdfrwt>
<totfact> 0.52725915E+03</totfact>
</mgrwt>
</event>
<event>
 7    1  0.7800420E-006  0.1307324E+03  0.7546771E-02  0.1239791E+00
          1   -1    0    0  501    0  0.00000000000E+00  0.00000000000E+00  0.46457139976E+02  0.46457139976E+02  0.00000000000E+00 0. -1.
         -1   -1    0    0    0  501 -0.00000000000E+00 -0.00000000000E+00 -0.33328614186E+03  0.33328614186E+03  0.00000000000E+00 0.  1.
         23    2    1    2    0    0  0.29267284877E+02 -0.24711007651E+02 -0.88194275190E+02  0.15769972509E+03  0.12499506092E+03 0.  0.
          5    1    3    3  502    0 -0.12174436064E+02  0.19028941308E+02 -0.94181120002E+02  0.96966441956E+02  0.47000000000E+01 0.  1.
         -5    1    3    3    0  502  0.41441720942E+02 -0.43739948959E+02  0.59868448120E+01  0.60733283135E+02  0.47000000000E+01 0.  1.
        -11    1    1    2    0    0 -0.14292730027E+02  0.58579013574E+02 -0.14321140902E+03  0.15538754981E+03  0.00000000000E+00 0.  1.
         11    1    1    2    0    0 -0.14974554850E+02 -0.33868005924E+02 -0.55423317673E+02  0.66656006932E+02  0.00000000000E+00 0. -1.
<mgrwt>
<rscale>  0 0.12202639E+03</rscale>
<asrwt>0</asrwt>
<pdfrwt beam="1">  1        1 0.71472521E-02 0.13073245E+03</pdfrwt>
<pdfrwt beam="2">  1       -1 0.51274792E-01 0.13073245E+03</pdfrwt>
<totfact> 0.38075582E+03</totfact>
</mgrwt>
</event>
<event>
 7    1  0.7800420E-006  0.1823671E+03  0.7546771E-02  0.1170995E+00
          1   -1    0    0  501    0  0.00000000000E+00  0.00000000000E+00  0.12550869230E+03  0.12550869230E+03  0.00000000000E+00 0. -1.
         -1   -1    0    0    0  501 -0.00000000000E+00 -0.00000000000E+00 -0.23995588410E+03  0.23995588410E+03  0.00000000000E+00 0.  1.
         23    2    1    2    0    0 -0.54145140504E+02  0.12124893833E+03 -0.87759065855E+02  0.20238434219E+03  0.12499906814E+03 0.  0.
          5    1    3    3  502    0 -0.22324206280E+02 -0.22059214019E+02 -0.32597705327E+02  0.45493730357E+02  0.47000000000E+01 0.  1.
         -5    1    3    3    0  502 -0.31820934224E+02  0.14330815235E+03 -0.55161360528E+02  0.15689061183E+03  0.47000000000E+01 0.  1.
        -11    1    1    2    0    0  0.66650058133E+02 -0.71765887204E+02 -0.46387958173E+02  0.10837165441E+03  0.00000000000E+00 0.  1.
         11    1    1    2    0    0 -0.12504917629E+02 -0.49483051127E+02  0.19699832228E+02  0.54708579799E+02  0.00000000000E+00 0. -1.
<mgrwt>
<rscale>  0 0.17674069E+03</rscale>
<asrwt>0</asrwt>
<pdfrwt beam="1">  1        1 0.19309030E-01 0.18236713E+03</pdfrwt>
<pdfrwt beam="2">  1       -1 0.36916289E-01 0.18236713E+03</pdfrwt>
<totfact> 0.18767312E+03</totfact>
</mgrwt>
</event>
<event>
 7    1  0.7800420E-006  0.1674613E+03  0.7546771E-02  0.1187568E+00
          1   -1    0    0  501    0  0.00000000000E+00  0.00000000000E+00  0.84211631331E+02  0.84211631331E+02  0.00000000000E+00 0. -1.
         -1   -1    0    0    0  501 -0.00000000000E+00 -0.00000000000E+00 -0.30241134904E+03  0.30241134904E+03  0.00000000000E+00 0.  1.
         23    2    1    2    0    0  0.12877086101E+02 -0.11070933542E+03 -0.72724378000E+02  0.18257083800E+03  0.12498359667E+03 0.  0.
          5    1    3    3  502    0  0.13483635916E+00  0.19325667484E+02  0.15183798184E+02  0.25022736299E+02  0.47000000000E+01 0. -1.
         -5    1    3    3    0  502  0.12742249742E+02 -0.13003500291E+03 -0.87908176184E+02  0.15754810170E+03  0.47000000000E+01 0. -1.
        -11    1    1    2    0    0  0.98214523319E+01  0.57926561218E+02 -0.13749266499E+02  0.60340614429E+02  0.00000000000E+00 0. -1.
         11    1    1    2    0    0 -0.22698538433E+02  0.52782774206E+02 -0.13172607321E+03  0.14371152794E+03  0.00000000000E+00 0.  1.
<mgrwt>
<rscale>  0 0.16100399E+03</rscale>
<asrwt>0</asrwt>
<pdfrwt beam="1">  1        1 0.12955635E-01 0.16746127E+03</pdfrwt>
<pdfrwt beam="2">  1       -1 0.46524823E-01 0.16746127E+03</pdfrwt>
<totfact> 0.20842576E+03</totfact>
</mgrwt>
</event>
<event>
 7    1  0.7800420E-006  0.1611355E+03  0.7546771E-02  0.1195227E+00
         -1   -1    0    0    0  501 -0.00000000000E+00  0.00000000000E+00  0.58866039800E+02  0.58866039800E+02  0.00000000000E+00 0.  1.
          1   -1    0    0  501    0  0.00000000000E+00 -0.00000000000E+00 -0.38235254373E+03  0.38235254373E+03  0.00000000000E+00 0. -1.
         23    2    1    2    0    0  0.94233047073E+02  0.38165351263E+02 -0.20760592370E+03  0.26280197956E+03  0.12501279819E+03 0.  0.
          5    1    3    3  502    0  0.20997576975E+00  0.15663549018E+02 -0.14848337514E+03  0.14938136949E+03  0.47000000000E+01 0. -1.
         -5    1    3    3    0  502  0.94023071303E+02  0.22501802245E+02 -0.59122548557E+02  0.11342061007E+03  0.47000000000E+01 0. -1.
        -11    1    1    2    0    0 -0.19220944918E+02 -0.45036710540E+02 -0.82693012420E+02  0.96103508380E+02  0.00000000000E+00 0. -1.
         11    1    1    2    0    0 -0.75012102155E+02  0.68713592773E+01 -0.33187567816E+02  0.82313095590E+02  0.00000000000E+00 0.  1.
<mgrwt>
<rscale>  0 0.15435050E+03</rscale>
<asrwt>0</asrwt>
<pdfrwt beam="2">  1        1 0.58823467E-01 0.16113554E+03</pdfrwt>
<pdfrwt beam="1">  1       -1 0.90563140E-02 0.16113554E+03</pdfrwt>
<totfact> 0.44387759E+03</totfact>
</mgrwt>
</event>
<event>
 7    1  0.7800420E-006  0.1252321E+03  0.7546771E-02  0.1250419E+00
         -2   -1    0    0    0  501 -0.00000000000E+00  0.00000000000E+00  0.30858155188E+03  0.30858155188E+03  0.00000000000E+00 0.  1.
          2   -1    0    0  501    0  0.00000000000E+00 -0.00000000000E+00 -0.40677744782E+02  0.40677744782E+02  0.00000000000E+00 0. -1.
         23    2    1    2    0    0  0.32151045440E+01 -0.68583614235E+01  0.10876614372E+03  0.16587089813E+03  0.12500282720E+03 0.  0.
          5    1    3    3  502    0  0.15281288923E+02  0.51814917390E+02  0.85896429922E+02  0.10158046135E+03  0.47000000000E+01 0.  1.
         -5    1    3    3    0  502 -0.12066184379E+02 -0.58673278814E+02  0.22869713796E+02  0.64290436780E+02  0.47000000000E+01 0.  1.
        -11    1    1    2    0    0  0.25828863459E+02  0.97838451631E+00  0.48722210347E+01  0.26302584695E+02  0.00000000000E+00 0. -1.
         11    1    1    2    0    0 -0.29043968003E+02  0.58799769072E+01  0.15426544235E+03  0.15708581384E+03  0.00000000000E+00 0.  1.
<mgrwt>
<rscale>  0 0.11566823E+03</rscale>
<asrwt>0</asrwt>
<pdfrwt beam="2">  1        2 0.62581148E-02 0.12523211E+03</pdfrwt>
<pdfrwt beam="1">  1       -2 0.47474083E-01 0.12523211E+03</pdfrwt>
<totfact> 0.47026960E+03</totfact>
</mgrwt>
</event>
<event>
 7    1  0.7800420E-006  0.1645580E+03  0.7546771E-02  0.1188178E+00
          1   -1    0    0  501    0  0.00000000000E+00  0.00000000000E+00  0.82060026920E+02  0.82060026920E+02  0.00000000000E+00 0. -1.
         -1   -1    0    0    0  501 -0.00000000000E+00 -0.00000000000E+00 -0.40456595710E+03  0.40456595710E+03  0.00000000000E+00 0.  1.
         23    2    1    2    0    0 -0.10668025857E+03  0.48067484634E+02 -0.43142496768E+02  0.17011939238E+03  0.11570726853E+03 0.  0.
          5    1    3    3  502    0 -0.87001085765E+02  0.55245638309E+02  0.18529638324E+02  0.10481749364E+03  0.47000000000E+01 0. -1.
         -5    1    3    3    0  502 -0.19679172800E+02 -0.71781536749E+01 -0.61672135092E+02  0.65301898740E+02  0.47000000000E+01 0.  1.
        -11    1    1    2    0    0  0.81043449788E+02 -0.58049545624E+02 -0.12585835026E+03  0.16055564403E+03  0.00000000000E+00 0.  1.
         11    1    1    2    0    0  0.25636808777E+02  0.99820609904E+01 -0.15350508315E+03  0.15595094761E+03  0.00000000000E+00 0. -1.
<mgrwt>
<rscale>  0 0.16046046E+03</rscale>
<asrwt>0</asrwt>
<pdfrwt beam="1">  1        1 0.12624620E-01 0.16455799E+03</pdfrwt>
<pdfrwt beam="2">  1       -1 0.62240915E-01 0.16455799E+03</pdfrwt>
<totfact> 0.12528162E+03</totfact>
</mgrwt>
</event>
<event>
 7    1  0.7800420E-006  0.1140905E+03  0.7546771E-02  0.1264781E+00
         -1   -1    0    0    0  501 -0.00000000000E+00  0.00000000000E+00  0.10085265934E+04  0.10085265934E+04  0.00000000000E+00 0.  1.
          1   -1    0    0  501    0  0.00000000000E+00 -0.00000000000E+00 -0.10514416651E+02  0.10514416651E+02  0.00000000000E+00 0. -1.
         23    2    1    2    0    0 -0.41592844149E+01 -0.19192477133E+02  0.60677154946E+03  0.61740452395E+03  0.11238764228E+03 0.  0.
          5    1    3    3  502    0  0.17855446876E+02  0.23222007642E+02  0.47020346092E+02  0.55597496065E+02  0.47000000000E+01 0. -1.
         -5    1    3    3    0  502 -0.22014731291E+02 -0.42414484775E+02  0.55975120337E+03  0.56180702789E+03  0.47000000000E+01 0.  1.
        -11    1    1    2    0    0  0.39757873170E+02 -0.12725524447E+02  0.14982894458E+03  0.15553565535E+03  0.00000000000E+00 0.  1.
         11    1    1    2    0    0 -0.35598588755E+02  0.31918001580E+02  0.24141168267E+03  0.24610083071E+03  0.00000000000E+00 0. -1.
<mgrwt>
<rscale>  0 0.10775695E+03</rscale>
<asrwt>0</asrwt>
<pdfrwt beam="2">  1        1 0.16176034E-02 0.11409046E+03</pdfrwt>
<pdfrwt beam="1">  1       -1 0.15515786E+00 0.11409046E+03</pdfrwt>
<totfact> 0.26963042E+03</totfact>
</mgrwt>
</event>
<event>
 7    1  0.7800420E-006  0.1337573E+03  0.7546771E-02  0.1234494E+00
         -1   -1    0    0    0  501 -0.00000000000E+00  0.00000000000E+00  0.26141490635E+03  0.26141490635E+03  0.00000000000E+00 0.  1.
          1   -1    0    0  501    0  0.00000000000E+00 -0.00000000000E+00 -0.55926320319E+02  0.55926320319E+02  0.00000000000E+00 0. -1.
         23    2    1    2    0    0 -0.47034973105E+02  0.71755752636E+01  0.84124371661E+02  0.15801241544E+03  0.12500894348E+03 0.  0.
          5    1    3    3  502    0 -0.71056798036E+02  0.34809354312E+02  0.16493210883E+02  0.80962186852E+02  0.47000000000E+01 0. -1.
         -5    1    3    3    0  502  0.24021824931E+02 -0.27633779048E+02  0.67631160779E+02  0.77050228590E+02  0.47000000000E+01 0. -1.
        -11    1    1    2    0    0 -0.31164605540E+01  0.33902382721E+02  0.65210379204E+02  0.73562744895E+02  0.00000000000E+00 0. -1.
         11    1    1    2    0    0  0.50151433659E+02 -0.41077957984E+02  0.56153835164E+02  0.85766066331E+02  0.00000000000E+00 0.  1.
<mgrwt>
<rscale>  0 0.12536878E+03</rscale>
<asrwt>0</asrwt>
<pdfrwt beam="2">  1        1 0.86040494E-02 0.13375729E+03</pdfrwt>
<pdfrwt beam="1">  1       -1 0.40217677E-01 0.13375729E+03</pdfrwt>
<totfact> 0.45945634E+03</totfact>
</mgrwt>
</event>
<event>
 7    1  0.7800420E-006  0.1299707E+03  0.7546771E-02  0.1240720E+00
          2   -1    0    0  501    0  0.00000000000E+00  0.00000000000E+00  0.74005100416E+03  0.74005100416E+03  0.00000000000E+00 0.  1.
         -2   -1    0    0    0  501 -0.00000000000E+00 -0.00000000000E+00 -0.18981569663E+02  0.18981569663E+02  0.00000000000E+00 0. -1.
         23    2    1    2    0    0  0.33115946260E+02  0.13117693409E+02  0.50264499156E+03  0.51917662340E+03  0.12499455577E+03 0.  0.
          5    1    3    3  502    0  0.41296695505E+02 -0.36589908081E+02  0.10865999311E+03  0.12195623205E+03  0.47000000000E+01 0. -1.
         -5    1    3    3    0  502 -0.81807492451E+01  0.49707601490E+02  0.39398499844E+03  0.39722039135E+03  0.47000000000E+01 0. -1.
        -11    1    1    2    0    0  0.69829450631E+01 -0.43572604240E+02  0.13880146628E+03  0.14564745245E+03  0.00000000000E+00 0.  1.
         11    1    1    2    0    0 -0.40098891323E+02  0.30454910832E+02  0.79622976653E+02  0.94208497973E+02  0.00000000000E+00 0. -1.
<mgrwt>
<rscale>  0 0.12145267E+03</rscale>
<asrwt>0</asrwt>
<pdfrwt beam="1">  1        2 0.11385398E+00 0.12997068E+03</pdfrwt>
<pdfrwt beam="2">  1       -2 0.29202421E-02 0.12997068E+03</pdfrwt>
<totfact> 0.16354404E+04</totfact>
</mgrwt>
</event>
<event>
 7    1  0.1759198E-005  0.3270585E+03  0.7546771E-02  0.1073820E+00
         -1   -1    0    0    0  501 -0.00000000000E+00  0.00000000000E+00  0.13853007572E+03  0.13853007572E+03  0.00000000000E+00 0.  1.
          1   -1    0    0  501    0  0.00000000000E+00 -0.00000000000E+00 -0.89029666505E+03  0.89029666505E+03  0.00000000000E+00 0. -1.
         23    2    1    2    0    0 -0.17410756854E+03  0.24703987016E+03 -0.59026569067E+03  0.67481910717E+03  0.12500039575E+03 0.  0.
          5    1    3    3  502    0  0.14485185691E+01  0.80717691696E+01  0.43101145955E+01  0.10388395035E+02  0.47000000000E+01 0. -1.
         -5    1    3    3    0  502 -0.17555608711E+03  0.23896810099E+03 -0.59457580527E+03  0.66443071213E+03  0.47000000000E+01 0. -1.
        -11    1    1    2    0    0  0.82547410057E+02 -0.57377003478E+02 -0.26914454927E+02  0.10407008849E+03  0.00000000000E+00 0. -1.
         11    1    1    2    0    0  0.91560158484E+02 -0.18966286669E+03 -0.13458644372E+03  0.24993754511E+03  0.00000000000E+00 0.  1.
<mgrwt>
<rscale>  0 0.32400691E+03</rscale>
<asrwt>0</asrwt>
<pdfrwt beam="2">  1        1 0.13696872E+00 0.32705847E+03</pdfrwt>
<pdfrwt beam="1">  1       -1 0.21312320E-01 0.32705847E+03</pdfrwt>
<totfact> 0.35342899E+02</totfact>
</mgrwt>
</event>
<event>
 6    1  0.7800420E-006  0.1496579E+03  0.7546771E-02  0.1211750E+00
         -2   -1    0    0    0  501 -0.00000000000E+00  0.00000000000E+00  0.29792357251E+03  0.29792357251E+03  0.00000000000E+00 0.  1.
          2   -1    0    0  501    0  0.00000000000E+00 -0.00000000000E+00 -0.19857691942E+03  0.19857691942E+03  0.00000000000E+00 0. -1.
          5    1    1    2  502    0  0.67379786306E+02  0.41987300178E+02 -0.13026244808E+03  0.15262163791E+03  0.47000000000E+01 0. -1.
         -5    1    1    2    0  502  0.72388089976E+01 -0.57210505548E+02 -0.25006162124E+02  0.63030472352E+02  0.47000000000E+01 0.  1.
        -11    1    1    2    0    0 -0.76929643730E+02  0.41807192459E+02  0.22241706696E+03  0.23903004644E+03  0.00000000000E+00 0.  1.
         11    1    1    2    0    0  0.23110484267E+01 -0.26583987089E+02  0.32198196327E+02  0.41818335226E+02  0.00000000000E+00 0. -1.
<mgrwt>
<rscale>  0 0.14117970E+03</rscale>
<asrwt>0</asrwt>
<pdfrwt beam="2">  1        2 0.30550295E-01 0.14965791E+03</pdfrwt>
<pdfrwt beam="1">  1       -2 0.45834396E-01 0.14965791E+03</pdfrwt>
<totfact> 0.77941919E+02</totfact>
</mgrwt>
</event>
<event>
 7    1  0.7800420E-006  0.2061537E+03  0.7546771E-02  0.1148496E+00
          2   -1    0    0  501    0  0.00000000000E+00  0.00000000000E+00  0.36093335892E+03  0.36093335892E+03  0.00000000000E+00 0. -1.
         -2   -1    0    0    0  501 -0.00000000000E+00 -0.00000000000E+00 -0.16341653018E+03  0.16341653018E+03  0.00000000000E+00 0.  1.
         23    2    1    2    0    0 -0.16387875196E+03  0.43754072700E+01  0.25478262485E+03  0.32774003523E+03  0.12499582086E+03 0.  0.
          5    1    3    3  502    0 -0.93617143643E+02 -0.10891411183E+02  0.23466774763E+03  0.25293049282E+03  0.47000000000E+01 0.  1.
         -5    1    3    3    0  502 -0.70261608317E+02  0.15266818453E+02  0.20114877219E+02  0.74809542402E+02  0.47000000000E+01 0.  1.
        -11    1    1    2    0    0  0.87549118791E+02 -0.82316299417E-01 -0.78153280823E+02  0.11735753184E+03  0.00000000000E+00 0.  1.
         11    1    1    2    0    0  0.76329633169E+02 -0.42930909706E+01  0.20887484716E+02  0.79252322032E+02  0.00000000000E+00 0. -1.
<mgrwt>
<rscale>  0 0.20148004E+03</rscale>
<asrwt>0</asrwt>
<pdfrwt beam="1">  1        2 0.55528209E-01 0.20615369E+03</pdfrwt>
<pdfrwt beam="2">  1       -2 0.25141005E-01 0.20615369E+03</pdfrwt>
<totfact> 0.12525552E+03</totfact>
</mgrwt>
</event>
<event>
 7    1  0.7800420E-006  0.2511556E+03  0.7546771E-02  0.1114904E+00
         -3   -1    0    0    0  501 -0.00000000000E+00  0.00000000000E+00  0.22289622234E+03  0.22289622234E+03  0.00000000000E+00 0.  1.
          3   -1    0    0  501    0  0.00000000000E+00 -0.00000000000E+00 -0.27435805873E+03  0.27435805873E+03  0.00000000000E+00 0. -1.
         23    2    1    2    0    0  0.12703294802E+03 -0.17695748201E+03 -0.67025150139E+02  0.25994522390E+03  0.12501131292E+03 0.  0.
          5    1    3    3  502    0 -0.14206970664E+02 -0.71735500605E+01  0.16856195068E+02  0.23654157100E+02  0.47000000000E+01 0.  1.
         -5    1    3    3    0  502  0.14123991868E+03 -0.16978393195E+03 -0.83881345208E+02  0.23629106680E+03  0.47000000000E+01 0.  1.
        -11    1    1    2    0    0 -0.12180460722E+03  0.98716186157E+02  0.23326801281E+02  0.15850989687E+03  0.00000000000E+00 0.  1.
         11    1    1    2    0    0 -0.52283408007E+01  0.78241295850E+02 -0.77634875351E+01  0.78799160291E+02  0.00000000000E+00 0. -1.
<mgrwt>
<rscale>  0 0.24748664E+03</rscale>
<asrwt>0</asrwt>
<pdfrwt beam="2">  1        3 0.42208932E-01 0.25115563E+03</pdfrwt>
<pdfrwt beam="1">  1       -3 0.34291726E-01 0.25115563E+03</pdfrwt>
<totfact> 0.11632248E+02</totfact>
</mgrwt>
</event>
<event>
 7    1  0.7800420E-006  0.1691819E+03  0.7546771E-02  0.1185195E+00
         -4   -1    0    0    0  501 -0.00000000000E+00  0.00000000000E+00  0.12582075420E+03  0.12582075420E+03  0.00000000000E+00 0.  1.
          4   -1    0    0  501    0  0.00000000000E+00 -0.00000000000E+00 -0.22783777474E+03  0.22783777474E+03  0.00000000000E+00 0. -1.
         23    2    1    2    0    0  0.84086083601E+02  0.76989123405E+02 -0.11834837161E+03  0.20646757426E+03  0.12499891032E+03 0.  0.
          5    1    3    3  502    0  0.52712184340E+01  0.45636537522E+02  0.14828925096E+02  0.48502230054E+02  0.47000000000E+01 0.  1.
         -5    1    3    3    0  502  0.78814865167E+02  0.31352585883E+02 -0.13317729670E+03  0.15796534421E+03  0.47000000000E+01 0.  1.
        -11    1    1    2    0    0 -0.94727772943E+02 -0.34179291299E+02  0.17155181610E+01  0.10071999763E+03  0.00000000000E+00 0. -1.
         11    1    1    2    0    0  0.10641689342E+02 -0.42809832106E+02  0.14615832903E+02  0.46470957043E+02  0.00000000000E+00 0.  1.
<mgrwt>
<rscale>  0 0.16314106E+03</rscale>
<asrwt>0</asrwt>
<pdfrwt beam="2">  1        4 0.35051965E-01 0.16918192E+03</pdfrwt>
<pdfrwt beam="1">  1       -4 0.19357039E-01 0.16918192E+03</pdfrwt>
<totfact> 0.32643833E+02</totfact>
</mgrwt>
</event>
<event>
 7    1  0.7800420E-006  0.1470796E+03  0.7546771E-02  0.1213842E+00
         -1   -1    0    0    0  501 -0.00000000000E+00  0.00000000000E+00  0.43793229908E+02  0.43793229908E+02  0.00000000000E+00 0.  1.
          1   -1    0    0  501    0  0.00000000000E+00 -0.00000000000E+00 -0.45135272637E+03  0.45135272637E+03  0.00000000000E+00 0. -1.
         23    2    1    2    0    0  0.47064470448E+02 -0.61593637442E+02 -0.30131321533E+03  0.33529401417E+03  0.12499432648E+03 0.  0.
          5    1    3    3  502    0  0.77887710176E+02 -0.42070974921E+02 -0.27787933494E+03  0.29167700820E+03  0.47000000000E+01 0.  1.
         -5    1    3    3    0  502 -0.30823239728E+02 -0.19522662521E+02 -0.23433880392E+02  0.43617005967E+02  0.47000000000E+01 0.  1.
        -11    1    1    2    0    0 -0.30772194432E+02  0.60752497911E+02 -0.12035305647E+03  0.13828467794E+03  0.00000000000E+00 0. -1.
         11    1    1    2    0    0 -0.16292276016E+02  0.84113953146E+00  0.14106775334E+02  0.21567264171E+02  0.00000000000E+00 0.  1.
<mgrwt>
<rscale>  0 0.13961948E+03</rscale>
<asrwt>0</asrwt>
<pdfrwt beam="2">  1        1 0.69438883E-01 0.14707965E+03</pdfrwt>
<pdfrwt beam="1">  1       -1 0.67374198E-02 0.14707965E+03</pdfrwt>
<totfact> 0.55941457E+03</totfact>
</mgrwt>
</event>
<event>
 7    1  0.7800420E-006  0.1186840E+03  0.7546771E-02  0.1252390E+00
          2   -1    0    0  501    0  0.00000000000E+00  0.00000000000E+00  0.32881738489E+03  0.32881738489E+03  0.00000000000E+00 0. -1.
         -2   -1    0    0    0  501 -0.00000000000E+00 -0.00000000000E+00 -0.77730864166E+02  0.77730864166E+02  0.00000000000E+00 0.  1.
         23    2    1    2    0    0  0.28959833770E+02  0.26415167823E+02  0.27616573403E+03  0.30058841350E+03  0.11202432155E+03 0.  0.
          5    1    3    3  502    0  0.33360671362E+02  0.57069749232E+02  0.25324941916E+03  0.26177709788E+03  0.47000000000E+01 0. -1.
         -5    1    3    3    0  502 -0.44008375922E+01 -0.30654581409E+02  0.22916314864E+02  0.38811315616E+02  0.47000000000E+01 0.  1.
        -11    1    1    2    0    0 -0.53537036027E+02 -0.30047569715E+02 -0.43320509384E+02  0.75138120855E+02  0.00000000000E+00 0.  1.
         11    1    1    2    0    0  0.24577202258E+02  0.36324018920E+01  0.18241296083E+02  0.30821714701E+02  0.00000000000E+00 0. -1.
<mgrwt>
<rscale>  0 0.11453802E+03</rscale>
<asrwt>0</asrwt>
<pdfrwt beam="1">  1        2 0.50587289E-01 0.11868396E+03</pdfrwt>
<pdfrwt beam="2">  1       -2 0.11958595E-01 0.11868396E+03</pdfrwt>
<totfact> 0.46897124E+03</totfact>
</mgrwt>
</event>
<event>
 7    1  0.7800420E-006  0.1341967E+03  0.7546771E-02  0.1233990E+00
         -1   -1    0    0    0  501 -0.00000000000E+00  0.00000000000E+00  0.16659268989E+03  0.16659268989E+03  0.00000000000E+00 0.  1.
          1   -1    0    0  501    0  0.00000000000E+00 -0.00000000000E+00 -0.85580382590E+02  0.85580382590E+02  0.00000000000E+00 0. -1.
         23    2    1    2    0    0  0.27664791559E+02 -0.40246292874E+02  0.32557891172E+02  0.13808976490E+03  0.12499464833E+03 0.  0.
          5    1    3    3  502    0  0.30384145425E+02 -0.39751305996E+02  0.77746092978E+02  0.92573795401E+02  0.47000000000E+01 0.  1.
         -5    1    3    3    0  502 -0.27193538659E+01 -0.49498687871E+00 -0.45188201805E+02  0.45515969504E+02  0.47000000000E+01 0.  1.
        -11    1    1    2    0    0  0.14750893302E+02 -0.20739301440E+02  0.10699664096E+00  0.25450322704E+02  0.00000000000E+00 0. -1.
         11    1    1    2    0    0 -0.42415684861E+02  0.60985594314E+02  0.48347419484E+02  0.88632984870E+02  0.00000000000E+00 0.  1.
<mgrwt>
<rscale>  0 0.12569345E+03</rscale>
<asrwt>0</asrwt>
<pdfrwt beam="2">  1        1 0.13166213E-01 0.13419675E+03</pdfrwt>
<pdfrwt beam="1">  1       -1 0.25629644E-01 0.13419675E+03</pdfrwt>
<totfact> 0.56272659E+03</totfact>
</mgrwt>
</event>
<event>
 7    1  0.7800420E-006  0.1347055E+03  0.7546771E-02  0.1233145E+00
         -1   -1    0    0    0  501 -0.00000000000E+00  0.00000000000E+00  0.14441574514E+03  0.14441574514E+03  0.00000000000E+00 0.  1.
          1   -1    0    0  501    0  0.00000000000E+00 -0.00000000000E+00 -0.99520647261E+02  0.99520647261E+02  0.00000000000E+00 0. -1.
         23    2    1    2    0    0 -0.54538661021E+00 -0.50210273467E+02  0.37217261285E+02  0.13975229358E+03  0.12499684002E+03 0.  0.
          5    1    3    3  502    0 -0.14280071403E+02 -0.28831027378E+01 -0.42914357108E+02  0.45562756355E+02  0.47000000000E+01 0.  1.
         -5    1    3    3    0  502  0.13734684793E+02 -0.47327170729E+02  0.80131618393E+02  0.94189537220E+02  0.47000000000E+01 0.  1.
        -11    1    1    2    0    0 -0.26112760697E+02 -0.61664810359E+01 -0.22395791751E+02  0.34949581510E+02  0.00000000000E+00 0. -1.
         11    1    1    2    0    0  0.26658147307E+02  0.56376754503E+02  0.30073628347E+02  0.69234517316E+02  0.00000000000E+00 0.  1.
<mgrwt>
<rscale>  0 0.12623907E+03</rscale>
<asrwt>0</asrwt>
<pdfrwt beam="2">  1        1 0.15310869E-01 0.13470553E+03</pdfrwt>
<pdfrwt beam="1">  1       -1 0.22217807E-01 0.13470553E+03</pdfrwt>
<totfact> 0.58437502E+03</totfact>
</mgrwt>
</event>
<event>
 7    1  0.7800420E-006  0.2435124E+03  0.7546771E-02  0.1120031E+00
         -1   -1    0    0    0  501 -0.00000000000E+00  0.00000000000E+00  0.27497912146E+02  0.27497912146E+02  0.00000000000E+00 0.  1.
          1   -1    0    0  501    0  0.00000000000E+00 -0.00000000000E+00 -0.22901188044E+04  0.22901188044E+04  0.00000000000E+00 0. -1.
         23    2    1    2    0    0  0.20535970045E+03  0.38727315677E+02 -0.15576531313E+04  0.15765727237E+04  0.12500345631E+03 0.  0.
          5    1    3    3  502    0  0.10939172232E+03 -0.42435498862E+01 -0.11621290338E+04  0.11672834008E+04  0.47000000000E+01 0. -1.
         -5    1    3    3    0  502  0.95967978135E+02  0.42970865563E+02 -0.39552409753E+03  0.40928932290E+03  0.47000000000E+01 0. -1.
        -11    1    1    2    0    0 -0.16090049484E+03  0.91650282916E+01 -0.54232177720E+03  0.56576132513E+03  0.00000000000E+00 0. -1.
         11    1    1    2    0    0 -0.44459205619E+02 -0.47892343969E+02 -0.16264598375E+03  0.17528266772E+03  0.00000000000E+00 0.  1.
<mgrwt>
<rscale>  0 0.23964308E+03</rscale>
<asrwt>0</asrwt>
<pdfrwt beam="2">  1        1 0.35232597E+00 0.24351237E+03</pdfrwt>
<pdfrwt beam="1">  1       -1 0.42304480E-02 0.24351237E+03</pdfrwt>
<totfact> 0.49559277E+02</totfact>
</mgrwt>
</event>
<event>
 7    1  0.7800420E-006  0.2227452E+03  0.7546771E-02  0.1135082E+00
         -1   -1    0    0    0  501 -0.00000000000E+00  0.00000000000E+00  0.41298873459E+03  0.41298873459E+03  0.00000000000E+00 0.  1.
          1   -1    0    0  501    0  0.00000000000E+00 -0.00000000000E+00 -0.13480257295E+03  0.13480257295E+03  0.00000000000E+00 0. -1.
         23    2    1    2    0    0 -0.17900777923E+03 -0.44123508489E+02  0.29089309658E+02  0.22463664074E+03  0.12499905360E+03 0.  0.
          5    1    3    3  502    0 -0.97128251090E+02 -0.67282946897E+01 -0.45564690524E+02  0.10759831844E+03  0.47000000000E+01 0.  1.
         -5    1    3    3    0  502 -0.81879528138E+02 -0.37395213799E+02  0.74654000182E+02  0.11703832230E+03  0.47000000000E+01 0.  1.
        -11    1    1    2    0    0  0.41774961746E+02  0.29027445938E+02  0.18003592740E+02  0.53961740132E+02  0.00000000000E+00 0. -1.
         11    1    1    2    0    0  0.13723281748E+03  0.15096062551E+02  0.23109325924E+03  0.26919292666E+03  0.00000000000E+00 0.  1.
<mgrwt>
<rscale>  0 0.21839919E+03</rscale>
<asrwt>0</asrwt>
<pdfrwt beam="2">  1        1 0.20738857E-01 0.22274522E+03</pdfrwt>
<pdfrwt beam="1">  1       -1 0.63536728E-01 0.22274522E+03</pdfrwt>
<totfact> 0.63404732E+02</totfact>
</mgrwt>
</event>
<event>
 7    1  0.7800420E-006  0.1679404E+03  0.7546771E-02  0.1187245E+00
         -2   -1    0    0    0  501 -0.00000000000E+00  0.00000000000E+00  0.11212387924E+03  0.11212387924E+03  0.00000000000E+00 0.  1.
          2   -1    0    0  501    0  0.00000000000E+00 -0.00000000000E+00 -0.23855276991E+03  0.23855276991E+03  0.00000000000E+00 0. -1.
         23    2    1    2    0    0  0.29907242488E+02  0.10808759675E+03 -0.12225891766E+03  0.20772875209E+03  0.12500647892E+03 0.  0.
          5    1    3    3  502    0  0.18479913805E+02 -0.12090623171E+02  0.13254721909E+02  0.26181444494E+02  0.47000000000E+01 0.  1.
         -5    1    3    3    0  502  0.11427328683E+02  0.12017821992E+03 -0.13551363957E+03  0.18154730759E+03  0.47000000000E+01 0.  1.
        -11    1    1    2    0    0  0.12577180604E+02 -0.59911099184E+01 -0.26678920297E+02  0.30097236720E+02  0.00000000000E+00 0. -1.
         11    1    1    2    0    0 -0.42484423092E+02 -0.10209648684E+03  0.22508947289E+02  0.11285066033E+03  0.00000000000E+00 0.  1.
<mgrwt>
<rscale>  0 0.16129269E+03</rscale>
<asrwt>0</asrwt>
<pdfrwt beam="2">  1        2 0.36700426E-01 0.16794044E+03</pdfrwt>
<pdfrwt beam="1">  1       -2 0.17249828E-01 0.16794044E+03</pdfrwt>
<totfact> 0.37000670E+03</totfact>
</mgrwt>
</event>
<event>
 7    1  0.7800420E-006  0.2178719E+03  0.7546771E-02  0.1137906E+00
          2   -1    0    0  501    0  0.00000000000E+00  0.00000000000E+00  0.11694777400E+04  0.11694777400E+04  0.00000000000E+00 0. -1.
         -2   -1    0    0    0  501 -0.00000000000E+00 -0.00000000000E+00 -0.54842077908E+02  0.54842077908E+02  0.00000000000E+00 0.  1.
         23    2    1    2    0    0  0.15391942842E+03  0.90255673843E+02  0.90485626695E+03  0.93071641695E+03  0.12502362913E+03 0.  0.
          5    1    3    3  502    0  0.58684452954E+02 -0.26207741642E+02  0.20641141761E+03  0.21623707837E+03  0.47000000000E+01 0. -1.
         -5    1    3    3    0  502  0.95234975470E+02  0.11646341549E+03  0.69844484934E+03  0.71447933858E+03  0.47000000000E+01 0. -1.
        -11    1    1    2    0    0 -0.14941195994E+03 -0.42555098164E+02  0.14112852629E+03  0.20988599545E+03  0.00000000000E+00 0. -1.
         11    1    1    2    0    0 -0.45074684888E+01 -0.47700575679E+02  0.68650868898E+02  0.83717405554E+02  0.00000000000E+00 0.  1.
<mgrwt>
<rscale>  0 0.21468877E+03</rscale>
<asrwt>0</asrwt>
<pdfrwt beam="1">  1        2 0.17991963E+00 0.21787195E+03</pdfrwt>
<pdfrwt beam="2">  1       -2 0.84372436E-02 0.21787195E+03</pdfrwt>
<totfact> 0.18088396E+03</totfact>
</mgrwt>
</event>
<event>
 7    1  0.7800420E-006  0.1250849E+03  0.7546771E-02  0.1250327E+00
          1   -1    0    0  501    0  0.00000000000E+00  0.00000000000E+00  0.10886822380E+03  0.10886822380E+03  0.00000000000E+00 0. -1.
         -1   -1    0    0    0  501 -0.00000000000E+00 -0.00000000000E+00 -0.15802148306E+03  0.15802148306E+03  0.00000000000E+00 0.  1.
         23    2    1    2    0    0  0.33197277103E+01  0.61612268739E+01  0.47412856615E+02  0.13376925074E+03  0.12488895933E+03 0.  0.
          5    1    3    3  502    0 -0.45417844661E+02 -0.28021297515E+02 -0.56689026871E+01  0.53872072410E+02  0.47000000000E+01 0.  1.
         -5    1    3    3    0  502  0.48737572371E+02  0.34182524389E+02  0.53081759302E+02  0.79897178328E+02  0.47000000000E+01 0.  1.
        -11    1    1    2    0    0 -0.17870537509E+02 -0.31077153005E+02 -0.97878568014E+02  0.10423703577E+03  0.00000000000E+00 0. -1.
         11    1    1    2    0    0  0.14550809798E+02  0.24915926131E+02  0.13124521325E+01  0.28883420354E+02  0.00000000000E+00 0.  1.
<mgrwt>
<rscale>  0 0.11572122E+03</rscale>
<asrwt>0</asrwt>
<pdfrwt beam="1">  1        1 0.16748958E-01 0.12508491E+03</pdfrwt>
<pdfrwt beam="2">  1       -1 0.24310997E-01 0.12508491E+03</pdfrwt>
<totfact> 0.44742647E+03</totfact>
</mgrwt>
</event>
<event>
 7    1  0.1306131E-005  0.1600255E+03  0.7546771E-02  0.1196260E+00
         -1   -1    0    0    0  501 -0.00000000000E+00  0.00000000000E+00  0.11245360177E+03  0.11245360177E+03  0.00000000000E+00 0.  1.
          1   -1    0    0  501    0  0.00000000000E+00 -0.00000000000E+00 -0.20048305202E+03  0.20048305202E+03  0.00000000000E+00 0. -1.
         23    2    1    2    0    0 -0.85777884286E+02 -0.51232419288E+02 -0.75526003871E+02  0.17695296252E+03  0.12500226984E+03 0.  0.
          5    1    3    3  502    0 -0.13030946670E+02 -0.72150519612E+02 -0.54106863630E+01  0.73667282957E+02  0.47000000000E+01 0.  1.
         -5    1    3    3    0  502 -0.72746937616E+02  0.20918100323E+02 -0.70115317508E+02  0.10328567956E+03  0.47000000000E+01 0.  1.
        -11    1    1    2    0    0  0.38529493116E+02  0.73435691562E+02 -0.11867766771E+02  0.83774498047E+02  0.00000000000E+00 0.  1.
         11    1    1    2    0    0  0.47248391170E+02 -0.22203272274E+02 -0.63567960747E+00  0.52209193217E+02  0.00000000000E+00 0. -1.
<mgrwt>
<rscale>  0 0.15348035E+03</rscale>
<asrwt>0</asrwt>
<pdfrwt beam="2">  1        1 0.30843546E-01 0.16002554E+03</pdfrwt>
<pdfrwt beam="1">  1       -1 0.17300554E-01 0.16002554E+03</pdfrwt>
<totfact> 0.36277708E+03</totfact>
</mgrwt>
</event>
<event>
 7    1  0.7800420E-006  0.1529314E+03  0.7546771E-02  0.1205978E+00
          2   -1    0    0  501    0  0.00000000000E+00  0.00000000000E+00  0.10175089529E+04  0.10175089529E+04  0.00000000000E+00 0. -1.
         -2   -1    0    0    0  501 -0.00000000000E+00 -0.00000000000E+00 -0.19984987981E+02  0.19984987981E+02  0.00000000000E+00 0.  1.
         23    2    1    2    0    0  0.87346392322E+02 -0.11548227639E+02  0.65575822694E+03  0.67335493385E+03  0.12500104370E+03 0.  0.
          5    1    3    3  502    0  0.25793684400E+02  0.55750673944E+02  0.26404273745E+03  0.27113485390E+03  0.47000000000E+01 0. -1.
         -5    1    3    3    0  502  0.61552707922E+02 -0.67298901583E+02  0.39171548949E+03  0.40222007995E+03  0.47000000000E+01 0. -1.
        -11    1    1    2    0    0 -0.59626593319E+02  0.48399834712E+02  0.17488367263E+03  0.19100307218E+03  0.00000000000E+00 0.  1.
         11    1    1    2    0    0 -0.27719799004E+02 -0.36851607073E+02  0.16688206537E+03  0.17313593486E+03  0.00000000000E+00 0. -1.
<mgrwt>
<rscale>  0 0.14560690E+03</rscale>
<asrwt>0</asrwt>
<pdfrwt beam="1">  1        2 0.15653980E+00 0.15293141E+03</pdfrwt>
<pdfrwt beam="2">  1       -2 0.30746143E-02 0.15293141E+03</pdfrwt>
<totfact> 0.10152525E+04</totfact>
</mgrwt>
</event>
<event>
 7    1  0.7800420E-006  0.1410319E+03  0.7546771E-02  0.1222964E+00
          2   -1    0    0  501    0  0.00000000000E+00  0.00000000000E+00  0.98026960871E+02  0.98026960871E+02  0.00000000000E+00 0. -1.
         -2   -1    0    0    0  501 -0.00000000000E+00 -0.00000000000E+00 -0.20683754960E+03  0.20683754960E+03  0.00000000000E+00 0.  1.
         23    2    1    2    0    0 -0.47871260330E+02  0.44423436500E+02  0.10424373300E+02  0.14141662631E+03  0.12499958144E+03 0.  0.
          5    1    3    3  502    0 -0.31937247018E+02  0.76570557575E+02  0.42254744140E+02  0.93223341695E+02  0.47000000000E+01 0.  1.
         -5    1    3    3    0  502 -0.15934013312E+02 -0.32147121075E+02 -0.31830370840E+02  0.48193284610E+02  0.47000000000E+01 0.  1.
        -11    1    1    2    0    0 -0.18838412591E+02 -0.19231869710E+02 -0.74633086790E+02  0.79340079690E+02  0.00000000000E+00 0.  1.
         11    1    1    2    0    0  0.66709672921E+02 -0.25191566790E+02 -0.44601875237E+02  0.84107804473E+02  0.00000000000E+00 0. -1.
<mgrwt>
<rscale>  0 0.13307427E+03</rscale>
<asrwt>0</asrwt>
<pdfrwt beam="1">  1        2 0.15081071E-01 0.14103189E+03</pdfrwt>
<pdfrwt beam="2">  1       -2 0.31821161E-01 0.14103189E+03</pdfrwt>
<totfact> 0.34170017E+03</totfact>
</mgrwt>
</event>
<event>
 7    1  0.7800420E-006  0.1286443E+03  0.7546771E-02  0.1244368E+00
         -1   -1    0    0    0  501 -0.00000000000E+00  0.00000000000E+00  0.69054243715E+02  0.69054243715E+02  0.00000000000E+00 0.  1.
          1   -1    0    0  501    0  0.00000000000E+00 -0.00000000000E+00 -0.24984469776E+03  0.24984469776E+03  0.00000000000E+00 0. -1.
         23    2    1    2    0    0 -0.19306736804E+02  0.23489021180E+02 -0.18329461583E+03  0.22393362922E+03  0.12499947960E+03 0.  0.
          5    1    3    3  502    0 -0.32868541490E+01 -0.31558768213E+01 -0.19136041751E+03  0.19147235403E+03  0.47000000000E+01 0.  1.
         -5    1    3    3    0  502 -0.16019882655E+02  0.26644898002E+02  0.80658016803E+01  0.32461275183E+02  0.47000000000E+01 0.  1.
        -11    1    1    2    0    0  0.18869960101E+02  0.22768615224E+02  0.29197190516E+02  0.41556722290E+02  0.00000000000E+00 0.  1.
         11    1    1    2    0    0  0.43677670236E+00 -0.46257636404E+02 -0.26693028728E+02  0.53408589967E+02  0.00000000000E+00 0. -1.
<mgrwt>
<rscale>  0 0.11923298E+03</rscale>
<asrwt>0</asrwt>
<pdfrwt beam="2">  1        1 0.38437646E-01 0.12864429E+03</pdfrwt>
<pdfrwt beam="1">  1       -1 0.10623730E-01 0.12864429E+03</pdfrwt>
<totfact> 0.58308903E+03</totfact>
</mgrwt>
</event>
<event>
 7    1  0.7800420E-006  0.1411183E+03  0.7546771E-02  0.1225180E+00
          2   -1    0    0  501    0  0.00000000000E+00  0.00000000000E+00  0.18920563766E+03  0.18920563766E+03  0.00000000000E+00 0. -1.
         -2   -1    0    0    0  501 -0.00000000000E+00 -0.00000000000E+00 -0.82092541170E+02  0.82092541170E+02  0.00000000000E+00 0.  1.
         23    2    1    2    0    0  0.27681336347E+01 -0.65424328839E+02  0.76075605361E+02  0.16031803420E+03  0.12500547585E+03 0.  0.
          5    1    3    3  502    0 -0.20990257588E+02  0.20462621503E+02  0.63633649818E+02  0.70218524490E+02  0.47000000000E+01 0.  1.
         -5    1    3    3    0  502  0.23758391223E+02 -0.85886950342E+02  0.12441955543E+02  0.90099509712E+02  0.47000000000E+01 0.  1.
        -11    1    1    2    0    0  0.34697382294E+02  0.49890365027E+02  0.14682700614E+01  0.60787438485E+02  0.00000000000E+00 0.  1.
         11    1    1    2    0    0 -0.37465515929E+02  0.15533963812E+02  0.29569221071E+02  0.50192706146E+02  0.00000000000E+00 0. -1.
<mgrwt>
<rscale>  0 0.13154599E+03</rscale>
<asrwt>0</asrwt>
<pdfrwt beam="1">  1        2 0.29108560E-01 0.14111830E+03</pdfrwt>
<pdfrwt beam="2">  1       -2 0.12629622E-01 0.14111830E+03</pdfrwt>
<totfact> 0.78343968E+03</totfact>
</mgrwt>
</event>
<event>
 6    1  0.7800420E-006  0.1596616E+03  0.7546771E-02  0.1202230E+00
          2   -1    0    0  501    0  0.00000000000E+00  0.00000000000E+00  0.11866448282E+04  0.11866448282E+04  0.00000000000E+00 0. -1.
         -2   -1    0    0    0  501 -0.00000000000E+00 -0.00000000000E+00 -0.24174111210E+02  0.24174111210E+02  0.00000000000E+00 0.  1.
          5    1    1    2  502    0  0.80978971814E+01 -0.29688251152E+02  0.88794206926E+03  0.88848757816E+03  0.47000000000E+01 0. -1.
         -5    1    1    2    0  502 -0.49185116102E+01 -0.48306634472E+02  0.89711174792E+02  0.10211712674E+03  0.47000000000E+01 0.  1.
        -11    1    1    2    0    0 -0.23223297500E+02 -0.12924466882E+02  0.38282340966E+02  0.46603658878E+02  0.00000000000E+00 0. -1.
         11    1    1    2    0    0  0.20043911929E+02  0.90919352506E+02  0.14653513193E+03  0.17361057559E+03  0.00000000000E+00 0.  1.
<mgrwt>
<rscale>  0 0.14857880E+03</rscale>
<asrwt>0</asrwt>
<pdfrwt beam="1">  1        2 0.18256070E+00 0.15966157E+03</pdfrwt>
<pdfrwt beam="2">  1       -2 0.37190950E-02 0.15966157E+03</pdfrwt>
<totfact> 0.61305964E+03</totfact>
</mgrwt>
</event>
<event>
 7    1  0.7800420E-006  0.1325326E+03  0.7546771E-02  0.1236714E+00
         -1   -1    0    0    0  501 -0.00000000000E+00  0.00000000000E+00  0.37140892869E+03  0.37140892869E+03  0.00000000000E+00 0. -1.
          1   -1    0    0  501    0  0.00000000000E+00 -0.00000000000E+00 -0.39097648375E+02  0.39097648375E+02  0.00000000000E+00 0.  1.
         23    2    1    2    0    0 -0.41702183847E+01  0.43835365466E+02  0.23591890657E+03  0.27059679526E+03  0.12500386051E+03 0.  0.
          5    1    3    3  502    0 -0.18642182095E+02 -0.73313688202E+01 -0.71135251401E+01  0.21770901726E+02  0.47000000000E+01 0. -1.
         -5    1    3    3    0  502  0.14471963710E+02  0.51166734286E+02  0.24303243171E+03  0.24882589353E+03  0.47000000000E+01 0. -1.
        -11    1    1    2    0    0  0.40715944131E+02 -0.42767452997E+02  0.81003623825E+02  0.10024185860E+03  0.00000000000E+00 0.  1.
         11    1    1    2    0    0 -0.36545725746E+02 -0.10679124686E+01  0.15388749922E+02  0.39667923207E+02  0.00000000000E+00 0. -1.
<mgrwt>
<rscale>  0 0.12395339E+03</rscale>
<asrwt>0</asrwt>
<pdfrwt beam="2">  1        1 0.60150231E-02 0.13253262E+03</pdfrwt>
<pdfrwt beam="1">  1       -1 0.57139833E-01 0.13253262E+03</pdfrwt>
<totfact> 0.39361761E+03</totfact>
</mgrwt>
</event>
<event>
 7    1  0.7800420E-006  0.2391589E+03  0.7546771E-02  0.1123038E+00
         -2   -1    0    0    0  501 -0.00000000000E+00  0.00000000000E+00  0.49763056118E+02  0.49763056118E+02  0.00000000000E+00 0.  1.
          2   -1    0    0  501    0  0.00000000000E+00 -0.00000000000E+00 -0.11956206634E+04  0.11956206634E+04  0.00000000000E+00 0. -1.
         23    2    1    2    0    0  0.35108972682E+02 -0.20085013449E+03 -0.78687102210E+03  0.82241289161E+03  0.12499416938E+03 0.  0.
          5    1    3    3  502    0  0.55038531987E+02 -0.11236987511E+03 -0.26996643898E+03  0.29759065343E+03  0.47000000000E+01 0.  1.
         -5    1    3    3    0  502 -0.19929559305E+02 -0.88480259381E+02 -0.51690458312E+03  0.52482223818E+03  0.47000000000E+01 0.  1.
        -11    1    1    2    0    0 -0.42569775608E+02  0.20752436722E+03 -0.35175466060E+03  0.41062134630E+03  0.00000000000E+00 0. -1.
         11    1    1    2    0    0  0.74608029263E+01 -0.66742327282E+01 -0.72319245909E+01  0.12349481613E+02  0.00000000000E+00 0.  1.
<mgrwt>
<rscale>  0 0.23519163E+03</rscale>
<asrwt>0</asrwt>
<pdfrwt beam="2">  1        2 0.18394163E+00 0.23915886E+03</pdfrwt>
<pdfrwt beam="1">  1       -2 0.76558553E-02 0.23915886E+03</pdfrwt>
<totfact> 0.20351833E+03</totfact>
</mgrwt>
</event>
<event>
 6    1  0.7800420E-006  0.2827084E+03  0.7546771E-02  0.1133954E+00
          2   -1    0    0  501    0  0.00000000000E+00  0.00000000000E+00  0.52337993207E+03  0.52337993207E+03  0.00000000000E+00 0. -1.
         -2   -1    0    0    0  501 -0.00000000000E+00 -0.00000000000E+00 -0.71811778443E+02  0.71811778443E+02  0.00000000000E+00 0.  1.
          5    1    1    2  502    0  0.24525914709E+02 -0.13919267986E+03  0.24941308607E+03  0.28671431796E+03  0.47000000000E+01 0. -1.
         -5    1    1    2    0  502  0.21869725688E+02  0.12720621978E+03  0.10376047932E+03  0.16567448301E+03  0.47000000000E+01 0.  1.
        -11    1    1    2    0    0  0.25887567883E+02  0.16294821747E+02  0.23035791420E+02  0.38292754837E+02  0.00000000000E+00 0.  1.
         11    1    1    2    0    0 -0.72283208279E+02 -0.43083616717E+01  0.75358796817E+02  0.10451015471E+03  0.00000000000E+00 0. -1.
<mgrwt>
<rscale>  0 0.21990430E+03</rscale>
<asrwt>0</asrwt>
<pdfrwt beam="1">  1        2 0.80519987E-01 0.28270844E+03</pdfrwt>
<pdfrwt beam="2">  1       -2 0.11047966E-01 0.28270844E+03</pdfrwt>
<totfact> 0.33322639E+03</totfact>
</mgrwt>
</event>
<event>
 7    1  0.7800420E-006  0.1656028E+03  0.7546771E-02  0.1189742E+00
          4   -1    0    0  501    0  0.00000000000E+00  0.00000000000E+00  0.11590292051E+03  0.11590292051E+03  0.00000000000E+00 0. -1.
         -4   -1    0    0    0  501 -0.00000000000E+00 -0.00000000000E+00 -0.20352044870E+03  0.20352044870E+03  0.00000000000E+00 0.  1.
         23    2    1    2    0    0 -0.73907553449E+02  0.79603594780E+02 -0.56948374407E+02  0.17512111341E+03  0.12500091302E+03 0.  0.
          5    1    3    3  502    0 -0.39076663846E+02  0.60065801285E+02 -0.95451097814E+02  0.11944826585E+03  0.47000000000E+01 0.  1.
         -5    1    3    3    0  502 -0.34830889603E+02  0.19537793495E+02  0.38502723407E+02  0.55672847556E+02  0.47000000000E+01 0.  1.
        -11    1    1    2    0    0  0.42781442373E+02 -0.36861667432E+02 -0.61177912705E+02  0.83257259986E+02  0.00000000000E+00 0.  1.
         11    1    1    2    0    0  0.31126111075E+02 -0.42741927348E+02  0.30508758920E+02  0.61044995823E+02  0.00000000000E+00 0. -1.
<mgrwt>
<rscale>  0 0.15907786E+03</rscale>
<asrwt>0</asrwt>
<pdfrwt beam="1">  1        4 0.17831219E-01 0.16560280E+03</pdfrwt>
<pdfrwt beam="2">  1       -4 0.31310838E-01 0.16560280E+03</pdfrwt>
<totfact> 0.46817509E+02</totfact>
</mgrwt>
</event>
<event>
 7    1  0.7800420E-006  0.1581591E+03  0.7546771E-02  0.1197899E+00
         -1   -1    0    0    0  501 -0.00000000000E+00  0.00000000000E+00  0.47216728824E+02  0.47216728824E+02  0.00000000000E+00 0.  1.
          1   -1    0    0  501    0  0.00000000000E+00 -0.00000000000E+00 -0.89789984434E+03  0.89789984434E+03  0.00000000000E+00 0. -1.
         23    2    1    2    0    0 -0.65781753820E+02  0.71145140027E+02 -0.77312847672E+03  0.78913999578E+03  0.12500168532E+03 0.  0.
          5    1    3    3  502    0 -0.36609520414E+02  0.33051130765E+02 -0.69874517117E+03  0.70049949212E+03  0.47000000000E+01 0. -1.
         -5    1    3    3    0  502 -0.29172233407E+02  0.38094009262E+02 -0.74383305549E+02  0.88640503653E+02  0.47000000000E+01 0. -1.
        -11    1    1    2    0    0  0.65698876394E+02 -0.93991729038E+01 -0.14920582060E+02  0.68024338142E+02  0.00000000000E+00 0. -1.
         11    1    1    2    0    0  0.82877426338E-01 -0.61745967123E+02 -0.62634056732E+02  0.87952239240E+02  0.00000000000E+00 0.  1.
<mgrwt>
<rscale>  0 0.15211372E+03</rscale>
<asrwt>0</asrwt>
<pdfrwt beam="2">  1        1 0.13813844E+00 0.15815907E+03</pdfrwt>
<pdfrwt beam="1">  1       -1 0.72641122E-02 0.15815907E+03</pdfrwt>
<totfact> 0.19017668E+03</totfact>
</mgrwt>
</event>
<event>
 7    1  0.7800420E-006  0.1278791E+03  0.7546771E-02  0.1245206E+00
          2   -1    0    0  501    0  0.00000000000E+00  0.00000000000E+00  0.76052522375E+02  0.76052522375E+02  0.00000000000E+00 0. -1.
         -2   -1    0    0    0  501 -0.00000000000E+00 -0.00000000000E+00 -0.16336158442E+03  0.16336158442E+03  0.00000000000E+00 0.  1.
         23    2    1    2    0    0 -0.20479947109E+02  0.17582392016E+02 -0.48497106400E+02  0.13676638916E+03  0.12499802851E+03 0.  0.
          5    1    3    3  502    0 -0.38840904463E+01 -0.17683215344E+02  0.37680746201E+02  0.42067931941E+02  0.47000000000E+01 0.  1.
         -5    1    3    3    0  502 -0.16595856663E+02  0.35265607360E+02 -0.86177852602E+02  0.94698457220E+02  0.47000000000E+01 0.  1.
        -11    1    1    2    0    0 -0.14888210730E+02  0.30482803566E+02 -0.56954305898E+01  0.34399099720E+02  0.00000000000E+00 0.  1.
         11    1    1    2    0    0  0.35368157839E+02 -0.48065195581E+02 -0.33116525051E+02  0.68248617910E+02  0.00000000000E+00 0. -1.
<mgrwt>
<rscale>  0 0.11873039E+03</rscale>
<asrwt>0</asrwt>
<pdfrwt beam="1">  1        2 0.11700388E-01 0.12787915E+03</pdfrwt>
<pdfrwt beam="2">  1       -2 0.25132551E-01 0.12787915E+03</pdfrwt>
<totfact> 0.69847584E+03</totfact>
</mgrwt>
</event>
<event>
 7    1  0.7800420E-006  0.1670408E+03  0.7546771E-02  0.1187711E+00
          1   -1    0    0  501    0  0.00000000000E+00  0.00000000000E+00  0.66349473753E+02  0.66349473753E+02  0.00000000000E+00 0. -1.
         -1   -1    0    0    0  501 -0.00000000000E+00 -0.00000000000E+00 -0.37034735443E+03  0.37034735443E+03  0.00000000000E+00 0.  1.
         23    2    1    2    0    0 -0.72016115405E+02  0.84211464572E+02 -0.13439414647E+03  0.21439312500E+03  0.12499893519E+03 0.  0.
          5    1    3    3  502    0 -0.38107848592E+02  0.79255041979E+02 -0.14053972789E+02  0.89180569378E+02  0.47000000000E+01 0. -1.
         -5    1    3    3    0  502 -0.33908266813E+02  0.49564225925E+01 -0.12034017369E+03  0.12521255562E+03  0.47000000000E+01 0. -1.
        -11    1    1    2    0    0  0.49871011500E+02  0.64943818034E+01 -0.62221963277E+02  0.80005421673E+02  0.00000000000E+00 0.  1.
         11    1    1    2    0    0  0.22145103905E+02 -0.90705846375E+02 -0.10738177093E+03  0.14229828151E+03  0.00000000000E+00 0. -1.
<mgrwt>
<rscale>  0 0.16087595E+03</rscale>
<asrwt>0</asrwt>
<pdfrwt beam="1">  1        1 0.10207611E-01 0.16704079E+03</pdfrwt>
<pdfrwt beam="2">  1       -1 0.56976517E-01 0.16704079E+03</pdfrwt>
<totfact> 0.19652536E+03</totfact>
</mgrwt>
</event>
<event>
 7    1  0.7800420E-006  0.1733629E+03  0.7546771E-02  0.1181019E+00
          2   -1    0    0  501    0  0.00000000000E+00  0.00000000000E+00  0.96249062533E+02  0.96249062533E+02  0.00000000000E+00 0. -1.
         -2   -1    0    0    0  501 -0.00000000000E+00 -0.00000000000E+00 -0.43274688045E+03  0.43274688045E+03  0.00000000000E+00 0.  1.
         23    2    1    2    0    0  0.74482590735E+01  0.11989257961E+03 -0.14357131982E+02  0.17395639864E+03  0.12499997673E+03 0.  0.
          5    1    3    3  502    0  0.12499520536E+01 -0.23367341193E+02  0.14055478149E+02  0.27699124184E+02  0.47000000000E+01 0.  1.
         -5    1    3    3    0  502  0.61983070199E+01  0.14325992080E+03 -0.28412610130E+02  0.14625727446E+03  0.47000000000E+01 0.  1.
        -11    1    1    2    0    0 -0.37280697409E+02 -0.11137191616E+03 -0.26869265839E+03  0.29323931997E+03  0.00000000000E+00 0.  1.
         11    1    1    2    0    0  0.29832438335E+02 -0.85206634545E+01 -0.53448027544E+02  0.61800224361E+02  0.00000000000E+00 0. -1.
<mgrwt>
<rscale>  0 0.16699474E+03</rscale>
<asrwt>0</asrwt>
<pdfrwt beam="1">  1        2 0.14807548E-01 0.17336292E+03</pdfrwt>
<pdfrwt beam="2">  1       -2 0.66576442E-01 0.17336292E+03</pdfrwt>
<totfact> 0.83196798E+02</totfact>
</mgrwt>
</event>
<event>
 7    1  0.7800420E-006  0.2057516E+03  0.7546771E-02  0.1148683E+00
         -1   -1    0    0    0  501 -0.00000000000E+00  0.00000000000E+00  0.77126595515E+02  0.77126595515E+02  0.00000000000E+00 0.  1.
          1   -1    0    0  501    0  0.00000000000E+00 -0.00000000000E+00 -0.58870067102E+03  0.58870067102E+03  0.00000000000E+00 0. -1.
         23    2    1    2    0    0  0.14200704474E+03  0.80868747782E+02 -0.39202780346E+03  0.44274092607E+03  0.12501189467E+03 0.  0.
          5    1    3    3  502    0  0.26467503729E+02 -0.16579472171E+02 -0.12095370723E+02  0.33820047961E+02  0.47000000000E+01 0. -1.
         -5    1    3    3    0  502  0.11553954101E+03  0.97448219952E+02 -0.37993243274E+03  0.40892087811E+03  0.47000000000E+01 0. -1.
        -11    1    1    2    0    0 -0.44779079255E+02  0.23432264224E+01  0.42393568642E+01  0.45040301904E+02  0.00000000000E+00 0.  1.
         11    1    1    2    0    0 -0.97227965484E+02 -0.83211974204E+02 -0.12378562891E+03  0.17804603856E+03  0.00000000000E+00 0. -1.
<mgrwt>
<rscale>  0 0.20125635E+03</rscale>
<asrwt>0</asrwt>
<pdfrwt beam="2">  1        1 0.90569340E-01 0.20575162E+03</pdfrwt>
<pdfrwt beam="1">  1       -1 0.11865629E-01 0.20575162E+03</pdfrwt>
<totfact> 0.16766890E+03</totfact>
</mgrwt>
</event>
<event>
 7    1  0.7800420E-006  0.1389599E+03  0.7546771E-02  0.1226394E+00
          1   -1    0    0  501    0  0.00000000000E+00  0.00000000000E+00  0.17064093880E+03  0.17064093880E+03  0.00000000000E+00 0. -1.
         -1   -1    0    0    0  501 -0.00000000000E+00 -0.00000000000E+00 -0.11978556242E+03  0.11978556242E+03  0.00000000000E+00 0.  1.
         23    2    1    2    0    0 -0.56235779630E+02 -0.22805576662E+02  0.99829660390E+02  0.17110173030E+03  0.12500913478E+03 0.  0.
          5    1    3    3  502    0  0.30225195789E+02  0.25363437673E+02  0.32073554783E+02  0.51065343899E+02  0.47000000000E+01 0.  1.
         -5    1    3    3    0  502 -0.86460975419E+02 -0.48169014335E+02  0.67756105607E+02  0.12003638640E+03  0.47000000000E+01 0.  1.
        -11    1    1    2    0    0  0.31250520076E+02 -0.10865150996E+02  0.19960536820E+02  0.38640258039E+02  0.00000000000E+00 0. -1.
         11    1    1    2    0    0  0.24985259554E+02  0.33670727658E+02 -0.68934820831E+02  0.80684512882E+02  0.00000000000E+00 0.  1.
<mgrwt>
<rscale>  0 0.13071806E+03</rscale>
<asrwt>0</asrwt>
<pdfrwt beam="1">  1        1 0.26252452E-01 0.13895985E+03</pdfrwt>
<pdfrwt beam="2">  1       -1 0.18428548E-01 0.13895985E+03</pdfrwt>
<totfact> 0.39835514E+03</totfact>
</mgrwt>
</event>
<event>
 7    1  0.7800420E-006  0.1279382E+03  0.7546771E-02  0.1245826E+00
         -2   -1    0    0    0  501 -0.00000000000E+00  0.00000000000E+00  0.23607613285E+02  0.23607613285E+02  0.00000000000E+00 0.  1.
          2   -1    0    0  501    0  0.00000000000E+00 -0.00000000000E+00 -0.53226678807E+03  0.53226678807E+03  0.00000000000E+00 0. -1.
         23    2    1    2    0    0  0.10361081873E+02  0.25249841695E+02 -0.33388861224E+03  0.35756087960E+03  0.12499308267E+03 0.  0.
          5    1    3    3  502    0 -0.14739896708E+02  0.26265884256E+02 -0.33035718548E+03  0.33176063846E+03  0.47000000000E+01 0.  1.
         -5    1    3    3    0  502  0.25100978581E+02 -0.10160425617E+01 -0.35314267609E+01  0.25800241146E+02  0.47000000000E+01 0.  1.
        -11    1    1    2    0    0  0.31063068444E+02  0.18028836650E+01 -0.12229865114E+03  0.12619478864E+03  0.00000000000E+00 0. -1.
         11    1    1    2    0    0 -0.41424150317E+02 -0.27052725360E+02 -0.52471911410E+02  0.72118733113E+02  0.00000000000E+00 0.  1.
<mgrwt>
<rscale>  0 0.11836099E+03</rscale>
<asrwt>0</asrwt>
<pdfrwt beam="2">  1        2 0.81887195E-01 0.12793818E+03</pdfrwt>
<pdfrwt beam="1">  1       -2 0.36319406E-02 0.12793818E+03</pdfrwt>
<totfact> 0.17313997E+04</totfact>
</mgrwt>
</event>
<event>
 6    1  0.7800420E-006  0.2120011E+03  0.7546771E-02  0.1173299E+00
          4   -1    0    0  501    0  0.00000000000E+00  0.00000000000E+00  0.10904283672E+04  0.10904283672E+04  0.00000000000E+00 0. -1.
         -4   -1    0    0    0  501 -0.00000000000E+00 -0.00000000000E+00 -0.27157065243E+02  0.27157065243E+02  0.00000000000E+00 0.  1.
          5    1    1    2  502    0  0.50170718001E+02 -0.91669002273E+01  0.89792842863E+03  0.89938795074E+03  0.47000000000E+01 0. -1.
         -5    1    1    2    0  502 -0.24936258767E+02  0.31187467823E+02  0.24486881605E+02  0.47076241580E+02  0.47000000000E+01 0.  1.
        -11    1    1    2    0    0 -0.22478210869E+02  0.34049904067E+02  0.53505319052E+02  0.67286589286E+02  0.00000000000E+00 0.  1.
         11    1    1    2    0    0 -0.27562483644E+01 -0.56070471663E+02  0.87350672672E+02  0.10383465083E+03  0.00000000000E+00 0. -1.
<mgrwt>
<rscale>  0 0.17443634E+03</rscale>
<asrwt>0</asrwt>
<pdfrwt beam="1">  1        4 0.16775818E+00 0.21200109E+03</pdfrwt>
<pdfrwt beam="2">  1       -4 0.41780109E-02 0.21200109E+03</pdfrwt>
<totfact> 0.13537470E+02</totfact>
</mgrwt>
</event>
<event>
 7    1  0.7800420E-006  0.1409815E+03  0.7546771E-02  0.1223364E+00
          1   -1    0    0  501    0  0.00000000000E+00  0.00000000000E+00  0.30475929932E+02  0.30475929932E+02  0.00000000000E+00 0. -1.
         -1   -1    0    0    0  501 -0.00000000000E+00 -0.00000000000E+00 -0.52114274701E+03  0.52114274701E+03  0.00000000000E+00 0.  1.
         23    2    1    2    0    0  0.48727444286E+02 -0.43330937410E+02 -0.26740318695E+03  0.30229165289E+03  0.12499538012E+03 0.  0.
          5    1    3    3  502    0 -0.33597546346E+02 -0.29827073992E+01 -0.14694584722E+03  0.15084052400E+03  0.47000000000E+01 0. -1.
         -5    1    3    3    0  502  0.82324990632E+02 -0.40348230011E+02 -0.12045733973E+03  0.15145112889E+03  0.47000000000E+01 0. -1.
        -11    1    1    2    0    0 -0.63161423206E+02  0.32367538880E+02 -0.21966762758E+03  0.23084819592E+03  0.00000000000E+00 0.  1.
         11    1    1    2    0    0  0.14433978920E+02  0.10963398530E+02 -0.35960025483E+01  0.18478828132E+02  0.00000000000E+00 0. -1.
<mgrwt>
<rscale>  0 0.13279633E+03</rscale>
<asrwt>0</asrwt>
<pdfrwt beam="1">  1        1 0.46886047E-02 0.14098148E+03</pdfrwt>
<pdfrwt beam="2">  1       -1 0.80175805E-01 0.14098148E+03</pdfrwt>
<totfact> 0.28581033E+03</totfact>
</mgrwt>
</event>
<event>
 7    1  0.7800420E-006  0.1447289E+03  0.7546771E-02  0.1215343E+00
          3   -1    0    0  501    0  0.00000000000E+00  0.00000000000E+00  0.38097152547E+02  0.38097152547E+02  0.00000000000E+00 0. -1.
         -3   -1    0    0    0  501 -0.00000000000E+00 -0.00000000000E+00 -0.51211233128E+03  0.51211233128E+03  0.00000000000E+00 0.  1.
         23    2    1    2    0    0  0.72682662100E+02  0.62862259926E+01 -0.17256105860E+03  0.22521940100E+03  0.12499669449E+03 0.  0.
          5    1    3    3  502    0  0.77873236022E+02  0.29517218827E+01 -0.31886877344E+02  0.84331586593E+02  0.47000000000E+01 0.  1.
         -5    1    3    3    0  502 -0.51905739214E+01  0.33345041099E+01 -0.14067418126E+03  0.14088781440E+03  0.47000000000E+01 0.  1.
        -11    1    1    2    0    0 -0.86337976604E+02 -0.31448437215E+02 -0.21172486041E+03  0.23080439104E+03  0.00000000000E+00 0.  1.
         11    1    1    2    0    0  0.13655314503E+02  0.25162211222E+02 -0.89729259717E+02  0.94185691786E+02  0.00000000000E+00 0. -1.
<mgrwt>
<rscale>  0 0.13851388E+03</rscale>
<asrwt>0</asrwt>
<pdfrwt beam="1">  1        3 0.58611007E-02 0.14472892E+03</pdfrwt>
<pdfrwt beam="2">  1       -3 0.78786509E-01 0.14472892E+03</pdfrwt>
<totfact> 0.63688337E+02</totfact>
</mgrwt>
</event>
<event>
 7    1  0.7800420E-006  0.2175081E+03  0.7546771E-02  0.1139140E+00
         -2   -1    0    0    0  501 -0.00000000000E+00  0.00000000000E+00  0.16415854278E+03  0.16415854278E+03  0.00000000000E+00 0.  1.
          2   -1    0    0  501    0  0.00000000000E+00 -0.00000000000E+00 -0.26967293029E+03  0.26967293029E+03  0.00000000000E+00 0. -1.
         23    2    1    2    0    0 -0.16964812838E+03 -0.53888194135E+02 -0.29399169022E+02  0.21948594266E+03  0.12500137182E+03 0.  0.
          5    1    3    3  502    0 -0.12117879119E+03  0.14818047294E+02  0.16979237442E+02  0.12334609221E+03  0.47000000000E+01 0.  1.
         -5    1    3    3    0  502 -0.48469337192E+02 -0.68706241429E+02 -0.46378406463E+02  0.96139850453E+02  0.47000000000E+01 0.  1.
        -11    1    1    2    0    0  0.67427196402E+02  0.10906229290E+02 -0.77687769283E+02  0.10344448824E+03  0.00000000000E+00 0. -1.
         11    1    1    2    0    0  0.10222093198E+03  0.42981964845E+02  0.15725508030E+01  0.11090104216E+03  0.00000000000E+00 0.  1.
<mgrwt>
<rscale>  0 0.21309237E+03</rscale>
<asrwt>0</asrwt>
<pdfrwt beam="2">  1        2 0.41488143E-01 0.21750809E+03</pdfrwt>
<pdfrwt beam="1">  1       -2 0.25255160E-01 0.21750809E+03</pdfrwt>
<totfact> 0.17021646E+03</totfact>
</mgrwt>
</event>
<event>
 7    1  0.7800420E-006  0.2113506E+03  0.7546771E-02  0.1144365E+00
         -2   -1    0    0    0  501 -0.00000000000E+00  0.00000000000E+00  0.17385648086E+03  0.17385648086E+03  0.00000000000E+00 0.  1.
          2   -1    0    0  501    0  0.00000000000E+00 -0.00000000000E+00 -0.29500813390E+03  0.29500813390E+03  0.00000000000E+00 0. -1.
         23    2    1    2    0    0  0.10289553287E+03  0.13585472692E+03  0.43127158204E+02  0.21570586846E+03  0.12500028961E+03 0.  0.
          5    1    3    3  502    0  0.75709163889E+02  0.15741431806E+03  0.45645507023E+02  0.18060107236E+03  0.47000000000E+01 0. -1.
         -5    1    3    3    0  502  0.27186368981E+02 -0.21559591140E+02 -0.25183488190E+01  0.35104796101E+02  0.47000000000E+01 0. -1.
        -11    1    1    2    0    0 -0.35910224140E+02 -0.74985518060E+02 -0.13403962191E+03  0.15773075908E+03  0.00000000000E+00 0. -1.
         11    1    1    2    0    0 -0.66985308730E+02 -0.60869208859E+02 -0.30239189330E+02  0.95427987216E+02  0.00000000000E+00 0.  1.
<mgrwt>
<rscale>  0 0.20650330E+03</rscale>
<asrwt>0</asrwt>
<pdfrwt beam="2">  1        2 0.45385866E-01 0.21135059E+03</pdfrwt>
<pdfrwt beam="1">  1       -2 0.26747151E-01 0.21135059E+03</pdfrwt>
<totfact> 0.13949597E+03</totfact>
</mgrwt>
</event>
<event>
 7    1  0.7800420E-006  0.1521543E+03  0.7546771E-02  0.1206917E+00
          3   -1    0    0  501    0  0.00000000000E+00  0.00000000000E+00  0.22891412686E+02  0.22891412686E+02  0.00000000000E+00 0. -1.
         -3   -1    0    0    0  501 -0.00000000000E+00 -0.00000000000E+00 -0.84126629428E+03  0.84126629428E+03  0.00000000000E+00 0.  1.
         23    2    1    2    0    0  0.67155192002E+02  0.54877339556E+02 -0.42803510866E+03  0.45427411815E+03  0.12501831051E+03 0.  0.
          5    1    3    3  502    0  0.66472545127E+02  0.84593627646E+02 -0.22995885289E+03  0.25392488086E+03  0.47000000000E+01 0.  1.
         -5    1    3    3    0  502  0.68264687529E+00 -0.29716288090E+02 -0.19807625576E+03  0.20034923729E+03  0.47000000000E+01 0.  1.
        -11    1    1    2    0    0 -0.80689960732E+02 -0.63002947899E+02 -0.37127948643E+03  0.38513464951E+03  0.00000000000E+00 0.  1.
         11    1    1    2    0    0  0.13534768730E+02  0.81256083426E+01 -0.19060286508E+02  0.24748939316E+02  0.00000000000E+00 0. -1.
<mgrwt>
<rscale>  0 0.14487407E+03</rscale>
<asrwt>0</asrwt>
<pdfrwt beam="1">  1        3 0.35217558E-02 0.15215426E+03</pdfrwt>
<pdfrwt beam="2">  1       -3 0.12942558E+00 0.15215426E+03</pdfrwt>
<totfact> 0.46175210E+02</totfact>
</mgrwt>
</event>
<event>
 7    1  0.7800420E-006  0.1424661E+03  0.7546771E-02  0.1221138E+00
          2   -1    0    0  501    0  0.00000000000E+00  0.00000000000E+00  0.22984014529E+03  0.22984014529E+03  0.00000000000E+00 0. -1.
         -2   -1    0    0    0  501 -0.00000000000E+00 -0.00000000000E+00 -0.71096213930E+02  0.71096213930E+02  0.00000000000E+00 0.  1.
         23    2    1    2    0    0  0.63263427853E+02 -0.25597869803E+02  0.98108621192E+02  0.17297947355E+03  0.12505632521E+03 0.  0.
          5    1    3    3  502    0  0.32054373018E+02 -0.76174039683E+02  0.54290487055E+02  0.98992495352E+02  0.47000000000E+01 0. -1.
         -5    1    3    3    0  502  0.31209054835E+02  0.50576169880E+02  0.43818134136E+02  0.73986978197E+02  0.47000000000E+01 0. -1.
        -11    1    1    2    0    0 -0.20294320418E+02 -0.14021682570E+02 -0.17598550725E+02  0.30301419289E+02  0.00000000000E+00 0.  1.
         11    1    1    2    0    0 -0.42969107435E+02  0.39619552373E+02  0.78233860890E+02  0.97655466379E+02  0.00000000000E+00 0. -1.
<mgrwt>
<rscale>  0 0.13435179E+03</rscale>
<asrwt>0</asrwt>
<pdfrwt beam="1">  1        2 0.35360022E-01 0.14246612E+03</pdfrwt>
<pdfrwt beam="2">  1       -2 0.10937879E-01 0.14246612E+03</pdfrwt>
<totfact> 0.79939657E+03</totfact>
</mgrwt>
</event>
<event>
 7    1  0.7800420E-006  0.1288669E+03  0.7546771E-02  0.1243846E+00
         -2   -1    0    0    0  501 -0.00000000000E+00  0.00000000000E+00  0.45560599874E+03  0.45560599874E+03  0.00000000000E+00 0.  1.
          2   -1    0    0  501    0  0.00000000000E+00 -0.00000000000E+00 -0.28661024920E+02  0.28661024920E+02  0.00000000000E+00 0. -1.
         23    2    1    2    0    0  0.48531966875E+01  0.30964395290E+02  0.19820828091E+03  0.23641745189E+03  0.12499736655E+03 0.  0.
          5    1    3    3  502    0 -0.75429070402E+01 -0.40555201026E+01 -0.16116559580E+02  0.18846118503E+02  0.47000000000E+01 0.  1.
         -5    1    3    3    0  502  0.12396103728E+02  0.35019915393E+02  0.21432484049E+03  0.21757133339E+03  0.47000000000E+01 0.  1.
        -11    1    1    2    0    0  0.36857109879E+02 -0.17621405082E+02  0.16846790482E+03  0.17335049876E+03  0.00000000000E+00 0.  1.
         11    1    1    2    0    0 -0.41710306566E+02 -0.13342990208E+02  0.60268788097E+02  0.74499073016E+02  0.00000000000E+00 0. -1.
<mgrwt>
<rscale>  0 0.11954725E+03</rscale>
<asrwt>0</asrwt>
<pdfrwt beam="2">  1        2 0.44093888E-02 0.12886694E+03</pdfrwt>
<pdfrwt beam="1">  1       -2 0.70093226E-01 0.12886694E+03</pdfrwt>
<totfact> 0.33589214E+03</totfact>
</mgrwt>
</event>
<event>
 6    1  0.7800420E-006  0.1764485E+03  0.7546771E-02  0.1187012E+00
         -2   -1    0    0    0  501 -0.00000000000E+00  0.00000000000E+00  0.32184831291E+02  0.32184831291E+02  0.00000000000E+00 0.  1.
          2   -1    0    0  501    0  0.00000000000E+00 -0.00000000000E+00 -0.71113700359E+03  0.71113700359E+03  0.00000000000E+00 0. -1.
          5    1    1    2  502    0 -0.29548463144E+02 -0.11260839095E+03 -0.23618529043E+03  0.26336161983E+03  0.47000000000E+01 0. -1.
         -5    1    1    2    0  502  0.51203114133E+02  0.30747440758E+02 -0.11693012799E+03  0.13138458373E+03  0.47000000000E+01 0.  1.
        -11    1    1    2    0    0 -0.29402325885E+02  0.97410265682E+02 -0.30455877287E+03  0.32110637297E+03  0.00000000000E+00 0.  1.
         11    1    1    2    0    0  0.77476748954E+01 -0.15549315491E+02 -0.21277981016E+02  0.27469258356E+02  0.00000000000E+00 0. -1.
<mgrwt>
<rscale>  0 0.16150102E+03</rscale>
<asrwt>0</asrwt>
<pdfrwt beam="2">  1        2 0.10940569E+00 0.17644848E+03</pdfrwt>
<pdfrwt beam="1">  1       -2 0.49515128E-02 0.17644848E+03</pdfrwt>
<totfact> 0.79761123E+03</totfact>
</mgrwt>
</event>
<event>
 7    1  0.7800420E-006  0.1280982E+03  0.7546771E-02  0.1243272E+00
          4   -1    0    0  501    0  0.00000000000E+00  0.00000000000E+00  0.25926585941E+02  0.25926585941E+02  0.00000000000E+00 0. -1.
         -4   -1    0    0    0  501 -0.00000000000E+00 -0.00000000000E+00 -0.51532242487E+03  0.51532242487E+03  0.00000000000E+00 0.  1.
         23    2    1    2    0    0 -0.27663322708E+02 -0.43672087542E+01 -0.22131814617E+03  0.25571640780E+03  0.12499930984E+03 0.  0.
          5    1    3    3  502    0 -0.60117509262E+02 -0.18663708461E+02 -0.20828914316E+03  0.21764398933E+03  0.47000000000E+01 0.  1.
         -5    1    3    3    0  502  0.32454186554E+02  0.14296499707E+02 -0.13029003009E+02  0.38072418470E+02  0.47000000000E+01 0.  1.
        -11    1    1    2    0    0  0.41425259936E+02  0.40735174666E+02 -0.13702907941E+03  0.14883674015E+03  0.00000000000E+00 0. -1.
         11    1    1    2    0    0 -0.13761937228E+02 -0.36367965912E+02 -0.13104861336E+03  0.13669586286E+03  0.00000000000E+00 0.  1.
<mgrwt>
<rscale>  0 0.11989404E+03</rscale>
<asrwt>0</asrwt>
<pdfrwt beam="1">  1        4 0.39887061E-02 0.12809824E+03</pdfrwt>
<pdfrwt beam="2">  1       -4 0.79280361E-01 0.12809824E+03</pdfrwt>
<totfact> 0.81483583E+02</totfact>
</mgrwt>
</event>
<event>
 7    1  0.7800420E-006  0.2213279E+03  0.7546771E-02  0.1136327E+00
         -2   -1    0    0    0  501 -0.00000000000E+00  0.00000000000E+00  0.68373650797E+02  0.68373650797E+02  0.00000000000E+00 0.  1.
          2   -1    0    0  501    0  0.00000000000E+00 -0.00000000000E+00 -0.66186019464E+03  0.66186019464E+03  0.00000000000E+00 0. -1.
         23    2    1    2    0    0 -0.16891903195E+03 -0.69517067503E+02 -0.32753560176E+03  0.39530445351E+03  0.12497911230E+03 0.  0.
          5    1    3    3  502    0 -0.41550723486E+02  0.24023244256E+02 -0.25880524925E+02  0.54730891252E+02  0.47000000000E+01 0. -1.
         -5    1    3    3    0  502 -0.12736830846E+03 -0.93540311759E+02 -0.30165507684E+03  0.34057356226E+03  0.47000000000E+01 0. -1.
        -11    1    1    2    0    0  0.65483476977E+02 -0.35935417146E+01 -0.14787247129E+03  0.16176299658E+03  0.00000000000E+00 0. -1.
         11    1    1    2    0    0  0.10343555497E+03  0.73110609218E+02 -0.11807847079E+03  0.17316639535E+03  0.00000000000E+00 0.  1.
<mgrwt>
<rscale>  0 0.21675284E+03</rscale>
<asrwt>0</asrwt>
<pdfrwt beam="2">  1        2 0.10182465E+00 0.22132790E+03</pdfrwt>
<pdfrwt beam="1">  1       -2 0.10519023E-01 0.22132790E+03</pdfrwt>
<totfact> 0.27278246E+03</totfact>
</mgrwt>
</event>
<event>
 7    1  0.7800420E-006  0.1702678E+03  0.7546771E-02  0.1182636E+00
          2   -1    0    0  501    0  0.00000000000E+00  0.00000000000E+00  0.83997585507E+02  0.83997585507E+02  0.00000000000E+00 0. -1.
         -2   -1    0    0    0  501 -0.00000000000E+00 -0.00000000000E+00 -0.30942802993E+03  0.30942802993E+03  0.00000000000E+00 0.  1.
         23    2    1    2    0    0  0.83869969833E+02  0.79572811867E+02 -0.12646921667E+03  0.21209808690E+03  0.12500052588E+03 0.  0.
          5    1    3    3  502    0 -0.16624281444E+02 -0.62510112805E+01  0.10948918285E+02  0.21387161737E+02  0.47000000000E+01 0.  1.
         -5    1    3    3    0  502  0.10049425128E+03  0.85823823147E+02 -0.13741813496E+03  0.19071092516E+03  0.47000000000E+01 0.  1.
        -11    1    1    2    0    0 -0.90738719701E+02 -0.25152635573E+02 -0.44920007358E+02  0.10432630249E+03  0.00000000000E+00 0.  1.
         11    1    1    2    0    0  0.68687498680E+01 -0.54420176294E+02 -0.54041220395E+02  0.77001226058E+02  0.00000000000E+00 0. -1.
<mgrwt>
<rscale>  0 0.16548890E+03</rscale>
<asrwt>0</asrwt>
<pdfrwt beam="1">  1        2 0.12922706E-01 0.17026784E+03</pdfrwt>
<pdfrwt beam="2">  1       -2 0.47604311E-01 0.17026784E+03</pdfrwt>
<totfact> 0.19356150E+03</totfact>
</mgrwt>
</event>
<event>
 7    1  0.7800420E-006  0.1560924E+03  0.7546771E-02  0.1201069E+00
         -2   -1    0    0    0  501 -0.00000000000E+00  0.00000000000E+00  0.90926710222E+02  0.90926710222E+02  0.00000000000E+00 0.  1.
          2   -1    0    0  501    0  0.00000000000E+00 -0.00000000000E+00 -0.22743818384E+03  0.22743818384E+03  0.00000000000E+00 0. -1.
         23    2    1    2    0    0 -0.84461277097E+02 -0.40068257627E+02 -0.69572766934E+02  0.17089533940E+03  0.12500269810E+03 0.  0.
          5    1    3    3  502    0 -0.76115497812E+02 -0.69138068090E+02 -0.93728014723E+01  0.10336140902E+03  0.47000000000E+01 0. -1.
         -5    1    3    3    0  502 -0.83457792857E+01  0.29069810462E+02 -0.60199965462E+02  0.67533930389E+02  0.47000000000E+01 0. -1.
        -11    1    1    2    0    0  0.41169165578E+02 -0.17841361212E+02  0.53996966372E+01  0.45192599926E+02  0.00000000000E+00 0.  1.
         11    1    1    2    0    0  0.43292111520E+02  0.57909618839E+02 -0.72338403319E+02  0.10227695473E+03  0.00000000000E+00 0. -1.
<mgrwt>
<rscale>  0 0.14951572E+03</rscale>
<asrwt>0</asrwt>
<pdfrwt beam="2">  1        2 0.34990490E-01 0.15609243E+03</pdfrwt>
<pdfrwt beam="1">  1       -2 0.13988725E-01 0.15609243E+03</pdfrwt>
<totfact> 0.54791235E+03</totfact>
</mgrwt>
</event>
<event>
 7    1  0.7800420E-006  0.1760724E+03  0.7546771E-02  0.1177658E+00
          2   -1    0    0  501    0  0.00000000000E+00  0.00000000000E+00  0.37074750357E+03  0.37074750357E+03  0.00000000000E+00 0.  1.
         -2   -1    0    0    0  501 -0.00000000000E+00 -0.00000000000E+00 -0.75953555318E+02  0.75953555318E+02  0.00000000000E+00 0. -1.
         23    2    1    2    0    0  0.89275226862E+02  0.86052236000E+02  0.19858270784E+03  0.26539889935E+03  0.12500572174E+03 0.  0.
          5    1    3    3  502    0  0.55023286480E+02 -0.18909418993E+02  0.10694621173E+03  0.12183887058E+03  0.47000000000E+01 0.  1.
         -5    1    3    3    0  502  0.34251940382E+02  0.10496165499E+03  0.91636496113E+02  0.14356002876E+03  0.47000000000E+01 0.  1.
        -11    1    1    2    0    0 -0.66571106896E+02 -0.20637575923E+02  0.95072480603E+01  0.70342089670E+02  0.00000000000E+00 0.  1.
         11    1    1    2    0    0 -0.22704119966E+02 -0.65414660077E+02  0.86703992345E+02  0.11096006987E+03  0.00000000000E+00 0. -1.
<mgrwt>
<rscale>  0 0.17018228E+03</rscale>
<asrwt>0</asrwt>
<pdfrwt beam="1">  1        2 0.57038076E-01 0.17607238E+03</pdfrwt>
<pdfrwt beam="2">  1       -2 0.11685163E-01 0.17607238E+03</pdfrwt>
<totfact> 0.43716327E+03</totfact>
</mgrwt>
</event>
<event>
 7    1  0.7800420E-006  0.1252226E+03  0.7546771E-02  0.1250037E+00
         -1   -1    0    0    0  501 -0.00000000000E+00  0.00000000000E+00  0.12818427319E+03  0.12818427319E+03  0.00000000000E+00 0.  1.
          1   -1    0    0  501    0  0.00000000000E+00 -0.00000000000E+00 -0.92110658563E+02  0.92110658563E+02  0.00000000000E+00 0. -1.
         23    2    1    2    0    0  0.60954117665E+01  0.42358389648E+01  0.25903462381E+02  0.12787375573E+03  0.12500244663E+03 0.  0.
          5    1    3    3  502    0 -0.21354088726E+01  0.11784189148E+02  0.75617655623E+02  0.76704282324E+02  0.47000000000E+01 0. -1.
         -5    1    3    3    0  502  0.82308206391E+01 -0.75483501836E+01 -0.49714193241E+02  0.51169473405E+02  0.47000000000E+01 0. -1.
        -11    1    1    2    0    0 -0.12417692733E+00  0.43216845997E+02  0.10970016029E+02  0.44587581786E+02  0.00000000000E+00 0.  1.
         11    1    1    2    0    0 -0.59712348391E+01 -0.47452684962E+02 -0.79986378322E+00  0.47833594238E+02  0.00000000000E+00 0. -1.
<mgrwt>
<rscale>  0 0.11588938E+03</rscale>
<asrwt>0</asrwt>
<pdfrwt beam="2">  1        1 0.14170871E-01 0.12522263E+03</pdfrwt>
<pdfrwt beam="1">  1       -1 0.19720657E-01 0.12522263E+03</pdfrwt>
<totfact> 0.77849623E+03</totfact>
</mgrwt>
</event>
<event>
 7    1  0.7800420E-006  0.1263409E+03  0.7546771E-02  0.1248972E+00
          2   -1    0    0  501    0  0.00000000000E+00  0.00000000000E+00  0.21954171876E+03  0.21954171876E+03  0.00000000000E+00 0. -1.
         -2   -1    0    0    0  501 -0.00000000000E+00 -0.00000000000E+00 -0.55383192234E+02  0.55383192234E+02  0.00000000000E+00 0.  1.
         23    2    1    2    0    0 -0.22671621527E-01 -0.18369274476E+02  0.11659267809E+03  0.17191820515E+03  0.12499834367E+03 0.  0.
          5    1    3    3  502    0  0.29455063255E+02  0.34901897452E+02  0.69727262861E+01  0.46437615238E+02  0.47000000000E+01 0. -1.
         -5    1    3    3    0  502 -0.29477734877E+02 -0.53271171929E+02  0.10961995180E+03  0.12548058991E+03  0.47000000000E+01 0. -1.
        -11    1    1    2    0    0 -0.16011592374E+02  0.36011681934E+02 -0.10034057669E+02  0.40668103465E+02  0.00000000000E+00 0.  1.
         11    1    1    2    0    0  0.16034263996E+02 -0.17642407458E+02  0.57599906109E+02  0.62338602379E+02  0.00000000000E+00 0. -1.
<mgrwt>
<rscale>  0 0.11650777E+03</rscale>
<asrwt>0</asrwt>
<pdfrwt beam="1">  1        2 0.33775648E-01 0.12634087E+03</pdfrwt>
<pdfrwt beam="2">  1       -2 0.85204913E-02 0.12634087E+03</pdfrwt>
<totfact> 0.12302538E+04</totfact>
</mgrwt>
</event>
<event>
 6    1  0.7800420E-006  0.3228714E+03  0.7546771E-02  0.1124012E+00
         -2   -1    0    0    0  501 -0.00000000000E+00  0.00000000000E+00  0.25247301999E+03  0.25247301999E+03  0.00000000000E+00 0.  1.
          2   -1    0    0  501    0  0.00000000000E+00 -0.00000000000E+00 -0.60367968584E+03  0.60367968584E+03  0.00000000000E+00 0. -1.
          5    1    1    2  502    0 -0.49562254796E+01  0.12031892391E+03 -0.50870704465E+03  0.52278691156E+03  0.47000000000E+01 0. -1.
         -5    1    1    2    0  502  0.29340523240E+02 -0.10332973462E+03 -0.41680514251E+02  0.11531372698E+03  0.47000000000E+01 0.  1.
        -11    1    1    2    0    0 -0.86919347422E+01  0.33640632907E+02  0.95154977170E+02  0.10130010658E+03  0.00000000000E+00 0.  1.
         11    1    1    2    0    0 -0.15692363018E+02 -0.50629822196E+02  0.10402591589E+03  0.11675196071E+03  0.00000000000E+00 0. -1.
<mgrwt>
<rscale>  0 0.23377303E+03</rscale>
<asrwt>0</asrwt>
<pdfrwt beam="2">  1        2 0.92873797E-01 0.32287143E+03</pdfrwt>
<pdfrwt beam="1">  1       -2 0.38842004E-01 0.32287143E+03</pdfrwt>
<totfact> 0.31706228E+02</totfact>
</mgrwt>
</event>
<event>
 7    1  0.7800420E-006  0.1362972E+03  0.7546771E-02  0.1226099E+00
          2   -1    0    0  501    0  0.00000000000E+00  0.00000000000E+00  0.52556871194E+03  0.52556871194E+03  0.00000000000E+00 0. -1.
         -2   -1    0    0    0  501 -0.00000000000E+00 -0.00000000000E+00 -0.32930468542E+02  0.32930468542E+02  0.00000000000E+00 0.  1.
         23    2    1    2    0    0 -0.43979653347E+02 -0.31889342230E+02  0.34344671195E+03  0.36950313894E+03  0.12500314269E+03 0.  0.
          5    1    3    3  502    0  0.18182880515E+02 -0.63596847208E+02  0.17190288660E+03  0.18424947365E+03  0.47000000000E+01 0. -1.
         -5    1    3    3    0  502 -0.62162533863E+02  0.31707504978E+02  0.17154382535E+03  0.18525366529E+03  0.47000000000E+01 0. -1.
        -11    1    1    2    0    0 -0.14211325008E+01  0.47035595433E+02  0.12851639612E+03  0.13686062592E+03  0.00000000000E+00 0. -1.
         11    1    1    2    0    0  0.45400785848E+02 -0.15146253203E+02  0.20675135335E+02  0.52135415629E+02  0.00000000000E+00 0.  1.
<mgrwt>
<rscale>  0 0.13091862E+03</rscale>
<asrwt>0</asrwt>
<pdfrwt beam="1">  1        2 0.80856719E-01 0.13629720E+03</pdfrwt>
<pdfrwt beam="2">  1       -2 0.50662263E-02 0.13629720E+03</pdfrwt>
<totfact> 0.10746271E+04</totfact>
</mgrwt>
</event>
<event>
 7    1  0.7800420E-006  0.1341919E+03  0.7546771E-02  0.1233261E+00
         -1   -1    0    0    0  501 -0.00000000000E+00  0.00000000000E+00  0.53699508958E+02  0.53699508958E+02  0.00000000000E+00 0.  1.
          1   -1    0    0  501    0  0.00000000000E+00 -0.00000000000E+00 -0.30850797003E+03  0.30850797003E+03  0.00000000000E+00 0. -1.
         23    2    1    2    0    0  0.39446088056E+02 -0.28723785104E+02 -0.20765797072E+03  0.24724341490E+03  0.12500569473E+03 0.  0.
          5    1    3    3  502    0 -0.22512020647E+02 -0.39322740300E+02 -0.20871110261E+02  0.50107506642E+02  0.47000000000E+01 0.  1.
         -5    1    3    3    0  502  0.61958108702E+02  0.10598955196E+02 -0.18678686046E+03  0.19713590826E+03  0.47000000000E+01 0.  1.
        -11    1    1    2    0    0 -0.39367830779E+02  0.58567391684E+02 -0.47591538835E+02  0.85117096036E+02  0.00000000000E+00 0. -1.
         11    1    1    2    0    0 -0.78257276856E-01 -0.29843606579E+02  0.44104848776E+00  0.29846968047E+02  0.00000000000E+00 0.  1.
<mgrwt>
<rscale>  0 0.12616449E+03</rscale>
<asrwt>0</asrwt>
<pdfrwt beam="2">  1        1 0.47462764E-01 0.13419193E+03</pdfrwt>
<pdfrwt beam="1">  1       -1 0.82614630E-02 0.13419193E+03</pdfrwt>
<totfact> 0.66034123E+03</totfact>
</mgrwt>
</event>
<event>
 7    1  0.7800420E-006  0.2660614E+03  0.7546771E-02  0.1105950E+00
          2   -1    0    0  501    0  0.00000000000E+00  0.00000000000E+00  0.87221159023E+03  0.87221159023E+03  0.00000000000E+00 0. -1.
         -2   -1    0    0    0  501 -0.00000000000E+00 -0.00000000000E+00 -0.97620065451E+02  0.97620065451E+02  0.00000000000E+00 0.  1.
         23    2    1    2    0    0  0.15499444877E+03 -0.17646506824E+03  0.62270924788E+03  0.67716723227E+03  0.12500181443E+03 0.  0.
          5    1    3    3  502    0  0.12223786582E+03 -0.17336841753E+03  0.40774315417E+03  0.45964690123E+03  0.47000000000E+01 0. -1.
         -5    1    3    3    0  502  0.32756582953E+02 -0.30966507100E+01  0.21496609371E+03  0.21752033104E+03  0.47000000000E+01 0. -1.
        -11    1    1    2    0    0 -0.51267129566E+02  0.12233643516E+03  0.90118027702E+02  0.16036140701E+03  0.00000000000E+00 0. -1.
         11    1    1    2    0    0 -0.10372731921E+03  0.54128633084E+02  0.61764249198E+02  0.13230301640E+03  0.00000000000E+00 0.  1.
<mgrwt>
<rscale>  0 0.26199590E+03</rscale>
<asrwt>0</asrwt>
<pdfrwt beam="1">  1        2 0.13418639E+00 0.26606137E+03</pdfrwt>
<pdfrwt beam="2">  1       -2 0.15018472E-01 0.26606137E+03</pdfrwt>
<totfact> 0.10841601E+03</totfact>
</mgrwt>
</event>
<event>
 7    1  0.7800420E-006  0.2837219E+03  0.7546771E-02  0.1096017E+00
         -2   -1    0    0    0  501 -0.00000000000E+00  0.00000000000E+00  0.35765061929E+03  0.35765061929E+03  0.00000000000E+00 0.  1.
          2   -1    0    0  501    0  0.00000000000E+00 -0.00000000000E+00 -0.40088377973E+03  0.40088377973E+03  0.00000000000E+00 0. -1.
         23    2    1    2    0    0  0.24741985433E+03 -0.60464787252E+02 -0.28232864676E+03  0.40025936973E+03  0.12500209383E+03 0.  0.
          5    1    3    3  502    0  0.14769141146E+03 -0.57340914871E+02 -0.24860090590E+03  0.29483085652E+03  0.47000000000E+01 0.  1.
         -5    1    3    3    0  502  0.99728442867E+02 -0.31238723806E+01 -0.33727740855E+02  0.10542851321E+03  0.47000000000E+01 0.  1.
        -11    1    1    2    0    0 -0.11078571579E+02 -0.58596586524E+01 -0.36447317633E+01  0.13051989020E+02  0.00000000000E+00 0. -1.
         11    1    1    2    0    0 -0.23634128275E+03  0.66324445904E+02  0.24274021808E+03  0.34522304027E+03  0.00000000000E+00 0.  1.
<mgrwt>
<rscale>  0 0.27939929E+03</rscale>
<asrwt>0</asrwt>
<pdfrwt beam="2">  1        2 0.61674427E-01 0.28372187E+03</pdfrwt>
<pdfrwt beam="1">  1       -2 0.55023172E-01 0.28372187E+03</pdfrwt>
<totfact> 0.25361688E+02</totfact>
</mgrwt>
</event>
<event>
 6    1  0.7800420E-006  0.3269114E+03  0.7546771E-02  0.1084138E+00
         -1   -1    0    0    0  501 -0.00000000000E+00  0.00000000000E+00  0.84020076221E+02  0.84020076221E+02  0.00000000000E+00 0.  1.
          1   -1    0    0  501    0  0.00000000000E+00 -0.00000000000E+00 -0.12849787452E+04  0.12849787452E+04  0.00000000000E+00 0. -1.
          5    1    1    2  502    0  0.19418028414E+03 -0.11646469354E+03 -0.75798938198E+03  0.79110049980E+03  0.47000000000E+01 0. -1.
         -5    1    1    2    0  502  0.27270487146E+02  0.94555373495E+02 -0.25703742723E+03  0.27527209652E+03  0.47000000000E+01 0.  1.
        -11    1    1    2    0    0 -0.14671768510E+03  0.60066469415E+01 -0.67324010248E+02  0.16153848236E+03  0.00000000000E+00 0.  1.
         11    1    1    2    0    0 -0.74733086187E+02  0.15902673106E+02 -0.11860784953E+03  0.14108774274E+03  0.00000000000E+00 0. -1.
<mgrwt>
<rscale>  0 0.30221663E+03</rscale>
<asrwt>0</asrwt>
<pdfrwt beam="2">  1        1 0.19768902E+00 0.32691144E+03</pdfrwt>
<pdfrwt beam="1">  1       -1 0.12926167E-01 0.32691144E+03</pdfrwt>
<totfact> 0.40613281E+02</totfact>
</mgrwt>
</event>
<event>
 6    1  0.7800420E-006  0.2374325E+03  0.7546771E-02  0.1136915E+00
         -2   -1    0    0    0  501 -0.00000000000E+00  0.00000000000E+00  0.52548367784E+02  0.52548367784E+02  0.00000000000E+00 0.  1.
          2   -1    0    0  501    0  0.00000000000E+00 -0.00000000000E+00 -0.84922890455E+03  0.84922890455E+03  0.00000000000E+00 0. -1.
          5    1    1    2  502    0  0.90216026684E+02  0.13893438761E+03 -0.57894310497E+03  0.60219507166E+03  0.47000000000E+01 0. -1.
         -5    1    1    2    0  502 -0.38283095968E+02 -0.14860436023E+02 -0.29069516231E+02  0.50532709898E+02  0.47000000000E+01 0.  1.
        -11    1    1    2    0    0 -0.29854637835E+02 -0.12125244629E+02 -0.98444360806E+02  0.10358384590E+03  0.00000000000E+00 0. -1.
         11    1    1    2    0    0 -0.22078292882E+02 -0.11194870696E+03 -0.90223554755E+02  0.14546564488E+03  0.00000000000E+00 0.  1.
<mgrwt>
<rscale>  0 0.21598195E+03</rscale>
<asrwt>0</asrwt>
<pdfrwt beam="2">  1        2 0.13065060E+00 0.23743254E+03</pdfrwt>
<pdfrwt beam="1">  1       -2 0.80843645E-02 0.23743254E+03</pdfrwt>
<totfact> 0.30385793E+03</totfact>
</mgrwt>
</event>
<event>
 7    1  0.7800420E-006  0.1292625E+03  0.7546771E-02  0.1241869E+00
         -2   -1    0    0    0  501 -0.00000000000E+00  0.00000000000E+00  0.16843402308E+03  0.16843402308E+03  0.00000000000E+00 0.  1.
          2   -1    0    0  501    0  0.00000000000E+00 -0.00000000000E+00 -0.79411905375E+02  0.79411905375E+02  0.00000000000E+00 0. -1.
         23    2    1    2    0    0 -0.30022360916E+02  0.13513027253E+02  0.28703509648E+02  0.13241099927E+03  0.12499934880E+03 0.  0.
          5    1    3    3  502    0  0.33644962315E+02  0.43223028428E+02 -0.32783801199E+01  0.55073146377E+02  0.47000000000E+01 0.  1.
         -5    1    3    3    0  502 -0.63667323232E+02 -0.29710001175E+02  0.31981889768E+02  0.77337852895E+02  0.47000000000E+01 0.  1.
        -11    1    1    2    0    0 -0.15766168329E+02  0.15312281779E+01  0.65102069651E+02  0.67001464136E+02  0.00000000000E+00 0.  1.
         11    1    1    2    0    0  0.45788529245E+02 -0.15044255431E+02 -0.47834615926E+01  0.48433465050E+02  0.00000000000E+00 0. -1.
<mgrwt>
<rscale>  0 0.12074727E+03</rscale>
<asrwt>0</asrwt>
<pdfrwt beam="2">  1        2 0.12217216E-01 0.12926245E+03</pdfrwt>
<pdfrwt beam="1">  1       -2 0.25912927E-01 0.12926245E+03</pdfrwt>
<totfact> 0.62912990E+03</totfact>
</mgrwt>
</event>
<event>
 6    1  0.7800420E-006  0.1872576E+03  0.7546771E-02  0.1167506E+00
         -2   -1    0    0    0  501 -0.00000000000E+00  0.00000000000E+00  0.13433653052E+02  0.13433653052E+02  0.00000000000E+00 0.  1.
          2   -1    0    0  501    0  0.00000000000E+00 -0.00000000000E+00 -0.26726284413E+04  0.26726284413E+04  0.00000000000E+00 0. -1.
          5    1    1    2  502    0 -0.54480859059E+02  0.46301814986E+02 -0.16994083024E+04  0.17009181903E+04  0.47000000000E+01 0. -1.
         -5    1    1    2    0  502 -0.43301417697E+02  0.42524626354E+02 -0.24350861851E+03  0.25100178069E+03  0.47000000000E+01 0.  1.
        -11    1    1    2    0    0 -0.11516966509E+02  0.86978320675E+01 -0.69791518604E+02  0.71268147649E+02  0.00000000000E+00 0.  1.
         11    1    1    2    0    0  0.10929924327E+03 -0.97524273408E+02 -0.64648634879E+03  0.66287397570E+03  0.00000000000E+00 0. -1.
<mgrwt>
<rscale>  0 0.18030777E+03</rscale>
<asrwt>0</asrwt>
<pdfrwt beam="2">  1        2 0.41117360E+00 0.18725761E+03</pdfrwt>
<pdfrwt beam="1">  1       -2 0.20667159E-02 0.18725761E+03</pdfrwt>
<totfact> 0.23896759E+03</totfact>
</mgrwt>
</event>
<event>
 7    1  0.1176695E-005  0.1621123E+03  0.7546771E-02  0.1193762E+00
         -1   -1    0    0    0  501 -0.00000000000E+00  0.00000000000E+00  0.72305040848E+02  0.72305040848E+02  0.00000000000E+00 0.  1.
          1   -1    0    0  501    0  0.00000000000E+00 -0.00000000000E+00 -0.32428144448E+03  0.32428144448E+03  0.00000000000E+00 0. -1.
         23    2    1    2    0    0 -0.57282641097E+02  0.85873079657E+02 -0.17656859635E+03  0.23970164338E+03  0.12499968736E+03 0.  0.
          5    1    3    3  502    0 -0.43922973897E+02  0.62700644895E+02 -0.17944922606E+02  0.78769973680E+02  0.47000000000E+01 0. -1.
         -5    1    3    3    0  502 -0.13359667200E+02  0.23172434762E+02 -0.15862367374E+03  0.16093166970E+03  0.47000000000E+01 0. -1.
        -11    1    1    2    0    0  0.19997718594E+02  0.12331511255E+02  0.56952411305E+01  0.24174587698E+02  0.00000000000E+00 0.  1.
         11    1    1    2    0    0  0.37284922503E+02 -0.98204590912E+02 -0.81103048419E+02  0.13271025426E+03  0.00000000000E+00 0. -1.
<mgrwt>
<rscale>  0 0.15559509E+03</rscale>
<asrwt>0</asrwt>
<pdfrwt beam="2">  1        1 0.49889454E-01 0.16211233E+03</pdfrwt>
<pdfrwt beam="1">  1       -1 0.11123852E-01 0.16211233E+03</pdfrwt>
<totfact> 0.39833532E+03</totfact>
</mgrwt>
</event>
<event>
 7    1  0.7800420E-006  0.1756307E+03  0.7546771E-02  0.1177887E+00
         -1   -1    0    0    0  501 -0.00000000000E+00  0.00000000000E+00  0.12719394173E+03  0.12719394173E+03  0.00000000000E+00 0.  1.
          1   -1    0    0  501    0  0.00000000000E+00 -0.00000000000E+00 -0.22542146917E+03  0.22542146917E+03  0.00000000000E+00 0. -1.
         23    2    1    2    0    0  0.10862264011E+03  0.58497959632E+02 -0.92443472218E+02  0.19847404517E+03  0.12500104729E+03 0.  0.
          5    1    3    3  502    0 -0.76472700197E+01 -0.21712353191E+02 -0.42529893339E+02  0.48587949609E+02  0.47000000000E+01 0. -1.
         -5    1    3    3    0  502  0.11626991013E+03  0.80210312823E+02 -0.49913578880E+02  0.14988609556E+03  0.47000000000E+01 0. -1.
        -11    1    1    2    0    0 -0.10195931474E+03 -0.99975243400E+01  0.94156062706E+01  0.10288005636E+03  0.00000000000E+00 0.  1.
         11    1    1    2    0    0 -0.66633253662E+01 -0.48500435292E+02 -0.15199661496E+02  0.51261309367E+02  0.00000000000E+00 0. -1.
<mgrwt>
<rscale>  0 0.16996272E+03</rscale>
<asrwt>0</asrwt>
<pdfrwt beam="2">  1        1 0.34680226E-01 0.17563072E+03</pdfrwt>
<pdfrwt beam="1">  1       -1 0.19568299E-01 0.17563072E+03</pdfrwt>
<totfact> 0.25828778E+03</totfact>
</mgrwt>
</event>
<event>
 7    1  0.7800420E-006  0.2338993E+03  0.7546771E-02  0.1126842E+00
          1   -1    0    0  501    0  0.00000000000E+00  0.00000000000E+00  0.12468433287E+04  0.12468433287E+04  0.00000000000E+00 0. -1.
         -1   -1    0    0    0  501 -0.00000000000E+00 -0.00000000000E+00 -0.40968076697E+02  0.40968076697E+02  0.00000000000E+00 0.  1.
         23    2    1    2    0    0 -0.17282215973E+03  0.96000310860E+02  0.59370037946E+03  0.63811364337E+03  0.12500129083E+03 0.  0.
          5    1    3    3  502    0 -0.77104541414E+02 -0.22546713330E+02  0.17799281244E+03  0.19533815774E+03  0.47000000000E+01 0. -1.
         -5    1    3    3    0  502 -0.95717618320E+02  0.11854702419E+03  0.41570756702E+03  0.44277548563E+03  0.47000000000E+01 0. -1.
        -11    1    1    2    0    0  0.17233312403E+03 -0.61694577567E+02  0.50380339412E+03  0.53602498679E+03  0.00000000000E+00 0. -1.
         11    1    1    2    0    0  0.48903570281E+00 -0.34305733293E+02  0.10837147841E+03  0.11367277522E+03  0.00000000000E+00 0.  1.
<mgrwt>
<rscale>  0 0.22971305E+03</rscale>
<asrwt>0</asrwt>
<pdfrwt beam="1">  1        1 0.19182202E+00 0.23389930E+03</pdfrwt>
<pdfrwt beam="2">  1       -1 0.63027820E-02 0.23389930E+03</pdfrwt>
<totfact> 0.13185998E+03</totfact>
</mgrwt>
</event>
<event>
 7    1  0.7800420E-006  0.1946185E+03  0.7546771E-02  0.1158457E+00
         -2   -1    0    0    0  501 -0.00000000000E+00  0.00000000000E+00  0.71547105401E+02  0.71547105401E+02  0.00000000000E+00 0.  1.
          2   -1    0    0  501    0  0.00000000000E+00 -0.00000000000E+00 -0.58449520420E+03  0.58449520420E+03  0.00000000000E+00 0. -1.
         23    2    1    2    0    0 -0.14739802837E+03 -0.22920851517E+02 -0.40380475791E+03  0.44825733472E+03  0.12499924566E+03 0.  0.
          5    1    3    3  502    0 -0.35913654880E+02  0.44367195630E+02 -0.73501082832E+02  0.93181209653E+02  0.47000000000E+01 0.  1.
         -5    1    3    3    0  502 -0.11148437349E+03 -0.67288047147E+02 -0.33030367508E+03  0.35507612507E+03  0.47000000000E+01 0.  1.
        -11    1    1    2    0    0  0.40208128877E+02 -0.23838477462E+02  0.15367092501E+01  0.46768879726E+02  0.00000000000E+00 0.  1.
         11    1    1    2    0    0  0.10718989950E+03  0.46759328979E+02 -0.11068005014E+03  0.16101609515E+03  0.00000000000E+00 0. -1.
<mgrwt>
<rscale>  0 0.19000531E+03</rscale>
<asrwt>0</asrwt>
<pdfrwt beam="2">  1        2 0.89922340E-01 0.19461849E+03</pdfrwt>
<pdfrwt beam="1">  1       -2 0.11007247E-01 0.19461849E+03</pdfrwt>
<totfact> 0.29236259E+03</totfact>
</mgrwt>
</event>
<event>
 7    1  0.7800420E-006  0.1354103E+03  0.7546771E-02  0.1230091E+00
         -1   -1    0    0    0  501 -0.00000000000E+00  0.00000000000E+00  0.63618449039E+02  0.63618449039E+02  0.00000000000E+00 0.  1.
          1   -1    0    0  501    0  0.00000000000E+00 -0.00000000000E+00 -0.23942950989E+03  0.23942950989E+03  0.00000000000E+00 0. -1.
         23    2    1    2    0    0  0.18701638911E+02  0.48590190390E+02 -0.11862592014E+03  0.18002236167E+03  0.12500073549E+03 0.  0.
          5    1    3    3  502    0 -0.46523205849E+02  0.41603173187E+01 -0.14201358739E+02  0.49045749181E+02  0.47000000000E+01 0.  1.
         -5    1    3    3    0  502  0.65224844761E+02  0.44429873071E+02 -0.10442456140E+03  0.13097661249E+03  0.47000000000E+01 0.  1.
        -11    1    1    2    0    0 -0.41394237283E+02 -0.47240750722E+01 -0.60576848454E+02  0.73521114887E+02  0.00000000000E+00 0. -1.
         11    1    1    2    0    0  0.22692598372E+02 -0.43866115318E+02  0.33917077388E+01  0.49504482376E+02  0.00000000000E+00 0.  1.
<mgrwt>
<rscale>  0 0.12823982E+03</rscale>
<asrwt>0</asrwt>
<pdfrwt beam="2">  1        1 0.36835310E-01 0.13541027E+03</pdfrwt>
<pdfrwt beam="1">  1       -1 0.97874536E-02 0.13541027E+03</pdfrwt>
<totfact> 0.69892433E+03</totfact>
</mgrwt>
</event>
<event>
 7    1  0.7800420E-006  0.1922130E+03  0.7546771E-02  0.1161075E+00
         -1   -1    0    0    0  501 -0.00000000000E+00  0.00000000000E+00  0.26374319876E+03  0.26374319876E+03  0.00000000000E+00 0.  1.
          1   -1    0    0  501    0  0.00000000000E+00 -0.00000000000E+00 -0.12959983431E+03  0.12959983431E+03  0.00000000000E+00 0. -1.
         23    2    1    2    0    0 -0.84211157655E+02  0.11928696166E+03  0.10234727541E+03  0.21776314197E+03  0.12499969168E+03 0.  0.
          5    1    3    3  502    0 -0.66787829825E+02  0.37322535694E+02  0.10935371745E+03  0.13354366853E+03  0.47000000000E+01 0. -1.
         -5    1    3    3    0  502 -0.17423327831E+02  0.81964425969E+02 -0.70064420341E+01  0.84219473443E+02  0.47000000000E+01 0. -1.
        -11    1    1    2    0    0  0.66803842693E+02 -0.35506464879E+02  0.46434206688E+02  0.88767099747E+02  0.00000000000E+00 0.  1.
         11    1    1    2    0    0  0.17407314963E+02 -0.83780496783E+02 -0.14638117656E+02  0.86812791361E+02  0.00000000000E+00 0. -1.
<mgrwt>
<rscale>  0 0.18713092E+03</rscale>
<asrwt>0</asrwt>
<pdfrwt beam="2">  1        1 0.19938436E-01 0.19221296E+03</pdfrwt>
<pdfrwt beam="1">  1       -1 0.40575877E-01 0.19221296E+03</pdfrwt>
<totfact> 0.15278666E+03</totfact>
</mgrwt>
</event>
<event>
 7    1  0.7800420E-006  0.1285155E+03  0.7546771E-02  0.1243542E+00
          2   -1    0    0  501    0  0.00000000000E+00  0.00000000000E+00  0.66172583813E+03  0.66172583813E+03  0.00000000000E+00 0. -1.
         -2   -1    0    0    0  501 -0.00000000000E+00 -0.00000000000E+00 -0.19193184895E+02  0.19193184895E+02  0.00000000000E+00 0.  1.
         23    2    1    2    0    0  0.12522227053E+02 -0.27115667033E+02  0.37424097611E+03  0.39569247026E+03  0.12499662897E+03 0.  0.
          5    1    3    3  502    0  0.62618253346E+02 -0.72174005512E+01  0.11863936490E+03  0.13442665445E+03  0.47000000000E+01 0. -1.
         -5    1    3    3    0  502 -0.50096026292E+02 -0.19898266482E+02  0.25560161121E+03  0.26126581581E+03  0.47000000000E+01 0. -1.
        -11    1    1    2    0    0 -0.39850970332E+02  0.47577464337E+02  0.15720861500E+03  0.16901557200E+03  0.00000000000E+00 0.  1.
         11    1    1    2    0    0  0.27328743278E+02 -0.20461797304E+02  0.11108306213E+03  0.11621098076E+03  0.00000000000E+00 0. -1.
<mgrwt>
<rscale>  0 0.11973077E+03</rscale>
<asrwt>0</asrwt>
<pdfrwt beam="1">  1        2 0.10180396E+00 0.12851546E+03</pdfrwt>
<pdfrwt beam="2">  1       -2 0.29527982E-02 0.12851546E+03</pdfrwt>
<totfact> 0.18354999E+04</totfact>
</mgrwt>
</event>
<event>
 7    1  0.7800420E-006  0.1310711E+03  0.7546771E-02  0.1240701E+00
          3   -1    0    0  501    0  0.00000000000E+00  0.00000000000E+00  0.14642525193E+03  0.14642525193E+03  0.00000000000E+00 0. -1.
         -3   -1    0    0    0  501 -0.00000000000E+00 -0.00000000000E+00 -0.88993025170E+02  0.88993025170E+02  0.00000000000E+00 0.  1.
         23    2    1    2    0    0 -0.90032119749E+01 -0.38379760682E+02  0.24827744607E+02  0.13340181774E+03  0.12500225685E+03 0.  0.
          5    1    3    3  502    0 -0.28388267636E+02  0.31289255027E+02  0.41100423210E+02  0.59129062292E+02  0.47000000000E+01 0. -1.
         -5    1    3    3    0  502  0.19385055661E+02 -0.69669015710E+02 -0.16272678603E+02  0.74272755448E+02  0.47000000000E+01 0. -1.
        -11    1    1    2    0    0 -0.42963306201E+01 -0.15147696797E+02 -0.20232413366E+02  0.25637116173E+02  0.00000000000E+00 0. -1.
         11    1    1    2    0    0  0.13299542595E+02  0.53527457480E+02  0.52836895515E+02  0.76379343183E+02  0.00000000000E+00 0.  1.
<mgrwt>
<rscale>  0 0.12146427E+03</rscale>
<asrwt>0</asrwt>
<pdfrwt beam="1">  1        3 0.22526962E-01 0.13107108E+03</pdfrwt>
<pdfrwt beam="2">  1       -3 0.13691235E-01 0.13107108E+03</pdfrwt>
<totfact> 0.17966913E+03</totfact>
</mgrwt>
</event>
<event>
 7    1  0.7800420E-006  0.1522810E+03  0.7546771E-02  0.1205290E+00
          2   -1    0    0  501    0  0.00000000000E+00  0.00000000000E+00  0.26486846243E+03  0.26486846243E+03  0.00000000000E+00 0. -1.
         -2   -1    0    0    0  501 -0.00000000000E+00 -0.00000000000E+00 -0.12351251608E+03  0.12351251608E+03  0.00000000000E+00 0.  1.
         23    2    1    2    0    0 -0.13356606775E+02 -0.85940975240E+02  0.19592383814E+03  0.24814441958E+03  0.12500100978E+03 0.  0.
          5    1    3    3  502    0 -0.16285701734E+02 -0.66704411212E+02  0.21173219516E+03  0.22263718248E+03  0.47000000000E+01 0. -1.
         -5    1    3    3    0  502  0.29290949589E+01 -0.19236564028E+02 -0.15808357015E+02  0.25507237099E+02  0.47000000000E+01 0. -1.
        -11    1    1    2    0    0 -0.13790121877E+01  0.68550421258E+02 -0.80479397645E+02  0.10572603925E+03  0.00000000000E+00 0.  1.
         11    1    1    2    0    0  0.14735618963E+02  0.17390553981E+02  0.25911505852E+02  0.34510519694E+02  0.00000000000E+00 0. -1.
<mgrwt>
<rscale>  0 0.14614599E+03</rscale>
<asrwt>0</asrwt>
<pdfrwt beam="1">  1        2 0.40748994E-01 0.15228100E+03</pdfrwt>
<pdfrwt beam="2">  1       -2 0.19001926E-01 0.15228100E+03</pdfrwt>
<totfact> 0.28002141E+03</totfact>
</mgrwt>
</event>
<event>
 7    1  0.7800420E-006  0.1533341E+03  0.7546771E-02  0.1204011E+00
          1   -1    0    0  501    0  0.00000000000E+00  0.00000000000E+00  0.98079019915E+02  0.98079019915E+02  0.00000000000E+00 0. -1.
         -1   -1    0    0    0  501 -0.00000000000E+00 -0.00000000000E+00 -0.22172899127E+03  0.22172899127E+03  0.00000000000E+00 0.  1.
         23    2    1    2    0    0  0.70826650717E+02  0.53564142210E+02 -0.22383621697E+02  0.15495922350E+03  0.12500321054E+03 0.  0.
          5    1    3    3  502    0  0.97601910872E+02  0.31513880320E+02  0.14983282921E+02  0.10375859688E+03  0.47000000000E+01 0. -1.
         -5    1    3    3    0  502 -0.26775260155E+02  0.22050261891E+02 -0.37366904618E+02  0.51200626622E+02  0.47000000000E+01 0. -1.
        -11    1    1    2    0    0 -0.33887832430E+02 -0.50753085094E+02 -0.11089004691E+03  0.12657354912E+03  0.00000000000E+00 0.  1.
         11    1    1    2    0    0 -0.36938818287E+02 -0.28110571169E+01  0.96236972506E+01  0.38275238567E+02  0.00000000000E+00 0. -1.
<mgrwt>
<rscale>  0 0.14715663E+03</rscale>
<asrwt>0</asrwt>
<pdfrwt beam="1">  1        1 0.15089080E-01 0.15333406E+03</pdfrwt>
<pdfrwt beam="2">  1       -1 0.34112152E-01 0.15333406E+03</pdfrwt>
<totfact> 0.29378383E+03</totfact>
</mgrwt>
</event>
<event>
 7    1  0.7800420E-006  0.1325077E+03  0.7546771E-02  0.1233963E+00
         -1   -1    0    0    0  501 -0.00000000000E+00  0.00000000000E+00  0.50432575980E+03  0.50432575980E+03  0.00000000000E+00 0.  1.
          1   -1    0    0  501    0  0.00000000000E+00 -0.00000000000E+00 -0.30933384828E+02  0.30933384828E+02  0.00000000000E+00 0. -1.
         23    2    1    2    0    0 -0.57848852846E+02 -0.43763905113E+01  0.18517221325E+03  0.22769945719E+03  0.11913291600E+03 0.  0.
          5    1    3    3  502    0 -0.67652093517E+02 -0.42641976226E+02  0.16427113109E+03  0.18276279272E+03  0.47000000000E+01 0. -1.
         -5    1    3    3    0  502  0.98032406713E+01  0.38265585715E+02  0.20901082158E+02  0.44936664464E+02  0.47000000000E+01 0.  1.
        -11    1    1    2    0    0  0.39700777196E+02 -0.33826319951E+02  0.83006042942E+02  0.98032519075E+02  0.00000000000E+00 0. -1.
         11    1    1    2    0    0  0.18148075650E+02  0.38202710463E+02  0.20521411878E+03  0.20952716837E+03  0.00000000000E+00 0.  1.
<mgrwt>
<rscale>  0 0.12571072E+03</rscale>
<asrwt>0</asrwt>
<pdfrwt beam="2">  1        1 0.47589826E-02 0.13250771E+03</pdfrwt>
<pdfrwt beam="1">  1       -1 0.77588573E-01 0.13250771E+03</pdfrwt>
<totfact> 0.29838343E+03</totfact>
</mgrwt>
</event>
<event>
 7    1  0.7800420E-006  0.1434586E+03  0.7546771E-02  0.1219222E+00
         -2   -1    0    0    0  501 -0.00000000000E+00  0.00000000000E+00  0.10089056827E+02  0.10089056827E+02  0.00000000000E+00 0.  1.
          2   -1    0    0  501    0  0.00000000000E+00 -0.00000000000E+00 -0.18274457968E+04  0.18274457968E+04  0.00000000000E+00 0. -1.
         23    2    1    2    0    0 -0.36600157258E+02 -0.60123397289E+02 -0.12812744864E+04  0.12892806811E+04  0.12500388336E+03 0.  0.
          5    1    3    3  502    0 -0.77131724022E+02 -0.47023818932E+02 -0.10628162930E+04  0.10666588513E+04  0.47000000000E+01 0. -1.
         -5    1    3    3    0  502  0.40531566764E+02 -0.13099578357E+02 -0.21845819341E+03  0.22262182985E+03  0.47000000000E+01 0. -1.
        -11    1    1    2    0    0  0.86219904763E+01 -0.23159313032E+02 -0.77937852857E+02  0.81761857904E+02  0.00000000000E+00 0.  1.
         11    1    1    2    0    0  0.27978166782E+02  0.83282710321E+02 -0.45814440072E+03  0.46649231459E+03  0.00000000000E+00 0. -1.
<mgrwt>
<rscale>  0 0.13570951E+03</rscale>
<asrwt>0</asrwt>
<pdfrwt beam="2">  1        2 0.28114578E+00 0.14345858E+03</pdfrwt>
<pdfrwt beam="1">  1       -2 0.15521611E-02 0.14345858E+03</pdfrwt>
<totfact> 0.10088699E+04</totfact>
</mgrwt>
</event>
<event>
 6    1  0.7800420E-006  0.1672234E+03  0.7546771E-02  0.1205009E+00
          2   -1    0    0  501    0  0.00000000000E+00  0.00000000000E+00  0.60341743023E+02  0.60341743023E+02  0.00000000000E+00 0. -1.
         -2   -1    0    0    0  501 -0.00000000000E+00 -0.00000000000E+00 -0.31089220721E+03  0.31089220721E+03  0.00000000000E+00 0.  1.
          5    1    1    2  502    0 -0.39549150796E+02 -0.69616401457E+02  0.46627867847E+01  0.80339344415E+02  0.47000000000E+01 0. -1.
         -5    1    1    2    0  502 -0.40838941070E+01  0.32254833338E+02 -0.11599012079E+03  0.12055227325E+03  0.47000000000E+01 0.  1.
        -11    1    1    2    0    0  0.54117493682E+02  0.53209817268E+02 -0.12634440070E+03  0.14738689007E+03  0.00000000000E+00 0. -1.
         11    1    1    2    0    0 -0.10484448779E+02 -0.15848249149E+02 -0.12878729483E+02  0.22955442500E+02  0.00000000000E+00 0.  1.
<mgrwt>
<rscale>  0 0.14636776E+03</rscale>
<asrwt>0</asrwt>
<pdfrwt beam="1">  1        2 0.92833451E-02 0.16722340E+03</pdfrwt>
<pdfrwt beam="2">  1       -2 0.47829570E-01 0.16722340E+03</pdfrwt>
<totfact> 0.28703979E+03</totfact>
</mgrwt>
</event>
<event>
 7    1  0.7800420E-006  0.1672006E+03  0.7546771E-02  0.1187649E+00
         -2   -1    0    0    0  501 -0.00000000000E+00  0.00000000000E+00  0.38097112843E+02  0.38097112843E+02  0.00000000000E+00 0.  1.
          2   -1    0    0  501    0  0.00000000000E+00 -0.00000000000E+00 -0.65491109854E+03  0.65491109854E+03  0.00000000000E+00 0. -1.
         23    2    1    2    0    0  0.79047241651E+02 -0.77990107371E+02 -0.39366196397E+03  0.42769825182E+03  0.12500051791E+03 0.  0.
          5    1    3    3  502    0  0.87000123107E+02 -0.26908432512E+02 -0.12888895452E+03  0.15788457099E+03  0.47000000000E+01 0.  1.
         -5    1    3    3    0  502 -0.79528814563E+01 -0.51081674859E+02 -0.26477300945E+03  0.26981368083E+03  0.47000000000E+01 0.  1.
        -11    1    1    2    0    0 -0.54143576080E+02  0.33331869747E+02 -0.39913353591E+02  0.75070741081E+02  0.00000000000E+00 0.  1.
         11    1    1    2    0    0 -0.24903665571E+02  0.44658237624E+02 -0.18323866813E+03  0.19023921848E+03  0.00000000000E+00 0. -1.
<mgrwt>
<rscale>  0 0.16093193E+03</rscale>
<asrwt>0</asrwt>
<pdfrwt beam="2">  1        2 0.10075555E+00 0.16720064E+03</pdfrwt>
<pdfrwt beam="1">  1       -2 0.58610943E-02 0.16720064E+03</pdfrwt>
<totfact> 0.67939940E+03</totfact>
</mgrwt>
</event>
<event>
 7    1  0.7800420E-006  0.1539568E+03  0.7546771E-02  0.1203125E+00
          2   -1    0    0  501    0  0.00000000000E+00  0.00000000000E+00  0.13915805795E+03  0.13915805795E+03  0.00000000000E+00 0. -1.
         -2   -1    0    0    0  501 -0.00000000000E+00 -0.00000000000E+00 -0.16589867124E+03  0.16589867124E+03  0.00000000000E+00 0.  1.
         23    2    1    2    0    0  0.40102095343E+01 -0.89776106272E+02  0.38535403657E+02  0.15870629767E+03  0.12500752196E+03 0.  0.
          5    1    3    3  502    0  0.55325470882E+02 -0.68670058090E+02  0.50530172227E+02  0.10174415419E+03  0.47000000000E+01 0.  1.
         -5    1    3    3    0  502 -0.51315261347E+02 -0.21106048182E+02 -0.11994768571E+02  0.56962143482E+02  0.47000000000E+01 0.  1.
        -11    1    1    2    0    0  0.25842416705E+02  0.74890565089E+02 -0.77496124329E+02  0.11082453035E+03  0.00000000000E+00 0.  1.
         11    1    1    2    0    0 -0.29852626239E+02  0.14885541184E+02  0.12220107376E+02  0.35525901171E+02  0.00000000000E+00 0. -1.
<mgrwt>
<rscale>  0 0.14786180E+03</rscale>
<asrwt>0</asrwt>
<pdfrwt beam="1">  1        2 0.21408932E-01 0.15395685E+03</pdfrwt>
<pdfrwt beam="2">  1       -2 0.25522872E-01 0.15395685E+03</pdfrwt>
<totfact> 0.34051118E+03</totfact>
</mgrwt>
</event>
<event>
 6    1  0.7800420E-006  0.1579518E+03  0.7546771E-02  0.1205227E+00
         -1   -1    0    0    0  501 -0.00000000000E+00  0.00000000000E+00  0.76795584069E+02  0.76795584069E+02  0.00000000000E+00 0.  1.
          1   -1    0    0  501    0  0.00000000000E+00 -0.00000000000E+00 -0.24923504966E+03  0.24923504966E+03  0.00000000000E+00 0. -1.
          5    1    1    2  502    0  0.53789937019E+02 -0.61665895687E+02 -0.23512512481E+02  0.85269972784E+02  0.47000000000E+01 0. -1.
         -5    1    1    2    0  502 -0.57020413184E+02 -0.92812566967E+01 -0.98623378962E+02  0.11439462454E+03  0.47000000000E+01 0.  1.
        -11    1    1    2    0    0  0.31405870134E+02  0.60811441722E+02 -0.63758600411E+02  0.93538864915E+02  0.00000000000E+00 0. -1.
         11    1    1    2    0    0 -0.28175393970E+02  0.10135710662E+02  0.13455026267E+02  0.32827171487E+02  0.00000000000E+00 0.  1.
<mgrwt>
<rscale>  0 0.14619583E+03</rscale>
<asrwt>0</asrwt>
<pdfrwt beam="2">  1        1 0.38343855E-01 0.15795181E+03</pdfrwt>
<pdfrwt beam="1">  1       -1 0.11814705E-01 0.15795181E+03</pdfrwt>
<totfact> 0.50280686E+03</totfact>
</mgrwt>
</event>
<event>
 7    1  0.7800420E-006  0.1568668E+03  0.7546771E-02  0.1200426E+00
          1   -1    0    0  501    0  0.00000000000E+00  0.00000000000E+00  0.12002752976E+03  0.12002752976E+03  0.00000000000E+00 0. -1.
         -1   -1    0    0    0  501 -0.00000000000E+00 -0.00000000000E+00 -0.21495507502E+03  0.21495507502E+03  0.00000000000E+00 0.  1.
         23    2    1    2    0    0 -0.94004361257E+02 -0.12286617367E+02  0.22957890949E+02  0.15853782958E+03  0.12497758898E+03 0.  0.
          5    1    3    3  502    0 -0.80445852901E+02 -0.23975225775E+02 -0.39864170671E+02  0.93046164903E+02  0.47000000000E+01 0. -1.
         -5    1    3    3    0  502 -0.13558508356E+02  0.11688608408E+02  0.62822061620E+02  0.65491664672E+02  0.47000000000E+01 0. -1.
        -11    1    1    2    0    0  0.77319007579E+02  0.43461318888E+02 -0.55189432401E+02  0.10446525078E+03  0.00000000000E+00 0. -1.
         11    1    1    2    0    0  0.16685353678E+02 -0.31174701522E+02 -0.62696003804E+02  0.71979524417E+02  0.00000000000E+00 0.  1.
<mgrwt>
<rscale>  0 0.15003827E+03</rscale>
<asrwt>0</asrwt>
<pdfrwt beam="1">  1        1 0.18465774E-01 0.15686675E+03</pdfrwt>
<pdfrwt beam="2">  1       -1 0.33070011E-01 0.15686675E+03</pdfrwt>
<totfact> 0.23896611E+03</totfact>
</mgrwt>
</event>
<event>
 6    1  0.7800420E-006  0.3983684E+03  0.7546771E-02  0.1069049E+00
         -2   -1    0    0    0  501 -0.00000000000E+00  0.00000000000E+00  0.62834442955E+02  0.62834442955E+02  0.00000000000E+00 0.  1.
          2   -1    0    0  501    0  0.00000000000E+00 -0.00000000000E+00 -0.21791009453E+04  0.21791009453E+04  0.00000000000E+00 0. -1.
          5    1    1    2  502    0  0.11833569618E+03 -0.18149962407E+03 -0.18626960404E+04  0.18752610697E+04  0.47000000000E+01 0. -1.
         -5    1    1    2    0  502  0.13617069003E+02  0.64627445371E+02 -0.63650605963E+02  0.91845636275E+02  0.47000000000E+01 0.  1.
        -11    1    1    2    0    0 -0.14127550450E+03  0.84071266871E+02 -0.15316386404E+03  0.22469071039E+03  0.00000000000E+00 0.  1.
         11    1    1    2    0    0  0.93227393157E+01  0.32800911829E+02 -0.36755991970E+02  0.50137971946E+02  0.00000000000E+00 0. -1.
<mgrwt>
<rscale>  0 0.33476113E+03</rscale>
<asrwt>0</asrwt>
<pdfrwt beam="2">  1        2 0.33524625E+00 0.39836841E+03</pdfrwt>
<pdfrwt beam="1">  1       -2 0.96668387E-02 0.39836841E+03</pdfrwt>
<totfact> 0.41032535E+02</totfact>
</mgrwt>
</event>
<event>
 6    1  0.7800420E-006  0.3049731E+03  0.7546771E-02  0.1128662E+00
          2   -1    0    0  501    0  0.00000000000E+00  0.00000000000E+00  0.23846182267E+03  0.23846182267E+03  0.00000000000E+00 0. -1.
         -2   -1    0    0    0  501 -0.00000000000E+00 -0.00000000000E+00 -0.18503875533E+03  0.18503875533E+03  0.00000000000E+00 0.  1.
          5    1    1    2  502    0 -0.13891432190E+03  0.23438547458E+02  0.89431709687E+02  0.16693314540E+03  0.47000000000E+01 0. -1.
         -5    1    1    2    0  502  0.14688061287E+03 -0.42235912766E+02  0.75591680035E+01  0.15309153401E+03  0.47000000000E+01 0.  1.
        -11    1    1    2    0    0 -0.30973481363E+02 -0.25799904160E+02 -0.33225433577E+02  0.52239075784E+02  0.00000000000E+00 0.  1.
         11    1    1    2    0    0  0.23007190392E+02  0.44597269468E+02 -0.10342376770E+02  0.51236822803E+02  0.00000000000E+00 0. -1.
<mgrwt>
<rscale>  0 0.22714992E+03</rscale>
<asrwt>0</asrwt>
<pdfrwt beam="1">  1        2 0.36686434E-01 0.30497306E+03</pdfrwt>
<pdfrwt beam="2">  1       -2 0.28467501E-01 0.30497306E+03</pdfrwt>
<totfact> 0.15825377E+03</totfact>
</mgrwt>
</event>
<event>
 7    1  0.7800420E-006  0.2873770E+03  0.7546771E-02  0.1093404E+00
         -1   -1    0    0    0  501 -0.00000000000E+00  0.00000000000E+00  0.26098709001E+02  0.26098709001E+02  0.00000000000E+00 0.  1.
          1   -1    0    0  501    0  0.00000000000E+00 -0.00000000000E+00 -0.30390408199E+04  0.30390408199E+04  0.00000000000E+00 0. -1.
         23    2    1    2    0    0 -0.94889112193E+02  0.24345470545E+03 -0.16265409397E+04  0.16517327224E+04  0.11963034958E+03 0.  0.
          5    1    3    3  502    0  0.19752663635E+02  0.70233202798E+02 -0.59498606365E+03  0.59946090484E+03  0.47000000000E+01 0. -1.
         -5    1    3    3    0  502 -0.11464177583E+03  0.17322150265E+03 -0.10315548760E+04  0.10522718175E+04  0.47000000000E+01 0.  1.
        -11    1    1    2    0    0  0.12022687407E+02 -0.52099062755E+02 -0.14356892202E+03  0.15320213028E+03  0.00000000000E+00 0.  1.
         11    1    1    2    0    0  0.82866424787E+02 -0.19135564269E+03 -0.12428322492E+04  0.12602046762E+04  0.00000000000E+00 0. -1.
<mgrwt>
<rscale>  0 0.28422474E+03</rscale>
<asrwt>0</asrwt>
<pdfrwt beam="2">  1        1 0.46754465E+00 0.28737703E+03</pdfrwt>
<pdfrwt beam="1">  1       -1 0.40151868E-02 0.28737703E+03</pdfrwt>
<totfact> 0.16536813E+02</totfact>
</mgrwt>
</event>
<event>
 7    1  0.7800420E-006  0.1368889E+03  0.7546771E-02  0.1223878E+00
         -2   -1    0    0    0  501 -0.00000000000E+00  0.00000000000E+00  0.14321784080E+03  0.14321784080E+03  0.00000000000E+00 0.  1.
          2   -1    0    0  501    0  0.00000000000E+00 -0.00000000000E+00 -0.12778719374E+03  0.12778719374E+03  0.00000000000E+00 0. -1.
         23    2    1    2    0    0 -0.45768086410E+02 -0.31906127773E+02 -0.34359317599E+02  0.14113518412E+03  0.12500343503E+03 0.  0.
          5    1    3    3  502    0  0.22044143069E+02 -0.51643038392E+02 -0.41518724275E+02  0.69991728965E+02  0.47000000000E+01 0. -1.
         -5    1    3    3    0  502 -0.67812229480E+02  0.19736910620E+02  0.71594066765E+01  0.71143455158E+02  0.47000000000E+01 0. -1.
        -11    1    1    2    0    0  0.28699918216E+02  0.57702398250E+01  0.80757366966E+02  0.85899553506E+02  0.00000000000E+00 0.  1.
         11    1    1    2    0    0  0.17068168195E+02  0.26135887947E+02 -0.30967402305E+02  0.43970296904E+02  0.00000000000E+00 0. -1.
<mgrwt>
<rscale>  0 0.13244118E+03</rscale>
<asrwt>0</asrwt>
<pdfrwt beam="2">  1        2 0.19659568E-01 0.13688892E+03</pdfrwt>
<pdfrwt beam="1">  1       -2 0.22033514E-01 0.13688892E+03</pdfrwt>
<totfact> 0.48061325E+03</totfact>
</mgrwt>
</event>
<event>
 7    1  0.7800420E-006  0.1362717E+03  0.7546771E-02  0.1229486E+00
         -3   -1    0    0    0  501 -0.00000000000E+00  0.00000000000E+00  0.70348835087E+02  0.70348835087E+02  0.00000000000E+00 0. -1.
          3   -1    0    0  501    0  0.00000000000E+00 -0.00000000000E+00 -0.21251970366E+03  0.21251970366E+03  0.00000000000E+00 0.  1.
         23    2    1    2    0    0 -0.54170924776E+02 -0.29901847439E+01 -0.82160536146E+02  0.15912360638E+03  0.12500615229E+03 0.  0.
          5    1    3    3  502    0 -0.94445419634E+02 -0.43649697843E+01 -0.48268258265E+02  0.10625867027E+03  0.47000000000E+01 0. -1.
         -5    1    3    3    0  502  0.40274494858E+02  0.13747850404E+01 -0.33892277881E+02  0.52864936110E+02  0.47000000000E+01 0. -1.
        -11    1    1    2    0    0  0.47696446462E+02 -0.35993958204E+02 -0.59352477702E+02  0.84221331275E+02  0.00000000000E+00 0.  1.
         11    1    1    2    0    0  0.64744783138E+01  0.38984142948E+02 -0.65785472643E+00  0.39523601097E+02  0.00000000000E+00 0. -1.
<mgrwt>
<rscale>  0 0.12864149E+03</rscale>
<asrwt>0</asrwt>
<pdfrwt beam="2">  1        3 0.32695339E-01 0.13627167E+03</pdfrwt>
<pdfrwt beam="1">  1       -3 0.10822898E-01 0.13627167E+03</pdfrwt>
<totfact> 0.13595044E+03</totfact>
</mgrwt>
</event>
<event>
 6    1  0.7800420E-006  0.1924301E+03  0.7546771E-02  0.1164562E+00
         -1   -1    0    0    0  501 -0.00000000000E+00  0.00000000000E+00  0.35043903228E+02  0.35043903228E+02  0.00000000000E+00 0.  1.
          1   -1    0    0  501    0  0.00000000000E+00 -0.00000000000E+00 -0.22383734276E+04  0.22383734276E+04  0.00000000000E+00 0. -1.
          5    1    1    2  502    0 -0.79145148771E+02 -0.25097137504E+02 -0.18444760127E+04  0.18463498239E+04  0.47000000000E+01 0. -1.
         -5    1    1    2    0  502 -0.34529028012E+02 -0.38514735080E+02 -0.18271717035E+03  0.18995602895E+03  0.47000000000E+01 0.  1.
        -11    1    1    2    0    0 -0.10640326653E+02  0.25925349215E+02 -0.22646173987E+02  0.36030396605E+02  0.00000000000E+00 0. -1.
         11    1    1    2    0    0  0.12431450344E+03  0.37686523369E+02 -0.15349016734E+03  0.20108108135E+03  0.00000000000E+00 0.  1.
<mgrwt>
<rscale>  0 0.18338976E+03</rscale>
<asrwt>0</asrwt>
<pdfrwt beam="2">  1        1 0.34436510E+00 0.19243005E+03</pdfrwt>
<pdfrwt beam="1">  1       -1 0.53913704E-02 0.19243005E+03</pdfrwt>
<totfact> 0.37680156E+02</totfact>
</mgrwt>
</event>
<event>
 7    1  0.7800420E-006  0.1328748E+03  0.7546771E-02  0.1236518E+00
         -1   -1    0    0    0  501 -0.00000000000E+00  0.00000000000E+00  0.13211919713E+03  0.13211919713E+03  0.00000000000E+00 0.  1.
          1   -1    0    0  501    0  0.00000000000E+00 -0.00000000000E+00 -0.10364888622E+03  0.10364888622E+03  0.00000000000E+00 0. -1.
         23    2    1    2    0    0 -0.43041816079E+02  0.13371121063E+02  0.12135010576E+02  0.13342773695E+03  0.12499727075E+03 0.  0.
          5    1    3    3  502    0 -0.69214755911E+02  0.50680139264E+02  0.16214218451E+02  0.87430828840E+02  0.47000000000E+01 0.  1.
         -5    1    3    3    0  502  0.26172939832E+02 -0.37309018201E+02 -0.40792078756E+01  0.45996908108E+02  0.47000000000E+01 0.  1.
        -11    1    1    2    0    0  0.18925104857E+02  0.18138297933E+02  0.45899810886E+02  0.52857828986E+02  0.00000000000E+00 0.  1.
         11    1    1    2    0    0  0.24116711222E+02 -0.31509418996E+02 -0.29564510555E+02  0.49482517417E+02  0.00000000000E+00 0. -1.
<mgrwt>
<rscale>  0 0.12407737E+03</rscale>
<asrwt>0</asrwt>
<pdfrwt beam="2">  1        1 0.15945983E-01 0.13287476E+03</pdfrwt>
<pdfrwt beam="1">  1       -1 0.20326030E-01 0.13287476E+03</pdfrwt>
<totfact> 0.63959843E+03</totfact>
</mgrwt>
</event>
<event>
 7    1  0.7800420E-006  0.1419494E+03  0.7546771E-02  0.1220993E+00
         -2   -1    0    0    0  501 -0.00000000000E+00  0.00000000000E+00  0.70789473277E+02  0.70789473277E+02  0.00000000000E+00 0.  1.
          2   -1    0    0  501    0  0.00000000000E+00 -0.00000000000E+00 -0.52184758124E+03  0.52184758124E+03  0.00000000000E+00 0. -1.
         23    2    1    2    0    0  0.64995299816E+02  0.17303678221E+02 -0.45668728322E+03  0.47823939421E+03  0.12500334892E+03 0.  0.
          5    1    3    3  502    0  0.63774861167E+02  0.37152502518E+02 -0.12018471189E+03  0.14111695976E+03  0.47000000000E+01 0. -1.
         -5    1    3    3    0  502  0.12204386490E+01 -0.19848824297E+02 -0.33650257132E+03  0.33712243444E+03  0.47000000000E+01 0. -1.
        -11    1    1    2    0    0  0.14800921880E+02 -0.71353646519E+01 -0.23646305878E+02  0.28794591487E+02  0.00000000000E+00 0. -1.
         11    1    1    2    0    0 -0.79796221696E+02 -0.10168313569E+02  0.29275481127E+02  0.85603068829E+02  0.00000000000E+00 0.  1.
<mgrwt>
<rscale>  0 0.13445376E+03</rscale>
<asrwt>0</asrwt>
<pdfrwt beam="2">  1        2 0.80284244E-01 0.14194944E+03</pdfrwt>
<pdfrwt beam="1">  1       -2 0.10890688E-01 0.14194944E+03</pdfrwt>
<totfact> 0.33416979E+03</totfact>
</mgrwt>
</event>
<event>
 7    1  0.7800420E-006  0.1433490E+03  0.7546771E-02  0.1219907E+00
          1   -1    0    0  501    0  0.00000000000E+00  0.00000000000E+00  0.98944904720E+03  0.98944904720E+03  0.00000000000E+00 0.  1.
         -1   -1    0    0    0  501 -0.00000000000E+00 -0.00000000000E+00 -0.20428037508E+02  0.20428037508E+02  0.00000000000E+00 0. -1.
         23    2    1    2    0    0  0.58418574941E+02  0.38889969734E+02  0.74586307491E+03  0.75951344457E+03  0.12499514521E+03 0.  0.
          5    1    3    3  502    0  0.64458156213E+02 -0.82146491907E+01  0.64099676912E+03  0.64429906284E+03  0.47000000000E+01 0. -1.
         -5    1    3    3    0  502 -0.60395812723E+01  0.47104618925E+02  0.10486630579E+03  0.11521438172E+03  0.47000000000E+01 0. -1.
        -11    1    1    2    0    0 -0.19691693787E+02  0.29025462461E+02  0.61686213347E+02  0.70960758116E+02  0.00000000000E+00 0.  1.
         11    1    1    2    0    0 -0.38726881153E+02 -0.67915432195E+02  0.16147172143E+03  0.17940288202E+03  0.00000000000E+00 0. -1.
<mgrwt>
<rscale>  0 0.13522159E+03</rscale>
<asrwt>0</asrwt>
<pdfrwt beam="1">  1        1 0.15222289E+00 0.14334904E+03</pdfrwt>
<pdfrwt beam="2">  1       -1 0.31427758E-02 0.14334904E+03</pdfrwt>
<totfact> 0.55984543E+03</totfact>
</mgrwt>
</event>
<event>
 7    1  0.7800420E-006  0.1642846E+03  0.7546771E-02  0.1191088E+00
         -2   -1    0    0    0  501 -0.00000000000E+00  0.00000000000E+00  0.28942835153E+02  0.28942835153E+02  0.00000000000E+00 0.  1.
          2   -1    0    0  501    0  0.00000000000E+00 -0.00000000000E+00 -0.10147452928E+04  0.10147452928E+04  0.00000000000E+00 0. -1.
         23    2    1    2    0    0 -0.55011197130E+01 -0.10646551016E+03 -0.76269640199E+03  0.78018922212E+03  0.12499701407E+03 0.  0.
          5    1    3    3  502    0 -0.38495127114E+02 -0.49430387030E+02 -0.61731270426E+03  0.62050165416E+03  0.47000000000E+01 0. -1.
         -5    1    3    3    0  502  0.32994007401E+02 -0.57035123131E+02 -0.14538369774E+03  0.15968756796E+03  0.47000000000E+01 0. -1.
        -11    1    1    2    0    0 -0.27721365278E+02  0.99411325752E+02 -0.14176619625E+03  0.17535318697E+03  0.00000000000E+00 0.  1.
         11    1    1    2    0    0  0.33222484991E+02  0.70541844090E+01 -0.81339859435E+02  0.88145718895E+02  0.00000000000E+00 0. -1.
<mgrwt>
<rscale>  0 0.15790021E+03</rscale>
<asrwt>0</asrwt>
<pdfrwt beam="2">  1        2 0.15611466E+00 0.16428457E+03</pdfrwt>
<pdfrwt beam="1">  1       -2 0.44527440E-02 0.16428457E+03</pdfrwt>
<totfact> 0.58940000E+03</totfact>
</mgrwt>
</event>
<event>
 6    1  0.7800420E-006  0.3029189E+03  0.7546771E-02  0.1083790E+00
         -1   -1    0    0    0  501 -0.00000000000E+00  0.00000000000E+00  0.18027072922E+02  0.18027072922E+02  0.00000000000E+00 0.  1.
          1   -1    0    0  501    0  0.00000000000E+00 -0.00000000000E+00 -0.12725289567E+04  0.12725289567E+04  0.00000000000E+00 0. -1.
          5    1    1    2  502    0  0.98456537405E+02 -0.71491047280E+02 -0.66915758288E+03  0.68014602868E+03  0.47000000000E+01 0. -1.
         -5    1    1    2    0  502 -0.43700846940E+01  0.33267951022E+02 -0.80640732638E+02  0.87469262978E+02  0.47000000000E+01 0.  1.
        -11    1    1    2    0    0 -0.51866913344E+02  0.66964338230E+02 -0.34623163804E+03  0.35644178554E+03  0.00000000000E+00 0.  1.
         11    1    1    2    0    0 -0.42219539368E+02 -0.28741241972E+02 -0.15847193024E+03  0.16649895245E+03  0.00000000000E+00 0. -1.
<mgrwt>
<rscale>  0 0.30291895E+03</rscale>
<asrwt>0</asrwt>
<pdfrwt beam="2">  1        1 0.19577373E+00 0.30291895E+03</pdfrwt>
<pdfrwt beam="1">  1       -1 0.27733951E-02 0.30291895E+03</pdfrwt>
<totfact> 0.43260807E+03</totfact>
</mgrwt>
</event>
<event>
 7    1  0.7800420E-006  0.1273484E+03  0.7546771E-02  0.1247188E+00
         -1   -1    0    0    0  501 -0.00000000000E+00  0.00000000000E+00  0.22520720849E+03  0.22520720849E+03  0.00000000000E+00 0. -1.
          1   -1    0    0  501    0  0.00000000000E+00 -0.00000000000E+00 -0.53662704439E+02  0.53662704439E+02  0.00000000000E+00 0.  1.
         23    2    1    2    0    0  0.13536961903E+02  0.20192347484E+02  0.96295399168E+02  0.15965718089E+03  0.12500652493E+03 0.  0.
          5    1    3    3  502    0  0.51762724194E+00 -0.46171852127E+01 -0.29736974533E+02  0.30462501402E+02  0.47000000000E+01 0.  1.
         -5    1    3    3    0  502  0.13019334661E+02  0.24809532697E+02  0.12603237370E+03  0.12919467949E+03  0.47000000000E+01 0.  1.
        -11    1    1    2    0    0 -0.21427726945E+02 -0.39879298121E+02  0.84663801659E+02  0.96007631009E+02  0.00000000000E+00 0. -1.
         11    1    1    2    0    0  0.78907650426E+01  0.19686950636E+02 -0.94146967770E+01  0.23205101028E+02  0.00000000000E+00 0.  1.
<mgrwt>
<rscale>  0 0.11755364E+03</rscale>
<asrwt>0</asrwt>
<pdfrwt beam="2">  1        1 0.82558008E-02 0.12734839E+03</pdfrwt>
<pdfrwt beam="1">  1       -1 0.34647262E-01 0.12734839E+03</pdfrwt>
<totfact> 0.62636009E+03</totfact>
</mgrwt>
</event>
<event>
 7    1  0.7800420E-006  0.1258664E+03  0.7546771E-02  0.1248659E+00
          2   -1    0    0  501    0  0.00000000000E+00  0.00000000000E+00  0.77294576944E+03  0.77294576944E+03  0.00000000000E+00 0.  1.
         -2   -1    0    0    0  501 -0.00000000000E+00 -0.00000000000E+00 -0.17822899633E+02  0.17822899633E+02  0.00000000000E+00 0. -1.
         23    2    1    2    0    0 -0.16828246023E+01 -0.14633148891E+02  0.56847037496E+03  0.58223784596E+03  0.12500152445E+03 0.  0.
          5    1    3    3  502    0  0.37086087254E+02  0.19382465554E+02  0.46121519576E+03  0.46313346309E+03  0.47000000000E+01 0. -1.
         -5    1    3    3    0  502 -0.38768911856E+02 -0.34015614444E+02  0.10725517921E+03  0.11910438287E+03  0.47000000000E+01 0. -1.
        -11    1    1    2    0    0 -0.19001350198E+02  0.36440194899E+02  0.35157864368E+02  0.54083403559E+02  0.00000000000E+00 0. -1.
         11    1    1    2    0    0  0.20684174801E+02 -0.21807046008E+02  0.15149463047E+03  0.15444741955E+03  0.00000000000E+00 0.  1.
<mgrwt>
<rscale>  0 0.11669006E+03</rscale>
<asrwt>0</asrwt>
<pdfrwt beam="1">  1        2 0.11891471E+00 0.12586637E+03</pdfrwt>
<pdfrwt beam="2">  1       -2 0.27419852E-02 0.12586637E+03</pdfrwt>
<totfact> 0.16969532E+04</totfact>
</mgrwt>
</event>
<event>
 7    1  0.7800420E-006  0.1360306E+03  0.7546771E-02  0.1222346E+00
         -2   -1    0    0    0  501 -0.00000000000E+00  0.00000000000E+00  0.55748580326E+02  0.55748580326E+02  0.00000000000E+00 0.  1.
          2   -1    0    0  501    0  0.00000000000E+00 -0.00000000000E+00 -0.30846174633E+03  0.30846174633E+03  0.00000000000E+00 0. -1.
         23    2    1    2    0    0  0.45804196717E+02  0.27937835613E+02 -0.13404643436E+03  0.19097844246E+03  0.12500308727E+03 0.  0.
          5    1    3    3  502    0  0.71838693013E+02  0.31819500412E+02 -0.14262060429E+03  0.16289875748E+03  0.47000000000E+01 0.  1.
         -5    1    3    3    0  502 -0.26034496296E+02 -0.38816647989E+01  0.85741699292E+01  0.28079684987E+02  0.47000000000E+01 0.  1.
        -11    1    1    2    0    0  0.27733277494E+02  0.20864363210E+02 -0.17141926969E+02  0.38707906078E+02  0.00000000000E+00 0.  1.
         11    1    1    2    0    0 -0.73537474211E+02 -0.48802198824E+02 -0.10152480468E+03  0.13452397812E+03  0.00000000000E+00 0. -1.
<mgrwt>
<rscale>  0 0.13350448E+03</rscale>
<asrwt>0</asrwt>
<pdfrwt beam="2">  1        2 0.47455654E-01 0.13603058E+03</pdfrwt>
<pdfrwt beam="1">  1       -2 0.85767046E-02 0.13603058E+03</pdfrwt>
<totfact> 0.85323909E+03</totfact>
</mgrwt>
</event>
<event>
 7    1  0.7800420E-006  0.1513148E+03  0.7546771E-02  0.1207464E+00
          1   -1    0    0  501    0  0.00000000000E+00  0.00000000000E+00  0.11834862697E+03  0.11834862697E+03  0.00000000000E+00 0. -1.
         -1   -1    0    0    0  501 -0.00000000000E+00 -0.00000000000E+00 -0.17451245659E+03  0.17451245659E+03  0.00000000000E+00 0.  1.
         23    2    1    2    0    0  0.46821792034E+02  0.71693134925E+02 -0.69455002553E+02  0.16649373009E+03  0.12475567712E+03 0.  0.
          5    1    3    3  502    0  0.18567279295E+02  0.55771899509E+02 -0.10357517708E+03  0.11918538477E+03  0.47000000000E+01 0.  1.
         -5    1    3    3    0  502  0.28254512739E+02  0.15921235416E+02  0.34120174524E+02  0.47308345320E+02  0.47000000000E+01 0.  1.
        -11    1    1    2    0    0 -0.64494989605E+01 -0.16563949238E+02  0.46945527024E+02  0.50198037400E+02  0.00000000000E+00 0. -1.
         11    1    1    2    0    0 -0.40372293074E+02 -0.55129185687E+02 -0.33654354093E+02  0.76169316079E+02  0.00000000000E+00 0.  1.
<mgrwt>
<rscale>  0 0.14444944E+03</rscale>
<asrwt>0</asrwt>
<pdfrwt beam="1">  1        1 0.18207481E-01 0.15131479E+03</pdfrwt>
<pdfrwt beam="2">  1       -1 0.26848070E-01 0.15131479E+03</pdfrwt>
<totfact> 0.34505397E+03</totfact>
</mgrwt>
</event>
<event>
 7    1  0.7800420E-006  0.1620070E+03  0.7546771E-02  0.1204438E+00
         -3   -1    0    0    0  501 -0.00000000000E+00  0.00000000000E+00  0.78277991384E+02  0.78277991384E+02  0.00000000000E+00 0.  1.
          3   -1    0    0  501    0  0.00000000000E+00 -0.00000000000E+00 -0.36668593884E+03  0.36668593884E+03  0.00000000000E+00 0. -1.
         23    2    1    2    0    0 -0.76327631077E+02 -0.69252480263E+02 -0.29385449600E+03  0.33555436433E+03  0.12499781323E+03 0.  0.
          5    1    3    3  502    0 -0.34364310109E+02 -0.97033061357E+02 -0.14157360057E+03  0.17510424090E+03  0.47000000000E+01 0.  1.
         -5    1    3    3    0  502 -0.41963320967E+02  0.27780581093E+02 -0.15228089544E+03  0.16045012343E+03  0.47000000000E+01 0.  1.
        -11    1    1    2    0    0  0.64405345114E+02  0.44939353608E+02  0.16349918522E+02  0.80217914568E+02  0.00000000000E+00 0.  1.
         11    1    1    2    0    0  0.11922285963E+02  0.24313126655E+02 -0.10903369978E+02  0.29191651327E+02  0.00000000000E+00 0. -1.
<mgrwt>
<rscale>  0 0.14681805E+03</rscale>
<asrwt>0</asrwt>
<pdfrwt beam="2">  1        3 0.56413222E-01 0.16200700E+03</pdfrwt>
<pdfrwt beam="1">  1       -3 0.12042768E-01 0.16200700E+03</pdfrwt>
<totfact> 0.40200591E+02</totfact>
</mgrwt>
</event>
<event>
 7    1  0.7800420E-006  0.1866456E+03  0.7546771E-02  0.1166622E+00
          2   -1    0    0  501    0  0.00000000000E+00  0.00000000000E+00  0.16106417665E+03  0.16106417665E+03  0.00000000000E+00 0.  1.
         -2   -1    0    0    0  501 -0.00000000000E+00 -0.00000000000E+00 -0.21402720356E+03  0.21402720356E+03  0.00000000000E+00 0. -1.
         23    2    1    2    0    0 -0.11196193850E+02  0.13815388774E+03  0.30931892545E+02  0.18919134100E+03  0.12499892031E+03 0.  0.
          5    1    3    3  502    0  0.40996537882E+02  0.60228106609E+01  0.21025992559E+02  0.46703026986E+02  0.47000000000E+01 0.  1.
         -5    1    3    3    0  502 -0.52192731732E+02  0.13213107708E+03  0.99058999853E+01  0.14248831401E+03  0.47000000000E+01 0.  1.
        -11    1    1    2    0    0 -0.32964243322E+02 -0.42978843925E+02 -0.54729136384E+02  0.77000654103E+02  0.00000000000E+00 0.  1.
         11    1    1    2    0    0  0.44160437172E+02 -0.95175043810E+02 -0.29165783065E+02  0.10889938511E+03  0.00000000000E+00 0. -1.
<mgrwt>
<rscale>  0 0.18122591E+03</rscale>
<asrwt>0</asrwt>
<pdfrwt beam="1">  1        2 0.24779104E-01 0.18664560E+03</pdfrwt>
<pdfrwt beam="2">  1       -2 0.32927262E-01 0.18664560E+03</pdfrwt>
<totfact> 0.18445485E+03</totfact>
</mgrwt>
</event>
<event>
 7    1  0.7800420E-006  0.1801814E+03  0.7546771E-02  0.1173422E+00
          2   -1    0    0  501    0  0.00000000000E+00  0.00000000000E+00  0.40769378617E+03  0.40769378617E+03  0.00000000000E+00 0. -1.
         -2   -1    0    0    0  501 -0.00000000000E+00 -0.00000000000E+00 -0.73205306954E+02  0.73205306954E+02  0.00000000000E+00 0.  1.
         23    2    1    2    0    0  0.10273155306E+03  0.79291196330E+02  0.12809882006E+03  0.22107608617E+03  0.12499784945E+03 0.  0.
          5    1    3    3  502    0  0.92207753183E+02  0.60082188355E+02  0.15238867105E+03  0.18803333792E+03  0.47000000000E+01 0. -1.
         -5    1    3    3    0  502  0.10523799874E+02  0.19209007974E+02 -0.24289850988E+02  0.33042748254E+02  0.47000000000E+01 0. -1.
        -11    1    1    2    0    0 -0.24516727455E+01 -0.44823736131E+02  0.29928619845E+02  0.53952759946E+02  0.00000000000E+00 0. -1.
         11    1    1    2    0    0 -0.10027988031E+03 -0.34467460199E+02  0.17646103931E+03  0.20587024700E+03  0.00000000000E+00 0.  1.
<mgrwt>
<rscale>  0 0.17431388E+03</rscale>
<asrwt>0</asrwt>
<pdfrwt beam="1">  1        2 0.62722120E-01 0.18018138E+03</pdfrwt>
<pdfrwt beam="2">  1       -2 0.11262355E-01 0.18018138E+03</pdfrwt>
<totfact> 0.41907486E+03</totfact>
</mgrwt>
</event>
<event>
 7    1  0.7800420E-006  0.1395932E+03  0.7546771E-02  0.1225208E+00
         -1   -1    0    0    0  501 -0.00000000000E+00  0.00000000000E+00  0.86126833448E+02  0.86126833448E+02  0.00000000000E+00 0.  1.
          1   -1    0    0  501    0  0.00000000000E+00 -0.00000000000E+00 -0.18163938608E+03  0.18163938608E+03  0.00000000000E+00 0. -1.
         23    2    1    2    0    0 -0.29953577215E+02 -0.54428619698E+02 -0.62129886721E+02  0.15279524970E+03  0.12500629615E+03 0.  0.
          5    1    3    3  502    0 -0.41595691686E+02 -0.76428092765E+01 -0.88095290238E+02  0.97833962726E+02  0.47000000000E+01 0.  1.
         -5    1    3    3    0  502  0.11642114472E+02 -0.46785810422E+02  0.25965403517E+02  0.54961286975E+02  0.47000000000E+01 0.  1.
        -11    1    1    2    0    0  0.65379844012E+01  0.57111737651E+02  0.16495509332E+02  0.59804662407E+02  0.00000000000E+00 0.  1.
         11    1    1    2    0    0  0.23415592813E+02 -0.26831179527E+01 -0.49878175242E+02  0.55166307419E+02  0.00000000000E+00 0. -1.
<mgrwt>
<rscale>  0 0.13152672E+03</rscale>
<asrwt>0</asrwt>
<pdfrwt beam="2">  1        1 0.27944520E-01 0.13959321E+03</pdfrwt>
<pdfrwt beam="1">  1       -1 0.13250282E-01 0.13959321E+03</pdfrwt>
<totfact> 0.61925968E+03</totfact>
</mgrwt>
</event>
<event>
 7    1  0.7800420E-006  0.1362853E+03  0.7546771E-02  0.1229932E+00
         -1   -1    0    0    0  501 -0.00000000000E+00  0.00000000000E+00  0.24809103008E+02  0.24809103008E+02  0.00000000000E+00 0.  1.
          1   -1    0    0  501    0  0.00000000000E+00 -0.00000000000E+00 -0.67199453531E+03  0.67199453531E+03  0.00000000000E+00 0. -1.
         23    2    1    2    0    0 -0.12270344474E+02 -0.52898732327E+02 -0.47331746994E+03  0.49254756335E+03  0.12499935029E+03 0.  0.
          5    1    3    3  502    0 -0.35639487896E+02  0.10540890277E+02 -0.43445074817E+02  0.57365913147E+02  0.47000000000E+01 0.  1.
         -5    1    3    3    0  502  0.23369143422E+02 -0.63439622604E+02 -0.42987239513E+03  0.43518165020E+03  0.47000000000E+01 0.  1.
        -11    1    1    2    0    0 -0.14415703489E+02 -0.18477673818E+02 -0.14372296671E+02  0.27491814207E+02  0.00000000000E+00 0.  1.
         11    1    1    2    0    0  0.26686047963E+02  0.71376406144E+02 -0.15949566569E+03  0.17676426077E+03  0.00000000000E+00 0. -1.
<mgrwt>
<rscale>  0 0.12834500E+03</rscale>
<asrwt>0</asrwt>
<pdfrwt beam="2">  1        1 0.10338376E+00 0.13628527E+03</pdfrwt>
<pdfrwt beam="1">  1       -1 0.38167855E-02 0.13628527E+03</pdfrwt>
<totfact> 0.75921846E+03</totfact>
</mgrwt>
</event>
<event>
 7    1  0.7800420E-006  0.1286687E+03  0.7546771E-02  0.1244512E+00
          2   -1    0    0  501    0  0.00000000000E+00  0.00000000000E+00  0.38449199065E+03  0.38449199065E+03  0.00000000000E+00 0. -1.
         -2   -1    0    0    0  501 -0.00000000000E+00 -0.00000000000E+00 -0.32423490922E+02  0.32423490922E+02  0.00000000000E+00 0.  1.
         23    2    1    2    0    0 -0.35382551945E+01 -0.30307240846E+02  0.20656911428E+03  0.24336482196E+03  0.12499835797E+03 0.  0.
          5    1    3    3  502    0  0.27896625401E+02  0.28440627124E+02  0.15172671483E+03  0.15694004261E+03  0.47000000000E+01 0.  1.
         -5    1    3    3    0  502 -0.31434880595E+02 -0.58747867970E+02  0.54842399451E+02  0.86424779355E+02  0.47000000000E+01 0.  1.
        -11    1    1    2    0    0 -0.34150578318E+02  0.46261056677E+01  0.19601888661E+02  0.39647154906E+02  0.00000000000E+00 0. -1.
         11    1    1    2    0    0  0.37688833512E+02  0.25681135178E+02  0.12589749679E+03  0.13390350471E+03  0.00000000000E+00 0.  1.
<mgrwt>
<rscale>  0 0.11914646E+03</rscale>
<asrwt>0</asrwt>
<pdfrwt beam="1">  1        2 0.59152611E-01 0.12866871E+03</pdfrwt>
<pdfrwt beam="2">  1       -2 0.49882297E-02 0.12866871E+03</pdfrwt>
<totfact> 0.15358490E+04</totfact>
</mgrwt>
</event>
<event>
 7    1  0.7800420E-006  0.1702430E+03  0.7546771E-02  0.1183750E+00
         -2   -1    0    0    0  501 -0.00000000000E+00  0.00000000000E+00  0.44497252027E+03  0.44497252027E+03  0.00000000000E+00 0.  1.
          2   -1    0    0  501    0  0.00000000000E+00 -0.00000000000E+00 -0.69027116534E+02  0.69027116534E+02  0.00000000000E+00 0. -1.
         23    2    1    2    0    0  0.11535003649E+03 -0.72335929811E+01  0.91604240336E+02  0.19332364122E+03  0.12499895047E+03 0.  0.
          5    1    3    3  502    0  0.33672989782E+02  0.70632378971E+01 -0.30118265291E+02  0.45966938930E+02  0.47000000000E+01 0.  1.
         -5    1    3    3    0  502  0.81677046710E+02 -0.14296830878E+02  0.12172250563E+03  0.14735670229E+03  0.47000000000E+01 0.  1.
        -11    1    1    2    0    0 -0.58854891263E+02  0.11340766424E+02  0.24369427283E+03  0.25095698798E+03  0.00000000000E+00 0.  1.
         11    1    1    2    0    0 -0.56495145229E+02 -0.41071734433E+01  0.40646890572E+02  0.69719007605E+02  0.00000000000E+00 0. -1.
<mgrwt>
<rscale>  0 0.16446117E+03</rscale>
<asrwt>0</asrwt>
<pdfrwt beam="2">  1        2 0.10619557E-01 0.17024304E+03</pdfrwt>
<pdfrwt beam="1">  1       -2 0.68457309E-01 0.17024304E+03</pdfrwt>
<totfact> 0.11696624E+03</totfact>
</mgrwt>
</event>
<event>
 7    1  0.7800420E-006  0.1267767E+03  0.7546771E-02  0.1247882E+00
         -2   -1    0    0    0  501 -0.00000000000E+00  0.00000000000E+00  0.40054930835E+02  0.40054930835E+02  0.00000000000E+00 0. -1.
          2   -1    0    0  501    0  0.00000000000E+00 -0.00000000000E+00 -0.30843997403E+03  0.30843997403E+03  0.00000000000E+00 0.  1.
         23    2    1    2    0    0 -0.14286319650E+02 -0.15801337045E+02 -0.18329752271E+03  0.22286839559E+03  0.12497423232E+03 0.  0.
          5    1    3    3  502    0  0.45431960163E+02 -0.31110011137E+02 -0.12992701485E+03  0.14119141257E+03  0.47000000000E+01 0.  1.
         -5    1    3    3    0  502 -0.59718279813E+02  0.15308674093E+02 -0.53370507858E+02  0.81676983021E+02  0.47000000000E+01 0.  1.
        -11    1    1    2    0    0  0.45616824498E+02 -0.12463394895E+02 -0.60503772952E+02  0.76791519265E+02  0.00000000000E+00 0.  1.
         11    1    1    2    0    0 -0.31330504848E+02  0.28264731940E+02 -0.24583747534E+02  0.48834990002E+02  0.00000000000E+00 0. -1.
<mgrwt>
<rscale>  0 0.11714546E+03</rscale>
<asrwt>0</asrwt>
<pdfrwt beam="2">  1        2 0.47452304E-01 0.12677673E+03</pdfrwt>
<pdfrwt beam="1">  1       -2 0.61622970E-02 0.12677673E+03</pdfrwt>
<totfact> 0.14088992E+04</totfact>
</mgrwt>
</event>
<event>
 7    1  0.7800420E-006  0.2269613E+03  0.7546771E-02  0.1131795E+00
          1   -1    0    0  501    0  0.00000000000E+00  0.00000000000E+00  0.10362333244E+04  0.10362333244E+04  0.00000000000E+00 0. -1.
         -1   -1    0    0    0  501 -0.00000000000E+00 -0.00000000000E+00 -0.47423625899E+02  0.47423625899E+02  0.00000000000E+00 0.  1.
         23    2    1    2    0    0  0.35574867255E+02  0.18606413073E+03  0.59748163992E+03  0.63913672596E+03  0.12500404998E+03 0.  0.
          5    1    3    3  502    0  0.71652571948E+02  0.13372258323E+03  0.50109729025E+03  0.52358037074E+03  0.47000000000E+01 0.  1.
         -5    1    3    3    0  502 -0.36077704693E+02  0.52341547501E+02  0.96384349672E+02  0.11555635522E+03  0.47000000000E+01 0.  1.
        -11    1    1    2    0    0 -0.38592656932E+02 -0.66251145877E+02  0.79479255056E+02  0.11043350707E+03  0.00000000000E+00 0.  1.
         11    1    1    2    0    0  0.30177896764E+01 -0.11981298485E+03  0.31184880355E+03  0.33408671729E+03  0.00000000000E+00 0. -1.
<mgrwt>
<rscale>  0 0.22282340E+03</rscale>
<asrwt>0</asrwt>
<pdfrwt beam="1">  1        1 0.15942049E+00 0.22696133E+03</pdfrwt>
<pdfrwt beam="2">  1       -1 0.72959432E-02 0.22696133E+03</pdfrwt>
<totfact> 0.14904462E+03</totfact>
</mgrwt>
</event>
<event>
 7    1  0.7800420E-006  0.1368256E+03  0.7546771E-02  0.1229494E+00
          1   -1    0    0  501    0  0.00000000000E+00  0.00000000000E+00  0.13944186947E+03  0.13944186947E+03  0.00000000000E+00 0. -1.
         -1   -1    0    0    0  501 -0.00000000000E+00 -0.00000000000E+00 -0.11362422721E+03  0.11362422721E+03  0.00000000000E+00 0.  1.
         23    2    1    2    0    0 -0.45444560662E+02 -0.32109834594E+02  0.45868552603E+02  0.14430924818E+03  0.12499994168E+03 0.  0.
          5    1    3    3  502    0 -0.49154680402E+02 -0.63437929481E+02 -0.89497782374E+01  0.80887217982E+02  0.47000000000E+01 0.  1.
         -5    1    3    3    0  502  0.37101197402E+01  0.31328094887E+02  0.54818330840E+02  0.63422030194E+02  0.47000000000E+01 0.  1.
        -11    1    1    2    0    0  0.33396809622E+02  0.32421377834E+01 -0.53378680165E+02  0.63048725970E+02  0.00000000000E+00 0.  1.
         11    1    1    2    0    0  0.12047751040E+02  0.28867696811E+02  0.33327769827E+02  0.45708122538E+02  0.00000000000E+00 0. -1.
<mgrwt>
<rscale>  0 0.12863593E+03</rscale>
<asrwt>0</asrwt>
<pdfrwt beam="1">  1        1 0.21452595E-01 0.13682556E+03</pdfrwt>
<pdfrwt beam="2">  1       -1 0.17480650E-01 0.13682556E+03</pdfrwt>
<totfact> 0.55818213E+03</totfact>
</mgrwt>
</event>
<event>
 7    1  0.7800420E-006  0.1580663E+03  0.7546771E-02  0.1198639E+00
          3   -1    0    0  501    0  0.00000000000E+00  0.00000000000E+00  0.30011752816E+03  0.30011752816E+03  0.00000000000E+00 0. -1.
         -3   -1    0    0    0  501 -0.00000000000E+00 -0.00000000000E+00 -0.80025635817E+02  0.80025635817E+02  0.00000000000E+00 0.  1.
         23    2    1    2    0    0  0.93886417099E+02  0.23358549673E+02  0.18272952699E+03  0.24160926197E+03  0.12499869709E+03 0.  0.
          5    1    3    3  502    0  0.39544874683E+01 -0.44737034431E+02  0.53280598139E+02  0.69842339300E+02  0.47000000000E+01 0. -1.
         -5    1    3    3    0  502  0.89931929631E+02  0.68095584104E+02  0.12944892885E+03  0.17176692267E+03  0.47000000000E+01 0. -1.
        -11    1    1    2    0    0 -0.73608706274E+02 -0.55043495602E+02  0.10936210731E+02  0.92561486335E+02  0.00000000000E+00 0.  1.
         11    1    1    2    0    0 -0.20277710825E+02  0.31684945929E+02  0.26426154621E+02  0.45972415674E+02  0.00000000000E+00 0. -1.
<mgrwt>
<rscale>  0 0.15150216E+03</rscale>
<asrwt>0</asrwt>
<pdfrwt beam="1">  1        3 0.46171927E-01 0.15806630E+03</pdfrwt>
<pdfrwt beam="2">  1       -3 0.12311636E-01 0.15806630E+03</pdfrwt>
<totfact> 0.57732137E+02</totfact>
</mgrwt>
</event>
<event>
 7    1  0.7800420E-006  0.1300503E+03  0.7546771E-02  0.1239797E+00
          1   -1    0    0  501    0  0.00000000000E+00  0.00000000000E+00  0.15091722526E+03  0.15091722526E+03  0.00000000000E+00 0. -1.
         -1   -1    0    0    0  501 -0.00000000000E+00 -0.00000000000E+00 -0.95512633650E+02  0.95512633650E+02  0.00000000000E+00 0.  1.
         23    2    1    2    0    0 -0.35314814430E+02 -0.64665651284E+01  0.64613360956E+02  0.14521700792E+03  0.12499656152E+03 0.  0.
          5    1    3    3  502    0 -0.28492519480E+02  0.52540148388E+02  0.60987889935E+02  0.85521363282E+02  0.47000000000E+01 0. -1.
         -5    1    3    3    0  502 -0.68222949498E+01 -0.59006713516E+02  0.36254710208E+01  0.59695644636E+02  0.47000000000E+01 0. -1.
        -11    1    1    2    0    0  0.44834220255E+02  0.43220903810E+02 -0.10837660611E+02  0.63210827550E+02  0.00000000000E+00 0.  1.
         11    1    1    2    0    0 -0.95194058250E+01 -0.36754338681E+02  0.16288912691E+01  0.38002023445E+02  0.00000000000E+00 0. -1.
<mgrwt>
<rscale>  0 0.12202289E+03</rscale>
<asrwt>0</asrwt>
<pdfrwt beam="1">  1        1 0.23218035E-01 0.13005035E+03</pdfrwt>
<pdfrwt beam="2">  1       -1 0.14694251E-01 0.13005035E+03</pdfrwt>
<totfact> 0.66171658E+03</totfact>
</mgrwt>
</event>
<event>
 7    1  0.7800420E-006  0.2205335E+03  0.7546771E-02  0.1136880E+00
          2   -1    0    0  501    0  0.00000000000E+00  0.00000000000E+00  0.45588092994E+03  0.45588092994E+03  0.00000000000E+00 0. -1.
         -2   -1    0    0    0  501 -0.00000000000E+00 -0.00000000000E+00 -0.11088397670E+03  0.11088397670E+03  0.00000000000E+00 0.  1.
         23    2    1    2    0    0 -0.17806445595E+03  0.36092944264E+02  0.27384489460E+03  0.35160496451E+03  0.12500149467E+03 0.  0.
          5    1    3    3  502    0  0.56991708711E+01 -0.84714028224E+01  0.79933206970E+02  0.80719593600E+02  0.47000000000E+01 0. -1.
         -5    1    3    3    0  502 -0.18376362682E+03  0.44564347086E+02  0.19391168763E+03  0.27088537091E+03  0.47000000000E+01 0. -1.
        -11    1    1    2    0    0  0.62578626914E+02 -0.60517945040E+01 -0.18916566534E+02  0.65654742803E+02  0.00000000000E+00 0.  1.
         11    1    1    2    0    0  0.11548582903E+03 -0.30041149760E+02  0.90068625169E+02  0.14950519933E+03  0.00000000000E+00 0. -1.
<mgrwt>
<rscale>  0 0.21602756E+03</rscale>
<asrwt>0</asrwt>
<pdfrwt beam="1">  1        2 0.70135527E-01 0.22053350E+03</pdfrwt>
<pdfrwt beam="2">  1       -2 0.17059074E-01 0.22053350E+03</pdfrwt>
<totfact> 0.18938560E+03</totfact>
</mgrwt>
</event>
<event>
 7    1  0.7800420E-006  0.1283743E+03  0.7546771E-02  0.1244992E+00
         -1   -1    0    0    0  501 -0.00000000000E+00  0.00000000000E+00  0.12386301247E+02  0.12386301247E+02  0.00000000000E+00 0.  1.
          1   -1    0    0  501    0  0.00000000000E+00 -0.00000000000E+00 -0.15400269530E+04  0.15400269530E+04  0.00000000000E+00 0. -1.
         23    2    1    2    0    0  0.25908142479E+02  0.22956324684E+02 -0.12953724770E+04  0.13017180226E+04  0.12361930035E+03 0.  0.
          5    1    3    3  502    0 -0.12512338371E+02  0.67812806980E+02 -0.68988315664E+03  0.69333685551E+03  0.47000000000E+01 0. -1.
         -5    1    3    3    0  502  0.38420480849E+02 -0.44856482296E+02 -0.60548932039E+03  0.60838116708E+03  0.47000000000E+01 0.  1.
        -11    1    1    2    0    0 -0.44076917552E+02  0.18188524588E+02 -0.14292840296E+03  0.15067224516E+03  0.00000000000E+00 0. -1.
         11    1    1    2    0    0  0.18168775073E+02 -0.41144849272E+02 -0.89339771795E+02  0.10002298653E+03  0.00000000000E+00 0.  1.
<mgrwt>
<rscale>  0 0.11885838E+03</rscale>
<asrwt>0</asrwt>
<pdfrwt beam="2">  1        1 0.23692722E+00 0.12837428E+03</pdfrwt>
<pdfrwt beam="1">  1       -1 0.19055849E-02 0.12837428E+03</pdfrwt>
<totfact> 0.48689298E+03</totfact>
</mgrwt>
</event>
<event>
 7    1  0.7800420E-006  0.3293958E+03  0.7546771E-02  0.1072380E+00
          1   -1    0    0  501    0  0.00000000000E+00  0.00000000000E+00  0.56481594423E+03  0.56481594423E+03  0.00000000000E+00 0. -1.
         -1   -1    0    0    0  501 -0.00000000000E+00 -0.00000000000E+00 -0.18793255531E+03  0.18793255531E+03  0.00000000000E+00 0.  1.
         23    2    1    2    0    0 -0.11862775295E+03 -0.28313472633E+03  0.21635680520E+03  0.39409627876E+03  0.11943112137E+03 0.  0.
          5    1    3    3  502    0 -0.10402283106E+03 -0.26652702030E+03  0.14811682661E+03  0.32220814120E+03  0.47000000000E+01 0. -1.
         -5    1    3    3    0  502 -0.14604921887E+02 -0.16607706026E+02  0.68239978590E+02  0.71888137552E+02  0.47000000000E+01 0.  1.
        -11    1    1    2    0    0  0.10726559206E+03  0.20046329495E+03  0.75621984584E+02  0.23960409932E+03  0.00000000000E+00 0.  1.
         11    1    1    2    0    0  0.11362160890E+02  0.82671431383E+02  0.84904599146E+02  0.11904812146E+03  0.00000000000E+00 0. -1.
<mgrwt>
<rscale>  0 0.32720563E+03</rscale>
<asrwt>0</asrwt>
<pdfrwt beam="1">  1        1 0.86894760E-01 0.32939583E+03</pdfrwt>
<pdfrwt beam="2">  1       -1 0.28912701E-01 0.32939583E+03</pdfrwt>
<totfact> 0.41751108E+02</totfact>
</mgrwt>
</event>
<event>
 7    1  0.7800420E-006  0.1597280E+03  0.7546771E-02  0.1195998E+00
          2   -1    0    0  501    0  0.00000000000E+00  0.00000000000E+00  0.94787314754E+02  0.94787314754E+02  0.00000000000E+00 0. -1.
         -2   -1    0    0    0  501 -0.00000000000E+00 -0.00000000000E+00 -0.23959516648E+03  0.23959516648E+03  0.00000000000E+00 0.  1.
         23    2    1    2    0    0  0.31721441808E+02  0.94243345923E+02 -0.48389049110E+02  0.16689681611E+03  0.12499995613E+03 0.  0.
          5    1    3    3  502    0  0.71068991621E+02  0.74824042464E+02 -0.26460232249E+01  0.10333697470E+03  0.47000000000E+01 0. -1.
         -5    1    3    3    0  502 -0.39347549813E+02  0.19419303459E+02 -0.45743025885E+02  0.63559841411E+02  0.47000000000E+01 0. -1.
        -11    1    1    2    0    0 -0.22172048056E+02 -0.10186787837E+03 -0.10838256209E+03  0.15038432141E+03  0.00000000000E+00 0.  1.
         11    1    1    2    0    0 -0.95493937517E+01  0.76245324495E+01  0.11963759478E+02  0.17101343718E+02  0.00000000000E+00 0. -1.
<mgrwt>
<rscale>  0 0.15370044E+03</rscale>
<asrwt>0</asrwt>
<pdfrwt beam="1">  1        2 0.14582664E-01 0.15972804E+03</pdfrwt>
<pdfrwt beam="2">  1       -2 0.36860794E-01 0.15972804E+03</pdfrwt>
<totfact> 0.27293068E+03</totfact>
</mgrwt>
</event>
<event>
 7    1  0.7800420E-006  0.2188666E+03  0.7546771E-02  0.1138205E+00
         -2   -1    0    0    0  501 -0.00000000000E+00  0.00000000000E+00  0.78356835211E+02  0.78356835211E+02  0.00000000000E+00 0.  1.
          2   -1    0    0  501    0  0.00000000000E+00 -0.00000000000E+00 -0.14179913498E+04  0.14179913498E+04  0.00000000000E+00 0. -1.
         23    2    1    2    0    0 -0.54161910642E+02 -0.17130189575E+03 -0.12618164702E+04  0.12806574127E+04  0.12499900860E+03 0.  0.
          5    1    3    3  502    0 -0.15560914902E+02 -0.14357208738E+03 -0.11503637062E+04  0.11594023602E+04  0.47000000000E+01 0. -1.
         -5    1    3    3    0  502 -0.38600995740E+02 -0.27729808374E+02 -0.11145276397E+03  0.12125505244E+03  0.47000000000E+01 0. -1.
        -11    1    1    2    0    0  0.53721789365E+02  0.39448005245E+02 -0.42998540631E+02  0.79316141275E+02  0.00000000000E+00 0.  1.
         11    1    1    2    0    0  0.44012127720E+00  0.13185389051E+03 -0.34819503740E+02  0.13637463103E+03  0.00000000000E+00 0. -1.
<mgrwt>
<rscale>  0 0.21429997E+03</rscale>
<asrwt>0</asrwt>
<pdfrwt beam="2">  1        2 0.21815251E+00 0.21886664E+03</pdfrwt>
<pdfrwt beam="1">  1       -2 0.12054898E-01 0.21886664E+03</pdfrwt>
<totfact> 0.74765736E+02</totfact>
</mgrwt>
</event>
<event>
 7    1  0.7800420E-006  0.1706105E+03  0.7546771E-02  0.1183433E+00
          2   -1    0    0  501    0  0.00000000000E+00  0.00000000000E+00  0.98167160659E+03  0.98167160659E+03  0.00000000000E+00 0. -1.
         -2   -1    0    0    0  501 -0.00000000000E+00 -0.00000000000E+00 -0.45681840214E+02  0.45681840214E+02  0.00000000000E+00 0.  1.
         23    2    1    2    0    0 -0.45108294325E+02 -0.10700256086E+03  0.82398703210E+03  0.84146453095E+03  0.12499448600E+03 0.  0.
          5    1    3    3  502    0  0.29782666114E+02 -0.82776091716E+02  0.52041142149E+03  0.52781533340E+03  0.47000000000E+01 0. -1.
         -5    1    3    3    0  502 -0.74890960439E+02 -0.24226469144E+02  0.30357561061E+03  0.31364919754E+03  0.47000000000E+01 0. -1.
        -11    1    1    2    0    0  0.18210511234E+02  0.19400369896E+02 -0.14015830813E+02  0.30073918682E+02  0.00000000000E+00 0.  1.
         11    1    1    2    0    0  0.26897783091E+02  0.87602190964E+02  0.12601856509E+03  0.15581499717E+03  0.00000000000E+00 0. -1.
<mgrwt>
<rscale>  0 0.16475247E+03</rscale>
<asrwt>0</asrwt>
<pdfrwt beam="1">  1        2 0.15102639E+00 0.17061046E+03</pdfrwt>
<pdfrwt beam="2">  1       -2 0.70279762E-02 0.17061046E+03</pdfrwt>
<totfact> 0.30890980E+03</totfact>
</mgrwt>
</event>
<event>
 7    1  0.7800420E-006  0.2211895E+03  0.7546771E-02  0.1136334E+00
          2   -1    0    0  501    0  0.00000000000E+00  0.00000000000E+00  0.11857074705E+04  0.11857074705E+04  0.00000000000E+00 0. -1.
         -2   -1    0    0    0  501 -0.00000000000E+00 -0.00000000000E+00 -0.38758694156E+02  0.38758694156E+02  0.00000000000E+00 0.  1.
         23    2    1    2    0    0  0.16281164111E+03 -0.82413711253E+02  0.51697459859E+03  0.56230554736E+03  0.12500057090E+03 0.  0.
          5    1    3    3  502    0  0.33740629392E+02  0.32727542748E+02  0.13318028705E+03  0.14131030035E+03  0.47000000000E+01 0.  1.
         -5    1    3    3    0  502  0.12907101172E+03 -0.11514125400E+03  0.38379431153E+03  0.42099524701E+03  0.47000000000E+01 0.  1.
        -11    1    1    2    0    0 -0.63558518279E+02  0.43556553520E+02  0.13143935083E+03  0.15235866089E+03  0.00000000000E+00 0.  1.
         11    1    1    2    0    0 -0.99253122832E+02  0.38857157733E+02  0.49853482698E+03  0.50980195646E+03  0.00000000000E+00 0. -1.
<mgrwt>
<rscale>  0 0.21674344E+03</rscale>
<asrwt>0</asrwt>
<pdfrwt beam="1">  1        2 0.18241651E+00 0.22118950E+03</pdfrwt>
<pdfrwt beam="2">  1       -2 0.59628769E-02 0.22118950E+03</pdfrwt>
<totfact> 0.30328088E+03</totfact>
</mgrwt>
</event>
<event>
 7    1  0.7800420E-006  0.1445319E+03  0.7546771E-02  0.1215314E+00
         -2   -1    0    0    0  501 -0.00000000000E+00  0.00000000000E+00  0.30676087883E+02  0.30676087883E+02  0.00000000000E+00 0.  1.
          2   -1    0    0  501    0  0.00000000000E+00 -0.00000000000E+00 -0.58004558617E+03  0.58004558617E+03  0.00000000000E+00 0. -1.
         23    2    1    2    0    0  0.75143399225E+02  0.81282736460E+01 -0.28454498126E+03  0.31914781629E+03  0.12319449259E+03 0.  0.
          5    1    3    3  502    0  0.61327202370E+02  0.57342714165E+02 -0.22678780439E+03  0.24187602370E+03  0.47000000000E+01 0. -1.
         -5    1    3    3    0  502  0.13816196855E+02 -0.49214440519E+02 -0.57757176862E+02  0.77271792591E+02  0.47000000000E+01 0.  1.
        -11    1    1    2    0    0 -0.93593243962E+02 -0.23619059697E+02 -0.19255714909E+03  0.21539686851E+03  0.00000000000E+00 0.  1.
         11    1    1    2    0    0  0.18449844736E+02  0.15490786051E+02 -0.72267367945E+02  0.76176989262E+02  0.00000000000E+00 0. -1.
<mgrwt>
<rscale>  0 0.13853523E+03</rscale>
<asrwt>0</asrwt>
<pdfrwt beam="2">  1        2 0.89237781E-01 0.14453194E+03</pdfrwt>
<pdfrwt beam="1">  1       -2 0.47193982E-02 0.14453194E+03</pdfrwt>
<totfact> 0.10746947E+04</totfact>
</mgrwt>
</event>
<event>
 6    1  0.7800420E-006  0.2484586E+03  0.7546771E-02  0.1150779E+00
         -2   -1    0    0    0  501 -0.00000000000E+00  0.00000000000E+00  0.41289196940E+02  0.41289196940E+02  0.00000000000E+00 0.  1.
          2   -1    0    0  501    0  0.00000000000E+00 -0.00000000000E+00 -0.15460689540E+04  0.15460689540E+04  0.00000000000E+00 0. -1.
          5    1    1    2  502    0 -0.32437662923E+02 -0.42048103291E+02 -0.14576949900E+04  0.14586696058E+04  0.47000000000E+01 0. -1.
         -5    1    1    2    0  502  0.92675765624E+00  0.11077233706E+02  0.64542060833E+01  0.13686152217E+02  0.47000000000E+01 0.  1.
        -11    1    1    2    0    0 -0.23629612270E+02 -0.57345983978E+01  0.69603457971E+01  0.25292105654E+02  0.00000000000E+00 0. -1.
         11    1    1    2    0    0  0.55140517537E+02  0.36705467983E+02 -0.60499318968E+02  0.89710287313E+02  0.00000000000E+00 0.  1.
<mgrwt>
<rscale>  0 0.19877232E+03</rscale>
<asrwt>0</asrwt>
<pdfrwt beam="2">  1        2 0.23785675E+00 0.24845858E+03</pdfrwt>
<pdfrwt beam="1">  1       -2 0.63521846E-02 0.24845858E+03</pdfrwt>
<totfact> 0.17490733E+03</totfact>
</mgrwt>
</event>
<event>
 7    1  0.7800420E-006  0.3677818E+03  0.7546771E-02  0.1056764E+00
         -2   -1    0    0    0  501 -0.00000000000E+00  0.00000000000E+00  0.47447731993E+02  0.47447731993E+02  0.00000000000E+00 0.  1.
          2   -1    0    0  501    0  0.00000000000E+00 -0.00000000000E+00 -0.27958218991E+04  0.27958218991E+04  0.00000000000E+00 0. -1.
         23    2    1    2    0    0 -0.34491775302E+03 -0.25839060291E+02 -0.15687307826E+04  0.16112664939E+04  0.12501013037E+03 0.  0.
          5    1    3    3  502    0 -0.32068722034E+03  0.12997550247E+02 -0.14043856396E+04  0.14406006887E+04  0.47000000000E+01 0. -1.
         -5    1    3    3    0  502 -0.24230532685E+02 -0.38836610538E+02 -0.16434514295E+03  0.17066580514E+03  0.47000000000E+01 0. -1.
        -11    1    1    2    0    0  0.12129111460E+03  0.22452116426E+02 -0.29992759439E+03  0.32430262701E+03  0.00000000000E+00 0. -1.
         11    1    1    2    0    0  0.22362663843E+03  0.33869438650E+01 -0.87971579015E+03  0.90770051021E+03  0.00000000000E+00 0.  1.
<mgrwt>
<rscale>  0 0.36463351E+03</rscale>
<asrwt>0</asrwt>
<pdfrwt beam="2">  1        2 0.43012650E+00 0.36778179E+03</pdfrwt>
<pdfrwt beam="1">  1       -2 0.72996502E-02 0.36778179E+03</pdfrwt>
<totfact> 0.29268718E+02</totfact>
</mgrwt>
</event>
<event>
 7    1  0.7800420E-006  0.1764920E+03  0.7546771E-02  0.1177026E+00
         -2   -1    0    0    0  501 -0.00000000000E+00  0.00000000000E+00  0.10050796891E+03  0.10050796891E+03  0.00000000000E+00 0.  1.
          2   -1    0    0  501    0  0.00000000000E+00 -0.00000000000E+00 -0.27295555466E+03  0.27295555466E+03  0.00000000000E+00 0. -1.
         23    2    1    2    0    0  0.35115619611E+02 -0.11954381774E+03 -0.93032653774E+02  0.19951060898E+03  0.12500230928E+03 0.  0.
          5    1    3    3  502    0 -0.46138422463E+02 -0.56527905206E+02 -0.31736521888E+02  0.79708562375E+02  0.47000000000E+01 0. -1.
         -5    1    3    3    0  502  0.81254042074E+02 -0.63015912537E+02 -0.61296131886E+02  0.11980204660E+03  0.47000000000E+01 0. -1.
        -11    1    1    2    0    0 -0.59267329094E+01  0.46871832676E+02 -0.83056458213E+02  0.95553493460E+02  0.00000000000E+00 0. -1.
         11    1    1    2    0    0 -0.29188886702E+02  0.72671985066E+02  0.36415262474E+01  0.78399421132E+02  0.00000000000E+00 0.  1.
<mgrwt>
<rscale>  0 0.17079038E+03</rscale>
<asrwt>0</asrwt>
<pdfrwt beam="2">  1        2 0.41993161E-01 0.17649195E+03</pdfrwt>
<pdfrwt beam="1">  1       -2 0.15462765E-01 0.17649195E+03</pdfrwt>
<totfact> 0.38483816E+03</totfact>
</mgrwt>
</event>
<event>
 7    1  0.7800420E-006  0.1631583E+03  0.7546771E-02  0.1192604E+00
          2   -1    0    0  501    0  0.00000000000E+00  0.00000000000E+00  0.20482875201E+04  0.20482875201E+04  0.00000000000E+00 0. -1.
         -2   -1    0    0    0  501 -0.00000000000E+00 -0.00000000000E+00 -0.15712880184E+02  0.15712880184E+02  0.00000000000E+00 0.  1.
         23    2    1    2    0    0  0.89325515316E+02  0.54932544066E+02  0.16329662459E+04  0.16410970086E+04  0.12499599696E+03 0.  0.
          5    1    3    3  502    0  0.11894318774E+01  0.25356039156E+02  0.10830837650E+04  0.10833913769E+04  0.47000000000E+01 0. -1.
         -5    1    3    3    0  502  0.88136083439E+02  0.29576504911E+02  0.54988248090E+03  0.55770563171E+03  0.47000000000E+01 0. -1.
        -11    1    1    2    0    0 -0.48171444878E+02 -0.63740846400E+01  0.59167461842E+02  0.76563082471E+02  0.00000000000E+00 0.  1.
         11    1    1    2    0    0 -0.41154070439E+02 -0.48558459426E+02  0.34044093212E+03  0.34634030917E+03  0.00000000000E+00 0. -1.
<mgrwt>
<rscale>  0 0.15658764E+03</rscale>
<asrwt>0</asrwt>
<pdfrwt beam="1">  1        2 0.31512094E+00 0.16315830E+03</pdfrwt>
<pdfrwt beam="2">  1       -2 0.24173678E-02 0.16315830E+03</pdfrwt>
<totfact> 0.40872018E+03</totfact>
</mgrwt>
</event>
<event>
 7    1  0.7800420E-006  0.1386768E+03  0.7546771E-02  0.1226583E+00
          2   -1    0    0  501    0  0.00000000000E+00  0.00000000000E+00  0.70929444058E+03  0.70929444058E+03  0.00000000000E+00 0. -1.
         -2   -1    0    0    0  501 -0.00000000000E+00 -0.00000000000E+00 -0.23155444465E+02  0.23155444465E+02  0.00000000000E+00 0.  1.
         23    2    1    2    0    0  0.23440954668E+02 -0.55294026712E+02  0.47475635836E+03  0.49459565545E+03  0.12499741932E+03 0.  0.
          5    1    3    3  502    0  0.62342210501E+02  0.70936481794E+01  0.17666538368E+03  0.18753564687E+03  0.47000000000E+01 0.  1.
         -5    1    3    3    0  502 -0.38901255833E+02 -0.62387674892E+02  0.29809097468E+03  0.30706000858E+03  0.47000000000E+01 0.  1.
        -11    1    1    2    0    0  0.17845578567E+02  0.63417621399E+02  0.11214834700E+03  0.13006733299E+03  0.00000000000E+00 0. -1.
         11    1    1    2    0    0 -0.41286533235E+02 -0.81235946868E+01  0.99234290755E+02  0.10778689660E+03  0.00000000000E+00 0.  1.
<mgrwt>
<rscale>  0 0.13058998E+03</rscale>
<asrwt>0</asrwt>
<pdfrwt beam="1">  1        2 0.10912221E+00 0.13867683E+03</pdfrwt>
<pdfrwt beam="2">  1       -2 0.35623766E-02 0.13867683E+03</pdfrwt>
<totfact> 0.12900745E+04</totfact>
</mgrwt>
</event>
<event>
 7    1  0.7800420E-006  0.1576755E+03  0.7546771E-02  0.1199088E+00
         -2   -1    0    0    0  501 -0.00000000000E+00  0.00000000000E+00  0.74541402329E+02  0.74541402329E+02  0.00000000000E+00 0.  1.
          2   -1    0    0  501    0  0.00000000000E+00 -0.00000000000E+00 -0.33943002111E+03  0.33943002111E+03  0.00000000000E+00 0. -1.
         23    2    1    2    0    0 -0.93903425138E+02 -0.20446860404E+02 -0.22553396607E+03  0.27518562641E+03  0.12500252710E+03 0.  0.
          5    1    3    3  502    0 -0.73798897533E+02 -0.55744910683E+02 -0.21324662357E+03  0.23248652608E+03  0.47000000000E+01 0.  1.
         -5    1    3    3    0  502 -0.20104527604E+02  0.35298050279E+02 -0.12287342500E+02  0.42699100335E+02  0.47000000000E+01 0.  1.
        -11    1    1    2    0    0  0.79520789415E+02 -0.99331862004E+01 -0.59307113806E+02  0.99697331385E+02  0.00000000000E+00 0. -1.
         11    1    1    2    0    0  0.14382635723E+02  0.30380046605E+02  0.19952461097E+02  0.39088465637E+02  0.00000000000E+00 0.  1.
<mgrwt>
<rscale>  0 0.15113281E+03</rscale>
<asrwt>0</asrwt>
<pdfrwt beam="2">  1        2 0.52220003E-01 0.15767549E+03</pdfrwt>
<pdfrwt beam="1">  1       -2 0.11467908E-01 0.15767549E+03</pdfrwt>
<totfact> 0.49243716E+03</totfact>
</mgrwt>
</event>
<event>
 7    1  0.7800420E-006  0.1554970E+03  0.7546771E-02  0.1202421E+00
         -2   -1    0    0    0  501 -0.00000000000E+00  0.00000000000E+00  0.13912404768E+03  0.13912404768E+03  0.00000000000E+00 0.  1.
          2   -1    0    0  501    0  0.00000000000E+00 -0.00000000000E+00 -0.18217910620E+03  0.18217910620E+03  0.00000000000E+00 0. -1.
         23    2    1    2    0    0  0.56720304159E+02  0.73052584686E+02 -0.94932040916E+02  0.18218506099E+03  0.12500172408E+03 0.  0.
          5    1    3    3  502    0 -0.36225842701E+02  0.11729151077E+02 -0.44413916594E+01  0.38622540366E+02  0.47000000000E+01 0. -1.
         -5    1    3    3    0  502  0.92946146861E+02  0.61323433609E+02 -0.90490649257E+02  0.14356252063E+03  0.47000000000E+01 0. -1.
        -11    1    1    2    0    0 -0.30745958515E+02 -0.25185428539E+02  0.71025500182E+02  0.81389443123E+02  0.00000000000E+00 0.  1.
         11    1    1    2    0    0 -0.25974345644E+02 -0.47867156147E+02 -0.19148517786E+02  0.57728649756E+02  0.00000000000E+00 0. -1.
<mgrwt>
<rscale>  0 0.14842578E+03</rscale>
<asrwt>0</asrwt>
<pdfrwt beam="2">  1        2 0.28027555E-01 0.15549696E+03</pdfrwt>
<pdfrwt beam="1">  1       -2 0.21403700E-01 0.15549696E+03</pdfrwt>
<totfact> 0.34283267E+03</totfact>
</mgrwt>
</event>
<event>
 7    1  0.7800420E-006  0.1665287E+03  0.7546771E-02  0.1189928E+00
         -1   -1    0    0    0  501 -0.00000000000E+00  0.00000000000E+00  0.12381933223E+03  0.12381933223E+03  0.00000000000E+00 0.  1.
          1   -1    0    0  501    0  0.00000000000E+00 -0.00000000000E+00 -0.22213242813E+03  0.22213242813E+03  0.00000000000E+00 0. -1.
         23    2    1    2    0    0  0.10304889896E+03 -0.38576485584E+02 -0.12120774051E+03  0.20596873980E+03  0.12499833838E+03 0.  0.
          5    1    3    3  502    0  0.86527559597E+02  0.33144676332E+02 -0.67997395962E+02  0.11502749235E+03  0.47000000000E+01 0.  1.
         -5    1    3    3    0  502  0.16521339365E+02 -0.71721161916E+02 -0.53210344549E+02  0.90941247451E+02  0.47000000000E+01 0.  1.
        -11    1    1    2    0    0 -0.50456508325E+02 -0.86514154883E+01 -0.22560662899E+02  0.55943629957E+02  0.00000000000E+00 0. -1.
         11    1    1    2    0    0 -0.52592390638E+02  0.47227901073E+02  0.45455307512E+02  0.84039390608E+02  0.00000000000E+00 0.  1.
<mgrwt>
<rscale>  0 0.15891457E+03</rscale>
<asrwt>0</asrwt>
<pdfrwt beam="2">  1        1 0.34174220E-01 0.16652869E+03</pdfrwt>
<pdfrwt beam="1">  1       -1 0.19049128E-01 0.16652869E+03</pdfrwt>
<totfact> 0.27414147E+03</totfact>
</mgrwt>
</event>
<event>
 7    1  0.7800420E-006  0.1373615E+03  0.7546771E-02  0.1228711E+00
         -1   -1    0    0    0  501 -0.00000000000E+00  0.00000000000E+00  0.56783829118E+02  0.56783829118E+02  0.00000000000E+00 0.  1.
          1   -1    0    0  501    0  0.00000000000E+00 -0.00000000000E+00 -0.26461577103E+03  0.26461577103E+03  0.00000000000E+00 0. -1.
         23    2    1    2    0    0 -0.45809404730E+02 -0.33795645404E+02 -0.12601781717E+03  0.18640992328E+03  0.12501008777E+03 0.  0.
          5    1    3    3  502    0 -0.85239323491E+02 -0.90640237038E+01 -0.10356349822E+03  0.13451909514E+03  0.47000000000E+01 0.  1.
         -5    1    3    3    0  502  0.39429918761E+02 -0.24731621700E+02 -0.22454318949E+02  0.51890828138E+02  0.47000000000E+01 0.  1.
        -11    1    1    2    0    0  0.48347016787E+02  0.53606157865E+02 -0.27721147564E+02  0.77327331621E+02  0.00000000000E+00 0.  1.
         11    1    1    2    0    0 -0.25376120576E+01 -0.19810512461E+02 -0.54092977180E+02  0.57662345245E+02  0.00000000000E+00 0. -1.
<mgrwt>
<rscale>  0 0.12915791E+03</rscale>
<asrwt>0</asrwt>
<pdfrwt beam="2">  1        1 0.40710118E-01 0.13736145E+03</pdfrwt>
<pdfrwt beam="1">  1       -1 0.87359738E-02 0.13736145E+03</pdfrwt>
<totfact> 0.73476764E+03</totfact>
</mgrwt>
</event>
<event>
 7    1  0.7800420E-006  0.2535102E+03  0.7546771E-02  0.1113834E+00
         -2   -1    0    0    0  501 -0.00000000000E+00  0.00000000000E+00  0.62070432981E+02  0.62070432981E+02  0.00000000000E+00 0.  1.
          2   -1    0    0  501    0  0.00000000000E+00 -0.00000000000E+00 -0.11938213753E+04  0.11938213753E+04  0.00000000000E+00 0. -1.
         23    2    1    2    0    0  0.17915242306E+03 -0.12863206261E+03 -0.85508199876E+03  0.89187030795E+03  0.12500249352E+03 0.  0.
          5    1    3    3  502    0  0.14638411973E+03 -0.72319662322E+02 -0.39908647930E+03  0.43121984188E+03  0.47000000000E+01 0.  1.
         -5    1    3    3    0  502  0.32768303324E+02 -0.56312400288E+02 -0.45599551946E+03  0.46065046607E+03  0.47000000000E+01 0.  1.
        -11    1    1    2    0    0 -0.16910291749E+03  0.10797695488E+03 -0.19729095753E+03  0.28138681812E+03  0.00000000000E+00 0.  1.
         11    1    1    2    0    0 -0.10049505565E+02  0.20655107734E+02 -0.79377986034E+02  0.82634682213E+02  0.00000000000E+00 0. -1.
<mgrwt>
<rscale>  0 0.24916501E+03</rscale>
<asrwt>0</asrwt>
<pdfrwt beam="2">  1        2 0.18366483E+00 0.25351020E+03</pdfrwt>
<pdfrwt beam="1">  1       -2 0.95492970E-02 0.25351020E+03</pdfrwt>
<totfact> 0.14405501E+03</totfact>
</mgrwt>
</event>
<event>
 7    1  0.7800420E-006  0.1191861E+03  0.7546771E-02  0.1254179E+00
         -1   -1    0    0    0  501 -0.00000000000E+00  0.00000000000E+00  0.21927728052E+02  0.21927728052E+02  0.00000000000E+00 0.  1.
          1   -1    0    0  501    0  0.00000000000E+00 -0.00000000000E+00 -0.53890570046E+03  0.53890570046E+03  0.00000000000E+00 0. -1.
         23    2    1    2    0    0 -0.31090545510E+02  0.17430361841E+02 -0.29296996623E+03  0.31628582462E+03  0.11373162361E+03 0.  0.
          5    1    3    3  502    0 -0.61565685517E+02  0.71375634861E+01 -0.26849185954E+03  0.27559253815E+03  0.47000000000E+01 0. -1.
         -5    1    3    3    0  502  0.30475140007E+02  0.10292798355E+02 -0.24478106688E+02  0.40693286466E+02  0.47000000000E+01 0.  1.
        -11    1    1    2    0    0  0.41539592138E+02 -0.48975155158E+02 -0.13379432593E+03  0.14840830566E+03  0.00000000000E+00 0.  1.
         11    1    1    2    0    0 -0.10449046629E+02  0.31544793316E+02 -0.90213680258E+02  0.96139298242E+02  0.00000000000E+00 0. -1.
<mgrwt>
<rscale>  0 0.11352416E+03</rscale>
<asrwt>0</asrwt>
<pdfrwt beam="2">  1        1 0.82908567E-01 0.11918608E+03</pdfrwt>
<pdfrwt beam="1">  1       -1 0.33734967E-02 0.11918608E+03</pdfrwt>
<totfact> 0.12166443E+04</totfact>
</mgrwt>
</event>
<event>
 7    1  0.7800420E-006  0.1252418E+03  0.7546771E-02  0.1249789E+00
         -4   -1    0    0    0  501 -0.00000000000E+00  0.00000000000E+00  0.56201489941E+02  0.56201489941E+02  0.00000000000E+00 0.  1.
          4   -1    0    0  501    0  0.00000000000E+00 -0.00000000000E+00 -0.55980793432E+03  0.55980793432E+03  0.00000000000E+00 0. -1.
         23    2    1    2    0    0 -0.34881512358E+01  0.69368557005E+01 -0.50841272518E+03  0.52361151622E+03  0.12500093449E+03 0.  0.
          5    1    3    3  502    0 -0.41275729035E+02 -0.41675300002E+02 -0.17788745943E+03  0.18736743223E+03  0.47000000000E+01 0. -1.
         -5    1    3    3    0  502  0.37787577799E+02  0.48612155703E+02 -0.33052526575E+03  0.33624408399E+03  0.47000000000E+01 0. -1.
        -11    1    1    2    0    0 -0.26937749613E+02 -0.15214361697E+02  0.36393408593E+02  0.47766089908E+02  0.00000000000E+00 0.  1.
         11    1    1    2    0    0  0.30425900849E+02  0.82775059963E+01 -0.31587127792E+02  0.44631818136E+02  0.00000000000E+00 0. -1.
<mgrwt>
<rscale>  0 0.11603274E+03</rscale>
<asrwt>0</asrwt>
<pdfrwt beam="2">  1        4 0.86124294E-01 0.12524185E+03</pdfrwt>
<pdfrwt beam="1">  1       -4 0.86463834E-02 0.12524185E+03</pdfrwt>
<totfact> 0.19243598E+02</totfact>
</mgrwt>
</event>
<event>
 6    1  0.7800420E-006  0.2768923E+03  0.7546771E-02  0.1139295E+00
          2   -1    0    0  501    0  0.00000000000E+00  0.00000000000E+00  0.23730540917E+03  0.23730540917E+03  0.00000000000E+00 0. -1.
         -2   -1    0    0    0  501 -0.00000000000E+00 -0.00000000000E+00 -0.15250898559E+03  0.15250898559E+03  0.00000000000E+00 0.  1.
          5    1    1    2  502    0  0.66120647547E+02 -0.11848693825E+03  0.41517336074E+02  0.14197490540E+03  0.47000000000E+01 0. -1.
         -5    1    1    2    0  502 -0.34302789574E+02  0.13665415949E+03  0.52962165759E+02  0.15059256848E+03  0.47000000000E+01 0.  1.
        -11    1    1    2    0    0 -0.49623249470E+02 -0.20672801999E+02 -0.36487263203E+02  0.64970393308E+02  0.00000000000E+00 0.  1.
         11    1    1    2    0    0  0.17805391497E+02  0.25055807627E+01  0.26804184949E+02  0.32276527572E+02  0.00000000000E+00 0. -1.
<mgrwt>
<rscale>  0 0.21289292E+03</rscale>
<asrwt>0</asrwt>
<pdfrwt beam="1">  1        2 0.36508525E-01 0.27689231E+03</pdfrwt>
<pdfrwt beam="2">  1       -2 0.23462921E-01 0.27689231E+03</pdfrwt>
<totfact> 0.22406420E+03</totfact>
</mgrwt>
</event>
<event>
 7    1  0.7800420E-006  0.1450513E+03  0.7546771E-02  0.1217262E+00
         -2   -1    0    0    0  501 -0.00000000000E+00  0.00000000000E+00  0.30924397039E+02  0.30924397039E+02  0.00000000000E+00 0.  1.
          2   -1    0    0  501    0  0.00000000000E+00 -0.00000000000E+00 -0.57699565036E+03  0.57699565036E+03  0.00000000000E+00 0. -1.
         23    2    1    2    0    0  0.58036067066E+02  0.45203102255E+02 -0.36734268772E+03  0.39494370585E+03  0.12501349942E+03 0.  0.
          5    1    3    3  502    0 -0.93386192300E+01  0.69647746129E+02 -0.22052747868E+03  0.23150049072E+03  0.47000000000E+01 0.  1.
         -5    1    3    3    0  502  0.67374686296E+02 -0.24444643875E+02 -0.14681520904E+03  0.16344321513E+03  0.47000000000E+01 0.  1.
        -11    1    1    2    0    0 -0.79452617891E+01 -0.20981213792E+02  0.32613482785E+01  0.22671014748E+02  0.00000000000E+00 0.  1.
         11    1    1    2    0    0 -0.50090805277E+02 -0.24221888462E+02 -0.18198991388E+03  0.19030532680E+03  0.00000000000E+00 0. -1.
<mgrwt>
<rscale>  0 0.13711664E+03</rscale>
<asrwt>0</asrwt>
<pdfrwt beam="2">  1        2 0.88768544E-01 0.14505130E+03</pdfrwt>
<pdfrwt beam="1">  1       -2 0.47576005E-02 0.14505130E+03</pdfrwt>
<totfact> 0.10683827E+04</totfact>
</mgrwt>
</event>
<event>
 7    1  0.7800420E-006  0.2256056E+03  0.7546771E-02  0.1132417E+00
         -1   -1    0    0    0  501 -0.00000000000E+00  0.00000000000E+00  0.86262244036E+03  0.86262244036E+03  0.00000000000E+00 0.  1.
          1   -1    0    0  501    0  0.00000000000E+00 -0.00000000000E+00 -0.58486083252E+02  0.58486083252E+02  0.00000000000E+00 0. -1.
         23    2    1    2    0    0  0.14758484438E+03 -0.11617073778E+03  0.52086525888E+03  0.56762531295E+03  0.12498380450E+03 0.  0.
          5    1    3    3  502    0  0.74684366090E+02  0.10626281513E+02  0.22861774946E+03  0.24078795186E+03  0.47000000000E+01 0. -1.
         -5    1    3    3    0  502  0.72900478285E+02 -0.12679701929E+03  0.29224750943E+03  0.32683736109E+03  0.47000000000E+01 0. -1.
        -11    1    1    2    0    0 -0.11020207200E+03  0.45340699361E+02  0.10818186752E+03  0.16094592928E+03  0.00000000000E+00 0.  1.
         11    1    1    2    0    0 -0.37382772376E+02  0.70830038418E+02  0.17508923070E+03  0.19253728138E+03  0.00000000000E+00 0. -1.
<mgrwt>
<rscale>  0 0.22197822E+03</rscale>
<asrwt>0</asrwt>
<pdfrwt beam="2">  1        1 0.89978596E-02 0.22560558E+03</pdfrwt>
<pdfrwt beam="1">  1       -1 0.13271113E+00 0.22560558E+03</pdfrwt>
<totfact> 0.38367008E+02</totfact>
</mgrwt>
</event>
<event>
 7    1  0.7800420E-006  0.1317620E+03  0.7546771E-02  0.1237285E+00
          2   -1    0    0  501    0  0.00000000000E+00  0.00000000000E+00  0.35776050253E+03  0.35776050253E+03  0.00000000000E+00 0. -1.
         -2   -1    0    0    0  501 -0.00000000000E+00 -0.00000000000E+00 -0.38284357916E+02  0.38284357916E+02  0.00000000000E+00 0.  1.
         23    2    1    2    0    0 -0.70178459320E+00 -0.41664875277E+02  0.19001553229E+03  0.23122959293E+03  0.12499907120E+03 0.  0.
          5    1    3    3  502    0  0.11970153828E+02 -0.60997829555E+02  0.19700044173E+03  0.20662837133E+03  0.47000000000E+01 0.  1.
         -5    1    3    3    0  502 -0.12671938422E+02  0.19332954278E+02 -0.69849094425E+01  0.24601221603E+02  0.47000000000E+01 0.  1.
        -11    1    1    2    0    0 -0.32169908560E+02  0.53774612756E+02  0.58719589381E+02  0.85875503905E+02  0.00000000000E+00 0.  1.
         11    1    1    2    0    0  0.32871693154E+02 -0.12109737479E+02  0.70741022942E+02  0.78939763614E+02  0.00000000000E+00 0. -1.
<mgrwt>
<rscale>  0 0.12359269E+03</rscale>
<asrwt>0</asrwt>
<pdfrwt beam="1">  1        2 0.55040075E-01 0.13176199E+03</pdfrwt>
<pdfrwt beam="2">  1       -2 0.58899015E-02 0.13176199E+03</pdfrwt>
<totfact> 0.12935718E+04</totfact>
</mgrwt>
</event>
<event>
 7    1  0.7800420E-006  0.1442598E+03  0.7546771E-02  0.1218176E+00
          2   -1    0    0  501    0  0.00000000000E+00  0.00000000000E+00  0.10404398468E+04  0.10404398468E+04  0.00000000000E+00 0. -1.
         -2   -1    0    0    0  501 -0.00000000000E+00 -0.00000000000E+00 -0.17336922752E+02  0.17336922752E+02  0.00000000000E+00 0.  1.
         23    2    1    2    0    0  0.52186330477E+02 -0.49628901943E+02  0.69844667570E+03  0.71318907191E+03  0.12499780997E+03 0.  0.
          5    1    3    3  502    0  0.30693285119E+02 -0.89099240582E+02  0.54938179013E+03  0.55742550511E+03  0.47000000000E+01 0.  1.
         -5    1    3    3    0  502  0.21493045358E+02  0.39470338639E+02  0.14906488557E+03  0.15576356680E+03  0.47000000000E+01 0.  1.
        -11    1    1    2    0    0 -0.34037623911E+02  0.76063551138E+02  0.24066756063E+03  0.25468627445E+03  0.00000000000E+00 0. -1.
         11    1    1    2    0    0 -0.18148706565E+02 -0.26434649194E+02  0.83988687741E+02  0.89901423217E+02  0.00000000000E+00 0.  1.
<mgrwt>
<rscale>  0 0.13645814E+03</rscale>
<asrwt>0</asrwt>
<pdfrwt beam="1">  1        2 0.16006762E+00 0.14425981E+03</pdfrwt>
<pdfrwt beam="2">  1       -2 0.26672197E-02 0.14425981E+03</pdfrwt>
<totfact> 0.12089318E+04</totfact>
</mgrwt>
</event>
<event>
 7    1  0.7800420E-006  0.1671866E+03  0.7546771E-02  0.1187532E+00
          1   -1    0    0  501    0  0.00000000000E+00  0.00000000000E+00  0.10292978733E+04  0.10292978733E+04  0.00000000000E+00 0. -1.
         -1   -1    0    0    0  501 -0.00000000000E+00 -0.00000000000E+00 -0.27347887518E+02  0.27347887518E+02  0.00000000000E+00 0.  1.
         23    2    1    2    0    0  0.10779663619E+03 -0.26581325395E+02  0.73072670127E+03  0.74960846887E+03  0.12499865207E+03 0.  0.
          5    1    3    3  502    0  0.77525269767E+02 -0.49643631266E+00  0.68203870884E+03  0.68644686922E+03  0.47000000000E+01 0. -1.
         -5    1    3    3    0  502  0.30271366427E+02 -0.26084889082E+02  0.48687992423E+02  0.63161599647E+02  0.47000000000E+01 0. -1.
        -11    1    1    2    0    0  0.52256101899E+01  0.25347792034E+02  0.24420078395E+02  0.35583111045E+02  0.00000000000E+00 0.  1.
         11    1    1    2    0    0 -0.11302224638E+03  0.12335333608E+01  0.24680320617E+03  0.27145418096E+03  0.00000000000E+00 0. -1.
<mgrwt>
<rscale>  0 0.16103604E+03</rscale>
<asrwt>0</asrwt>
<pdfrwt beam="1">  1        1 0.15835349E+00 0.16718656E+03</pdfrwt>
<pdfrwt beam="2">  1       -1 0.42073681E-02 0.16718656E+03</pdfrwt>
<totfact> 0.34276358E+03</totfact>
</mgrwt>
</event>
<event>
 7    1  0.7800420E-006  0.1281247E+03  0.7546771E-02  0.1242411E+00
         -1   -1    0    0    0  501 -0.00000000000E+00  0.00000000000E+00  0.66122107097E+02  0.66122107097E+02  0.00000000000E+00 0.  1.
          1   -1    0    0  501    0  0.00000000000E+00 -0.00000000000E+00 -0.19741964142E+03  0.19741964142E+03  0.00000000000E+00 0. -1.
         23    2    1    2    0    0 -0.27784973980E+02 -0.37853198786E+01 -0.81612772313E+02  0.15190975899E+03  0.12501838603E+03 0.  0.
          5    1    3    3  502    0  0.47700295957E+02 -0.16701458258E+02 -0.25149007452E+02  0.56646443120E+02  0.47000000000E+01 0.  1.
         -5    1    3    3    0  502 -0.75485269937E+02  0.12916138379E+02 -0.56463764861E+02  0.95263315869E+02  0.47000000000E+01 0.  1.
        -11    1    1    2    0    0  0.21428775695E+01  0.28862108811E+02  0.18668700819E+02  0.34440290933E+02  0.00000000000E+00 0.  1.
         11    1    1    2    0    0  0.25642096410E+02 -0.25076788932E+02 -0.68353462834E+02  0.77191698601E+02  0.00000000000E+00 0. -1.
<mgrwt>
<rscale>  0 0.12041684E+03</rscale>
<asrwt>0</asrwt>
<pdfrwt beam="2">  1        1 0.30372252E-01 0.12812467E+03</pdfrwt>
<pdfrwt beam="1">  1       -1 0.10172632E-01 0.12812467E+03</pdfrwt>
<totfact> 0.83354619E+03</totfact>
</mgrwt>
</event>
<event>
 6    1  0.7800420E-006  0.1867613E+03  0.7546771E-02  0.1227169E+00
         -2   -1    0    0    0  501 -0.00000000000E+00  0.00000000000E+00  0.10773358950E+03  0.10773358950E+03  0.00000000000E+00 0.  1.
          2   -1    0    0  501    0  0.00000000000E+00 -0.00000000000E+00 -0.15029954951E+03  0.15029954951E+03  0.00000000000E+00 0. -1.
          5    1    1    2  502    0  0.43133731965E+02 -0.67289576664E+02 -0.91629865707E+02  0.12168207859E+03  0.47000000000E+01 0. -1.
         -5    1    1    2    0  502 -0.70062380074E+02  0.36248738189E+02  0.14563996164E+02  0.80354888502E+02  0.47000000000E+01 0.  1.
        -11    1    1    2    0    0  0.15779726696E+02  0.28249691225E+02  0.22715600081E+02  0.39535342618E+02  0.00000000000E+00 0.  1.
         11    1    1    2    0    0  0.11148921413E+02  0.27911472505E+01  0.11784309460E+02  0.16460829296E+02  0.00000000000E+00 0. -1.
<mgrwt>
<rscale>  0 0.13019349E+03</rscale>
<asrwt>0</asrwt>
<pdfrwt beam="2">  1        2 0.23123008E-01 0.18676131E+03</pdfrwt>
<pdfrwt beam="1">  1       -2 0.16574398E-01 0.18676131E+03</pdfrwt>
<totfact> 0.66005965E+03</totfact>
</mgrwt>
</event>
<event>
 7    1  0.7800420E-006  0.1326656E+03  0.7546771E-02  0.1236603E+00
         -1   -1    0    0    0  501 -0.00000000000E+00  0.00000000000E+00  0.31725727403E+02  0.31725727403E+02  0.00000000000E+00 0.  1.
          1   -1    0    0  501    0  0.00000000000E+00 -0.00000000000E+00 -0.46135845293E+03  0.46135845293E+03  0.00000000000E+00 0. -1.
         23    2    1    2    0    0 -0.36502223989E+02 -0.25358562734E+02 -0.30393962778E+03  0.33163152711E+03  0.12499881349E+03 0.  0.
          5    1    3    3  502    0  0.11466394365E+02  0.40284213829E+02 -0.16763144079E+03  0.17284873741E+03  0.47000000000E+01 0. -1.
         -5    1    3    3    0  502 -0.47968618353E+02 -0.65642776563E+02 -0.13630818699E+03  0.15878278969E+03  0.47000000000E+01 0. -1.
        -11    1    1    2    0    0  0.40597414326E+02  0.53738598388E+02 -0.10941030634E+03  0.12847802202E+03  0.00000000000E+00 0. -1.
         11    1    1    2    0    0 -0.40951903378E+01 -0.28380035654E+02 -0.16282791395E+02  0.32974631207E+02  0.00000000000E+00 0.  1.
<mgrwt>
<rscale>  0 0.12402398E+03</rscale>
<asrwt>0</asrwt>
<pdfrwt beam="2">  1        1 0.70978222E-01 0.13266564E+03</pdfrwt>
<pdfrwt beam="1">  1       -1 0.48808813E-02 0.13266564E+03</pdfrwt>
<totfact> 0.87322627E+03</totfact>
</mgrwt>
</event>
<event>
 7    1  0.7800420E-006  0.1329190E+03  0.7546771E-02  0.1236519E+00
          2   -1    0    0  501    0  0.00000000000E+00  0.00000000000E+00  0.48426037731E+03  0.48426037731E+03  0.00000000000E+00 0.  1.
         -2   -1    0    0    0  501 -0.00000000000E+00 -0.00000000000E+00 -0.30911525442E+02  0.30911525442E+02  0.00000000000E+00 0. -1.
         23    2    1    2    0    0 -0.20347656960E+02  0.40318727572E+02  0.33020990289E+03  0.35595791520E+03  0.12501132144E+03 0.  0.
          5    1    3    3  502    0 -0.62185754037E+02  0.12389116893E+01  0.24762115904E+03  0.25535647889E+03  0.47000000000E+01 0. -1.
         -5    1    3    3    0  502  0.41838097077E+02  0.39079815883E+02  0.82588743853E+02  0.10060143631E+03  0.47000000000E+01 0. -1.
        -11    1    1    2    0    0 -0.32421132128E+02 -0.12475770790E+02  0.74628854517E+02  0.82317923879E+02  0.00000000000E+00 0.  1.
         11    1    1    2    0    0  0.52768789088E+02 -0.27842956782E+02  0.48510094466E+02  0.76896063679E+02  0.00000000000E+00 0. -1.
<mgrwt>
<rscale>  0 0.12407668E+03</rscale>
<asrwt>0</asrwt>
<pdfrwt beam="1">  1        2 0.74501591E-01 0.13291899E+03</pdfrwt>
<pdfrwt beam="2">  1       -2 0.47556196E-02 0.13291899E+03</pdfrwt>
<totfact> 0.12905459E+04</totfact>
</mgrwt>
</event>
<event>
 7    1  0.7800420E-006  0.1269527E+03  0.7546771E-02  0.1248166E+00
         -3   -1    0    0    0  501 -0.00000000000E+00  0.00000000000E+00  0.30841626251E+02  0.30841626251E+02  0.00000000000E+00 0.  1.
          3   -1    0    0  501    0  0.00000000000E+00 -0.00000000000E+00 -0.38749095141E+03  0.38749095141E+03  0.00000000000E+00 0. -1.
         23    2    1    2    0    0 -0.20854649721E+02 -0.75200943975E+01 -0.21536365560E+03  0.24999698755E+03  0.12500208557E+03 0.  0.
          5    1    3    3  502    0 -0.61207708723E+02 -0.41344481025E+01 -0.19490301034E+03  0.20438383182E+03  0.47000000000E+01 0.  1.
         -5    1    3    3    0  502  0.40353059002E+02 -0.33856462951E+01 -0.20460645255E+02  0.45613155733E+02  0.47000000000E+01 0.  1.
        -11    1    1    2    0    0  0.17607267782E+02 -0.26053701610E+02 -0.12845392956E+03  0.13224682705E+03  0.00000000000E+00 0. -1.
         11    1    1    2    0    0  0.32473819384E+01  0.33573796008E+02 -0.12831740009E+02  0.36088763064E+02  0.00000000000E+00 0.  1.
<mgrwt>
<rscale>  0 0.11697851E+03</rscale>
<asrwt>0</asrwt>
<pdfrwt beam="2">  1        3 0.59613994E-01 0.12695271E+03</pdfrwt>
<pdfrwt beam="1">  1       -3 0.47448654E-02 0.12695271E+03</pdfrwt>
<totfact> 0.15718047E+03</totfact>
</mgrwt>
</event>
<event>
 7    1  0.7800420E-006  0.1723114E+03  0.7546771E-02  0.1182825E+00
          2   -1    0    0  501    0  0.00000000000E+00  0.00000000000E+00  0.60482173323E+03  0.60482173323E+03  0.00000000000E+00 0. -1.
         -2   -1    0    0    0  501 -0.00000000000E+00 -0.00000000000E+00 -0.41915079638E+02  0.41915079638E+02  0.00000000000E+00 0.  1.
         23    2    1    2    0    0  0.68483290196E+02  0.96829995304E+02  0.31463105747E+03  0.35872541139E+03  0.12500083770E+03 0.  0.
          5    1    3    3  502    0  0.97732840974E+02  0.52705050252E+02  0.15684522548E+03  0.19222914785E+03  0.47000000000E+01 0. -1.
         -5    1    3    3    0  502 -0.29249550778E+02  0.44124945052E+02  0.15778583200E+03  0.16649626355E+03  0.47000000000E+01 0. -1.
        -11    1    1    2    0    0 -0.32990493811E+02 -0.32898280972E+02  0.18666975006E+03  0.19239611524E+03  0.00000000000E+00 0.  1.
         11    1    1    2    0    0 -0.35492796385E+02 -0.63931714332E+02  0.61605846063E+02  0.95615286235E+02  0.00000000000E+00 0. -1.
<mgrwt>
<rscale>  0 0.16531335E+03</rscale>
<asrwt>0</asrwt>
<pdfrwt beam="1">  1        2 0.93049491E-01 0.17231140E+03</pdfrwt>
<pdfrwt beam="2">  1       -2 0.64484742E-02 0.17231140E+03</pdfrwt>
<totfact> 0.64505832E+03</totfact>
</mgrwt>
</event>
<event>
 7    1  0.7800420E-006  0.1294869E+03  0.7546771E-02  0.1241695E+00
         -1   -1    0    0    0  501 -0.00000000000E+00  0.00000000000E+00  0.94223656893E+02  0.94223656893E+02  0.00000000000E+00 0.  1.
          1   -1    0    0  501    0  0.00000000000E+00 -0.00000000000E+00 -0.13886867559E+03  0.13886867559E+03  0.00000000000E+00 0. -1.
         23    2    1    2    0    0 -0.13375292898E+01  0.33637094922E+02 -0.36312831005E+02  0.13448221645E+03  0.12503440209E+03 0.  0.
          5    1    3    3  502    0  0.12984499221E+02  0.68292716186E+02 -0.58222251605E+02  0.90798749364E+02  0.47000000000E+01 0. -1.
         -5    1    3    3    0  502 -0.14322028511E+02 -0.34655621264E+02  0.21909420600E+02  0.43683467089E+02  0.47000000000E+01 0. -1.
        -11    1    1    2    0    0 -0.43219560112E+01 -0.14009415077E+02  0.41895926776E+02  0.44387066753E+02  0.00000000000E+00 0.  1.
         11    1    1    2    0    0  0.56594853011E+01 -0.19627679845E+02 -0.50228114469E+02  0.54223049279E+02  0.00000000000E+00 0. -1.
<mgrwt>
<rscale>  0 0.12085389E+03</rscale>
<asrwt>0</asrwt>
<pdfrwt beam="2">  1        1 0.21364412E-01 0.12948685E+03</pdfrwt>
<pdfrwt beam="1">  1       -1 0.14495947E-01 0.12948685E+03</pdfrwt>
<totfact> 0.75046267E+03</totfact>
</mgrwt>
</event>
<event>
 6    1  0.7800420E-006  0.1472060E+03  0.7546771E-02  0.1225613E+00
          2   -1    0    0  501    0  0.00000000000E+00  0.00000000000E+00  0.43294485087E+02  0.43294485087E+02  0.00000000000E+00 0. -1.
         -2   -1    0    0    0  501 -0.00000000000E+00 -0.00000000000E+00 -0.33341196417E+03  0.33341196417E+03  0.00000000000E+00 0.  1.
          5    1    1    2  502    0  0.44302847818E+02  0.48834477970E+01  0.23790648404E+01  0.44881403016E+02  0.47000000000E+01 0. -1.
         -5    1    1    2    0  502 -0.40269650292E+02  0.13382131600E+02 -0.18408105508E+03  0.18896732792E+03  0.47000000000E+01 0.  1.
        -11    1    1    2    0    0  0.29483183579E+02  0.19080392129E+02 -0.74291796652E+02  0.82174147562E+02  0.00000000000E+00 0. -1.
         11    1    1    2    0    0 -0.33516381105E+02 -0.37345971525E+02 -0.34123692190E+02  0.60683570760E+02  0.00000000000E+00 0.  1.
<mgrwt>
<rscale>  0 0.13124987E+03</rscale>
<asrwt>0</asrwt>
<pdfrwt beam="1">  1        2 0.66606903E-02 0.14720603E+03</pdfrwt>
<pdfrwt beam="2">  1       -2 0.51294146E-01 0.14720603E+03</pdfrwt>
<totfact> 0.37708431E+03</totfact>
</mgrwt>
</event>
<event>
 7    1  0.7800420E-006  0.2056280E+03  0.7546771E-02  0.1149344E+00
         -1   -1    0    0    0  501 -0.00000000000E+00  0.00000000000E+00  0.63610208669E+02  0.63610208669E+02  0.00000000000E+00 0.  1.
          1   -1    0    0  501    0  0.00000000000E+00 -0.00000000000E+00 -0.60538610251E+03  0.60538610251E+03  0.00000000000E+00 0. -1.
         23    2    1    2    0    0 -0.13634312701E+03 -0.89826468503E+02 -0.30943369571E+03  0.37152667089E+03  0.12499844963E+03 0.  0.
          5    1    3    3  502    0 -0.33682782293E+02  0.23978428476E+02 -0.12461601068E+03  0.13138011635E+03  0.47000000000E+01 0. -1.
         -5    1    3    3    0  502 -0.10266034472E+03 -0.11380489698E+03 -0.18481768503E+03  0.24014655454E+03  0.47000000000E+01 0. -1.
        -11    1    1    2    0    0  0.27343353788E+02  0.58611576247E+02 -0.46080017969E+02  0.79412492232E+02  0.00000000000E+00 0.  1.
         11    1    1    2    0    0  0.10899977323E+03  0.31214892256E+02 -0.18626218016E+03  0.21805714806E+03  0.00000000000E+00 0. -1.
<mgrwt>
<rscale>  0 0.20046905E+03</rscale>
<asrwt>0</asrwt>
<pdfrwt beam="2">  1        1 0.93136325E-01 0.20562795E+03</pdfrwt>
<pdfrwt beam="1">  1       -1 0.97861857E-02 0.20562795E+03</pdfrwt>
<totfact> 0.21741323E+03</totfact>
</mgrwt>
</event>
<event>
 7    1  0.7800420E-006  0.1866993E+03  0.7546771E-02  0.1168118E+00
         -4   -1    0    0    0  501 -0.00000000000E+00  0.00000000000E+00  0.16878741807E+03  0.16878741807E+03  0.00000000000E+00 0.  1.
          4   -1    0    0  501    0  0.00000000000E+00 -0.00000000000E+00 -0.19260078415E+03  0.19260078415E+03  0.00000000000E+00 0. -1.
         23    2    1    2    0    0 -0.13644211314E+03 -0.24807019664E+02 -0.62045838745E+02  0.19673920000E+03  0.12499915299E+03 0.  0.
          5    1    3    3  502    0 -0.73345575548E+02 -0.70836884236E+02 -0.95604770787E+01  0.10252282840E+03  0.47000000000E+01 0.  1.
         -5    1    3    3    0  502 -0.63096537590E+02  0.46029864572E+02 -0.52485361666E+02  0.94216371600E+02  0.47000000000E+01 0.  1.
        -11    1    1    2    0    0  0.47651972429E+02  0.72250585140E+01  0.54424898930E+02  0.72697878720E+02  0.00000000000E+00 0.  1.
         11    1    1    2    0    0  0.88790140709E+02  0.17581961150E+02 -0.16192426273E+02  0.91951123504E+02  0.00000000000E+00 0. -1.
<mgrwt>
<rscale>  0 0.17967506E+03</rscale>
<asrwt>0</asrwt>
<pdfrwt beam="2">  1        4 0.29630890E-01 0.18669929E+03</pdfrwt>
<pdfrwt beam="1">  1       -4 0.25967295E-01 0.18669929E+03</pdfrwt>
<totfact> 0.26730300E+02</totfact>
</mgrwt>
</event>
<event>
 6    1  0.7800420E-006  0.1367108E+03  0.7546771E-02  0.1236785E+00
          2   -1    0    0  501    0  0.00000000000E+00  0.00000000000E+00  0.14735925819E+04  0.14735925819E+04  0.00000000000E+00 0. -1.
         -2   -1    0    0    0  501 -0.00000000000E+00 -0.00000000000E+00 -0.10514516482E+02  0.10514516482E+02  0.00000000000E+00 0.  1.
          5    1    1    2  502    0 -0.48743171053E+02  0.41262058671E+02  0.78934912477E+03  0.79194228640E+03  0.47000000000E+01 0. -1.
         -5    1    1    2    0  502  0.41763824738E+02 -0.46519639055E+02  0.34895095155E+03  0.35453793938E+03  0.47000000000E+01 0.  1.
        -11    1    1    2    0    0 -0.28330990984E+02  0.27520868621E+02  0.23887951070E+03  0.24212282811E+03  0.00000000000E+00 0. -1.
         11    1    1    2    0    0  0.35310337299E+02 -0.22263288237E+02  0.85898478413E+02  0.95504044506E+02  0.00000000000E+00 0.  1.
<mgrwt>
<rscale>  0 0.12390840E+03</rscale>
<asrwt>0</asrwt>
<pdfrwt beam="1">  1        2 0.22670639E+00 0.13671081E+03</pdfrwt>
<pdfrwt beam="2">  1       -2 0.16176191E-02 0.13671081E+03</pdfrwt>
<totfact> 0.14433397E+04</totfact>
</mgrwt>
</event>
<event>
 7    1  0.7800420E-006  0.1720621E+03  0.7546771E-02  0.1181605E+00
          1   -1    0    0  501    0  0.00000000000E+00  0.00000000000E+00  0.12755376518E+03  0.12755376518E+03  0.00000000000E+00 0. -1.
         -1   -1    0    0    0  501 -0.00000000000E+00 -0.00000000000E+00 -0.22257303555E+03  0.22257303555E+03  0.00000000000E+00 0.  1.
         23    2    1    2    0    0  0.10444464137E+03  0.55447942376E+02 -0.13089642439E+00  0.17206212034E+03  0.12498879428E+03 0.  0.
          5    1    3    3  502    0  0.27686429417E+02  0.19655232906E+02  0.59297534959E+02  0.68492001041E+02  0.47000000000E+01 0. -1.
         -5    1    3    3    0  502  0.76758211957E+02  0.35792709470E+02 -0.59428431383E+02  0.10357011930E+03  0.47000000000E+01 0. -1.
        -11    1    1    2    0    0 -0.42003349850E+02  0.11854070441E+02 -0.70765211049E+02  0.83141538832E+02  0.00000000000E+00 0.  1.
         11    1    1    2    0    0 -0.62441291524E+02 -0.67302012817E+02 -0.24123162893E+02  0.94923141564E+02  0.00000000000E+00 0. -1.
<mgrwt>
<rscale>  0 0.16644655E+03</rscale>
<asrwt>0</asrwt>
<pdfrwt beam="1">  1        1 0.19623656E-01 0.17206207E+03</pdfrwt>
<pdfrwt beam="2">  1       -1 0.34242005E-01 0.17206207E+03</pdfrwt>
<totfact> 0.20896611E+03</totfact>
</mgrwt>
</event>
<event>
 7    1  0.7800420E-006  0.1517239E+03  0.7546771E-02  0.1208415E+00
         -2   -1    0    0    0  501 -0.00000000000E+00  0.00000000000E+00  0.52878529884E+02  0.52878529884E+02  0.00000000000E+00 0. -1.
          2   -1    0    0  501    0  0.00000000000E+00 -0.00000000000E+00 -0.54228783859E+03  0.54228783859E+03  0.00000000000E+00 0.  1.
         23    2    1    2    0    0 -0.63776858366E+02  0.57682086052E+02 -0.43639480267E+03  0.46201793746E+03  0.12500176008E+03 0.  0.
          5    1    3    3  502    0 -0.62024359066E+02 -0.26244350796E+02 -0.18468866290E+03  0.19664124509E+03  0.47000000000E+01 0. -1.
         -5    1    3    3    0  502 -0.17524992998E+01  0.83926436848E+02 -0.25170613977E+03  0.26537669237E+03  0.47000000000E+01 0. -1.
        -11    1    1    2    0    0  0.38905574014E+02 -0.11724586939E+02 -0.67620198917E+02  0.78889802445E+02  0.00000000000E+00 0.  1.
         11    1    1    2    0    0  0.24871284352E+02 -0.45957499113E+02  0.14605692878E+02  0.54258628572E+02  0.00000000000E+00 0. -1.
<mgrwt>
<rscale>  0 0.14371572E+03</rscale>
<asrwt>0</asrwt>
<pdfrwt beam="2">  1        2 0.83428899E-01 0.15172393E+03</pdfrwt>
<pdfrwt beam="1">  1       -2 0.81351583E-02 0.15172393E+03</pdfrwt>
<totfact> 0.50718227E+03</totfact>
</mgrwt>
</event>
<event>
 7    1  0.7800420E-006  0.1818343E+03  0.7546771E-02  0.1171816E+00
          1   -1    0    0  501    0  0.00000000000E+00  0.00000000000E+00  0.12947548581E+03  0.12947548581E+03  0.00000000000E+00 0. -1.
         -1   -1    0    0    0  501 -0.00000000000E+00 -0.00000000000E+00 -0.35070288201E+03  0.35070288201E+03  0.00000000000E+00 0.  1.
         23    2    1    2    0    0  0.82706320344E+02  0.10294780822E+03  0.28420201642E+02  0.18404187490E+03  0.12500046886E+03 0.  0.
          5    1    3    3  502    0 -0.15523665942E+02  0.78047657675E+02  0.46629558957E+01  0.79851451023E+02  0.47000000000E+01 0.  1.
         -5    1    3    3    0  502  0.98229986286E+02  0.24900150546E+02  0.23757245746E+02  0.10419042388E+03  0.47000000000E+01 0.  1.
        -11    1    1    2    0    0  0.18163537145E+01 -0.42070852822E+02 -0.13415885089E+03  0.14061242146E+03  0.00000000000E+00 0.  1.
         11    1    1    2    0    0 -0.84522674059E+02 -0.60876955400E+02 -0.11548874696E+03  0.15552407146E+03  0.00000000000E+00 0. -1.
<mgrwt>
<rscale>  0 0.17591508E+03</rscale>
<asrwt>0</asrwt>
<pdfrwt beam="1">  1        1 0.19919306E-01 0.18183428E+03</pdfrwt>
<pdfrwt beam="2">  1       -1 0.53954289E-01 0.18183428E+03</pdfrwt>
<totfact> 0.91026799E+02</totfact>
</mgrwt>
</event>
<event>
 7    1  0.7800420E-006  0.1300258E+03  0.7546771E-02  0.1241127E+00
          1   -1    0    0  501    0  0.00000000000E+00  0.00000000000E+00  0.81688521361E+02  0.81688521361E+02  0.00000000000E+00 0. -1.
         -1   -1    0    0    0  501 -0.00000000000E+00 -0.00000000000E+00 -0.16728822822E+03  0.16728822822E+03  0.00000000000E+00 0.  1.
         23    2    1    2    0    0  0.23767237533E+02 -0.26772827614E+02 -0.21638892504E+02  0.13181408538E+03  0.12500018223E+03 0.  0.
          5    1    3    3  502    0  0.62368045258E+02 -0.44936219562E+01 -0.48757922094E+02  0.79431672993E+02  0.47000000000E+01 0.  1.
         -5    1    3    3    0  502 -0.38600807725E+02 -0.22279205657E+02  0.27119029590E+02  0.52382412389E+02  0.47000000000E+01 0.  1.
        -11    1    1    2    0    0 -0.28277429502E+02 -0.28582505182E+02 -0.39872744502E+02  0.56625156741E+02  0.00000000000E+00 0.  1.
         11    1    1    2    0    0  0.45101919696E+01  0.55355332795E+02 -0.24088069857E+02  0.60537507464E+02  0.00000000000E+00 0. -1.
<mgrwt>
<rscale>  0 0.12120202E+03</rscale>
<asrwt>0</asrwt>
<pdfrwt beam="1">  1        1 0.12567465E-01 0.13002581E+03</pdfrwt>
<pdfrwt beam="2">  1       -1 0.25736650E-01 0.13002581E+03</pdfrwt>
<totfact> 0.59259467E+03</totfact>
</mgrwt>
</event>
<event>
 7    1  0.7800420E-006  0.1667520E+03  0.7546771E-02  0.1186169E+00
          1   -1    0    0  501    0  0.00000000000E+00  0.00000000000E+00  0.38524244405E+03  0.38524244405E+03  0.00000000000E+00 0. -1.
         -1   -1    0    0    0  501 -0.00000000000E+00 -0.00000000000E+00 -0.65449614161E+02  0.65449614161E+02  0.00000000000E+00 0.  1.
         23    2    1    2    0    0  0.72029898615E+02  0.83614123065E+02  0.18912568286E+03  0.25214034417E+03  0.12500640532E+03 0.  0.
          5    1    3    3  502    0  0.49921815079E+02 -0.24792832235E+02  0.67113061302E+02  0.87367758059E+02  0.47000000000E+01 0.  1.
         -5    1    3    3    0  502  0.22108083536E+02  0.10840695530E+03  0.12201262156E+03  0.16477258611E+03  0.47000000000E+01 0.  1.
        -11    1    1    2    0    0 -0.87505908406E+02 -0.30241031321E+02  0.94212898430E+02  0.13209040166E+03  0.00000000000E+00 0.  1.
         11    1    1    2    0    0  0.15476009791E+02 -0.53373091745E+02  0.36454248597E+02  0.66461312372E+02  0.00000000000E+00 0. -1.
<mgrwt>
<rscale>  0 0.16225955E+03</rscale>
<asrwt>0</asrwt>
<pdfrwt beam="1">  1        1 0.59268067E-01 0.16675200E+03</pdfrwt>
<pdfrwt beam="2">  1       -1 0.10069172E-01 0.16675200E+03</pdfrwt>
<totfact> 0.37443019E+03</totfact>
</mgrwt>
</event>
<event>
 7    1  0.7800420E-006  0.1306138E+03  0.7546771E-02  0.1240388E+00
         -1   -1    0    0    0  501 -0.00000000000E+00  0.00000000000E+00  0.16260361064E+03  0.16260361064E+03  0.00000000000E+00 0.  1.
          1   -1    0    0  501    0  0.00000000000E+00 -0.00000000000E+00 -0.99333610143E+02  0.99333610143E+02  0.00000000000E+00 0. -1.
         23    2    1    2    0    0 -0.12257060857E+02  0.35839497314E+02 -0.21202501608E+02  0.13232355388E+03  0.12500108691E+03 0.  0.
          5    1    3    3  502    0 -0.35179434344E+02 -0.25573457649E+02 -0.44686044901E+02  0.62534206206E+02  0.47000000000E+01 0. -1.
         -5    1    3    3    0  502  0.22922373487E+02  0.61412954963E+02  0.23483543293E+02  0.69789347677E+02  0.47000000000E+01 0. -1.
        -11    1    1    2    0    0  0.32200369636E+02  0.39594769379E+01  0.78193569804E+02  0.84656810837E+02  0.00000000000E+00 0.  1.
         11    1    1    2    0    0 -0.19943308779E+02 -0.39798974252E+02  0.62789323041E+01  0.44956856067E+02  0.00000000000E+00 0. -1.
<mgrwt>
<rscale>  0 0.12165700E+03</rscale>
<asrwt>0</asrwt>
<pdfrwt beam="2">  1        1 0.15282094E-01 0.13061385E+03</pdfrwt>
<pdfrwt beam="1">  1       -1 0.25015940E-01 0.13061385E+03</pdfrwt>
<totfact> 0.48175532E+03</totfact>
</mgrwt>
</event>
<event>
 7    1  0.7800420E-006  0.2718822E+03  0.7546771E-02  0.1102380E+00
         -2   -1    0    0    0  501 -0.00000000000E+00  0.00000000000E+00  0.55881318708E+02  0.55881318708E+02  0.00000000000E+00 0.  1.
          2   -1    0    0  501    0  0.00000000000E+00 -0.00000000000E+00 -0.12797201118E+04  0.12797201118E+04  0.00000000000E+00 0. -1.
         23    2    1    2    0    0  0.18720511709E+03  0.15247763340E+03 -0.52954026848E+03  0.59525860539E+03  0.12499890720E+03 0.  0.
          5    1    3    3  502    0  0.15033269240E+03  0.15764927646E+03 -0.35344856803E+03  0.41521222647E+03  0.47000000000E+01 0. -1.
         -5    1    3    3    0  502  0.36872424690E+02 -0.51716430558E+01 -0.17609170045E+03  0.18004637892E+03  0.47000000000E+01 0. -1.
        -11    1    1    2    0    0 -0.11085586793E+03 -0.52232709457E+02 -0.24843047084E+03  0.27701079083E+03  0.00000000000E+00 0.  1.
         11    1    1    2    0    0 -0.76349249167E+02 -0.10024492395E+03 -0.44586805381E+03  0.46333203433E+03  0.00000000000E+00 0. -1.
<mgrwt>
<rscale>  0 0.26808681E+03</rscale>
<asrwt>0</asrwt>
<pdfrwt beam="2">  1        2 0.19688001E+00 0.27188216E+03</pdfrwt>
<pdfrwt beam="1">  1       -2 0.85971263E-02 0.27188216E+03</pdfrwt>
<totfact> 0.15209680E+03</totfact>
</mgrwt>
</event>
<event>
 7    1  0.7800420E-006  0.1599663E+03  0.7546771E-02  0.1196317E+00
         -1   -1    0    0    0  501 -0.00000000000E+00  0.00000000000E+00  0.65637446310E+02  0.65637446310E+02  0.00000000000E+00 0.  1.
          1   -1    0    0  501    0  0.00000000000E+00 -0.00000000000E+00 -0.36459436550E+03  0.36459436550E+03  0.00000000000E+00 0. -1.
         23    2    1    2    0    0 -0.28597854178E+02  0.95635669242E+02 -0.22467117631E+03  0.27580128988E+03  0.12500078216E+03 0.  0.
          5    1    3    3  502    0  0.47180727130E+02  0.52205190951E+02 -0.12206424843E+03  0.14097224450E+03  0.47000000000E+01 0.  1.
         -5    1    3    3    0  502 -0.75778581308E+02  0.43430478291E+02 -0.10260692788E+03  0.13482904538E+03  0.47000000000E+01 0.  1.
        -11    1    1    2    0    0  0.48153252701E+02 -0.96876006167E+02 -0.79382586844E+02  0.13418379712E+03  0.00000000000E+00 0. -1.
         11    1    1    2    0    0 -0.19555398523E+02  0.12403369252E+01  0.50968439593E+01  0.20246724807E+02  0.00000000000E+00 0.  1.
<mgrwt>
<rscale>  0 0.15343269E+03</rscale>
<asrwt>0</asrwt>
<pdfrwt beam="2">  1        1 0.56091441E-01 0.15996629E+03</pdfrwt>
<pdfrwt beam="1">  1       -1 0.10098069E-01 0.15996629E+03</pdfrwt>
<totfact> 0.39887600E+03</totfact>
</mgrwt>
</event>
<event>
 7    1  0.7800420E-006  0.2419392E+03  0.7546771E-02  0.1121000E+00
         -1   -1    0    0    0  501 -0.00000000000E+00  0.00000000000E+00  0.25377901034E+03  0.25377901034E+03  0.00000000000E+00 0.  1.
          1   -1    0    0  501    0  0.00000000000E+00 -0.00000000000E+00 -0.27810143372E+03  0.27810143372E+03  0.00000000000E+00 0. -1.
         23    2    1    2    0    0  0.16456314668E+03 -0.12580592654E+03 -0.13714793795E+03  0.27810809944E+03  0.12500559065E+03 0.  0.
          5    1    3    3  502    0  0.18283859631E+03 -0.97893881551E+02 -0.12551074232E+03  0.24246278226E+03  0.47000000000E+01 0.  1.
         -5    1    3    3    0  502 -0.18275449629E+02 -0.27912044993E+02 -0.11637195633E+02  0.35645317183E+02  0.47000000000E+01 0.  1.
        -11    1    1    2    0    0 -0.74794679481E+02  0.11452753319E+03  0.70522626699E+02  0.15389685121E+03  0.00000000000E+00 0. -1.
         11    1    1    2    0    0 -0.89768467200E+02  0.11278393358E+02  0.42302887867E+02  0.99875493401E+02  0.00000000000E+00 0.  1.
<mgrwt>
<rscale>  0 0.23819645E+03</rscale>
<asrwt>0</asrwt>
<pdfrwt beam="2">  1        1 0.42784836E-01 0.24193916E+03</pdfrwt>
<pdfrwt beam="1">  1       -1 0.39042925E-01 0.24193916E+03</pdfrwt>
<totfact> 0.62434119E+02</totfact>
</mgrwt>
</event>
<event>
 7    1  0.7800420E-006  0.1385607E+03  0.7546771E-02  0.1224123E+00
          2   -1    0    0  501    0  0.00000000000E+00  0.00000000000E+00  0.95899102618E+03  0.95899102618E+03  0.00000000000E+00 0. -1.
         -2   -1    0    0    0  501 -0.00000000000E+00 -0.00000000000E+00 -0.17930331241E+02  0.17930331241E+02  0.00000000000E+00 0.  1.
         23    2    1    2    0    0 -0.53275334532E+02  0.27144454515E+02  0.63508182896E+03  0.65002152640E+03  0.12499589043E+03 0.  0.
          5    1    3    3  502    0 -0.29852112156E+02 -0.23373382211E+02  0.52667779146E+03  0.52806159642E+03  0.47000000000E+01 0. -1.
         -5    1    3    3    0  502 -0.23423222376E+02  0.50517836725E+02  0.10840403750E+03  0.12195992998E+03  0.47000000000E+01 0. -1.
        -11    1    1    2    0    0 -0.25338223520E+02  0.61518935637E+01  0.41774042055E+02  0.49243699650E+02  0.00000000000E+00 0.  1.
         11    1    1    2    0    0  0.78613558052E+02 -0.33296348078E+02  0.26420482392E+03  0.27765613137E+03  0.00000000000E+00 0. -1.
<mgrwt>
<rscale>  0 0.13227194E+03</rscale>
<asrwt>0</asrwt>
<pdfrwt beam="1">  1        2 0.14753704E+00 0.13856066E+03</pdfrwt>
<pdfrwt beam="2">  1       -2 0.27585132E-02 0.13856066E+03</pdfrwt>
<totfact> 0.12843829E+04</totfact>
</mgrwt>
</event>
<event>
 6    1  0.7800420E-006  0.2929923E+03  0.7546771E-02  0.1111297E+00
         -1   -1    0    0    0  501 -0.00000000000E+00  0.00000000000E+00  0.22673948279E+03  0.22673948279E+03  0.00000000000E+00 0.  1.
          1   -1    0    0  501    0  0.00000000000E+00 -0.00000000000E+00 -0.23386402007E+03  0.23386402007E+03  0.00000000000E+00 0. -1.
          5    1    1    2  502    0  0.17799869866E+03  0.10023193937E+03 -0.10632113606E+02  0.20460965332E+03  0.47000000000E+01 0. -1.
         -5    1    1    2    0  502 -0.45303849541E+02 -0.74427715457E+02 -0.23476642780E+02  0.90361310126E+02  0.47000000000E+01 0.  1.
        -11    1    1    2    0    0 -0.11655320925E+03  0.16900586521E+01  0.49459571447E+02  0.12662446878E+03  0.00000000000E+00 0.  1.
         11    1    1    2    0    0 -0.16141639867E+02 -0.27494282562E+02 -0.22475352346E+02  0.39008070630E+02  0.00000000000E+00 0. -1.
<mgrwt>
<rscale>  0 0.25320262E+03</rscale>
<asrwt>0</asrwt>
<pdfrwt beam="2">  1        1 0.35979080E-01 0.29299226E+03</pdfrwt>
<pdfrwt beam="1">  1       -1 0.34882997E-01 0.29299226E+03</pdfrwt>
<totfact> 0.94736228E+02</totfact>
</mgrwt>
</event>
<event>
 7    1  0.7800420E-006  0.1375162E+03  0.7546771E-02  0.1235068E+00
         -1   -1    0    0    0  501 -0.00000000000E+00  0.00000000000E+00  0.22951064271E+03  0.22951064271E+03  0.00000000000E+00 0.  1.
          1   -1    0    0  501    0  0.00000000000E+00 -0.00000000000E+00 -0.58864478077E+02  0.58864478077E+02  0.00000000000E+00 0. -1.
         23    2    1    2    0    0  0.54101596572E+02 -0.18875135361E+02  0.11480252299E+03  0.17913769410E+03  0.12500976232E+03 0.  0.
          5    1    3    3  502    0  0.62945512364E+02  0.39960482930E+02  0.82410641245E+02  0.11123210649E+03  0.47000000000E+01 0. -1.
         -5    1    3    3    0  502 -0.88439157926E+01 -0.58835618291E+02  0.32391881750E+02  0.67905587616E+02  0.47000000000E+01 0. -1.
        -11    1    1    2    0    0 -0.46182794510E+02  0.44235056797E+02  0.25343221461E+02  0.68788586499E+02  0.00000000000E+00 0. -1.
         11    1    1    2    0    0 -0.79188020619E+01 -0.25359921436E+02  0.30500420181E+02  0.40448840188E+02  0.00000000000E+00 0.  1.
<mgrwt>
<rscale>  0 0.12500109E+03</rscale>
<asrwt>0</asrwt>
<pdfrwt beam="2">  1        1 0.90560737E-02 0.13751616E+03</pdfrwt>
<pdfrwt beam="1">  1       -1 0.35309329E-01 0.13751616E+03</pdfrwt>
<totfact> 0.53884087E+03</totfact>
</mgrwt>
</event>
<event>
 7    1  0.7800420E-006  0.1926729E+03  0.7546771E-02  0.1160815E+00
         -2   -1    0    0    0  501 -0.00000000000E+00  0.00000000000E+00  0.87415656399E+03  0.87415656399E+03  0.00000000000E+00 0.  1.
          2   -1    0    0  501    0  0.00000000000E+00 -0.00000000000E+00 -0.38180369486E+02  0.38180369486E+02  0.00000000000E+00 0. -1.
         23    2    1    2    0    0  0.14162337701E+03  0.37905745354E+02  0.45705833186E+03  0.49600925091E+03  0.12501532633E+03 0.  0.
          5    1    3    3  502    0  0.45008212570E+02 -0.32632195954E+02  0.62932369713E+02  0.84102155557E+02  0.47000000000E+01 0.  1.
         -5    1    3    3    0  502  0.96615164444E+02  0.70537941309E+02  0.39412596215E+03  0.41190709536E+03  0.47000000000E+01 0.  1.
        -11    1    1    2    0    0 -0.68837533916E+02 -0.94672740530E+01  0.28882763933E+03  0.29706841063E+03  0.00000000000E+00 0.  1.
         11    1    1    2    0    0 -0.72785843099E+02 -0.28438471301E+02  0.90090223315E+02  0.11925927194E+03  0.00000000000E+00 0. -1.
<mgrwt>
<rscale>  0 0.18741372E+03</rscale>
<asrwt>0</asrwt>
<pdfrwt beam="2">  1        2 0.58739037E-02 0.19267293E+03</pdfrwt>
<pdfrwt beam="1">  1       -2 0.13448561E+00 0.19267293E+03</pdfrwt>
<totfact> 0.52746637E+02</totfact>
</mgrwt>
</event>
<event>
 7    1  0.7800420E-006  0.1286441E+03  0.7546771E-02  0.1244128E+00
         -2   -1    0    0    0  501 -0.00000000000E+00  0.00000000000E+00  0.39114636245E+02  0.39114636245E+02  0.00000000000E+00 0.  1.
          2   -1    0    0  501    0  0.00000000000E+00 -0.00000000000E+00 -0.32202057034E+03  0.32202057034E+03  0.00000000000E+00 0. -1.
         23    2    1    2    0    0  0.15125163911E+02 -0.26350214931E+02 -0.17334482261E+03  0.21586504986E+03  0.12500475117E+03 0.  0.
          5    1    3    3  502    0  0.19510306997E+02  0.37308399001E+02 -0.13450064166E+03  0.14101447203E+03  0.47000000000E+01 0.  1.
         -5    1    3    3    0  502 -0.43851430858E+01 -0.63658613932E+02 -0.38844180949E+02  0.74850577828E+02  0.47000000000E+01 0.  1.
        -11    1    1    2    0    0  0.25967890326E+02 -0.99223777186E+01 -0.76179767981E+02  0.81093415005E+02  0.00000000000E+00 0. -1.
         11    1    1    2    0    0 -0.41093054237E+02  0.36272592649E+02 -0.33381343508E+02  0.64176741725E+02  0.00000000000E+00 0.  1.
<mgrwt>
<rscale>  0 0.11937714E+03</rscale>
<asrwt>0</asrwt>
<pdfrwt beam="2">  1        2 0.49541625E-01 0.12864405E+03</pdfrwt>
<pdfrwt beam="1">  1       -2 0.60176365E-02 0.12864405E+03</pdfrwt>
<totfact> 0.13972210E+04</totfact>
</mgrwt>
</event>
<event>
 7    1  0.7800420E-006  0.1132116E+03  0.7546771E-02  0.1273072E+00
         -1   -1    0    0    0  501 -0.00000000000E+00  0.00000000000E+00  0.14121506962E+03  0.14121506962E+03  0.00000000000E+00 0.  1.
          1   -1    0    0  501    0  0.00000000000E+00 -0.00000000000E+00 -0.85956011424E+02  0.85956011424E+02  0.00000000000E+00 0. -1.
         23    2    1    2    0    0  0.16551550562E+01 -0.22200255506E+02 -0.23390063734E+02  0.11560255433E+03  0.11100119190E+03 0.  0.
          5    1    3    3  502    0  0.47149356661E+02  0.70244308821E+01  0.13750478867E+02  0.49835430487E+02  0.47000000000E+01 0. -1.
         -5    1    3    3    0  502 -0.45494201605E+02 -0.29224686388E+02 -0.37140542601E+02  0.65767123845E+02  0.47000000000E+01 0.  1.
        -11    1    1    2    0    0  0.27096318351E+00  0.36868311832E+02  0.59097064014E+01  0.37339931282E+02  0.00000000000E+00 0.  1.
         11    1    1    2    0    0 -0.19261182397E+01 -0.14668056326E+02  0.72739415532E+02  0.74228595432E+02  0.00000000000E+00 0. -1.
<mgrwt>
<rscale>  0 0.10351562E+03</rscale>
<asrwt>0</asrwt>
<pdfrwt beam="2">  1        1 0.13224002E-01 0.11321155E+03</pdfrwt>
<pdfrwt beam="1">  1       -1 0.21725395E-01 0.11321155E+03</pdfrwt>
<totfact> 0.72323435E+03</totfact>
</mgrwt>
</event>
<event>
 6    1  0.7800420E-006  0.1695632E+03  0.7546771E-02  0.1187074E+00
          2   -1    0    0  501    0  0.00000000000E+00  0.00000000000E+00  0.62178074172E+03  0.62178074172E+03  0.00000000000E+00 0. -1.
         -2   -1    0    0    0  501 -0.00000000000E+00 -0.00000000000E+00 -0.39885079100E+02  0.39885079100E+02  0.00000000000E+00 0.  1.
          5    1    1    2  502    0 -0.12600450826E+02  0.25568053834E+02  0.30936214736E+03  0.31070810250E+03  0.47000000000E+01 0. -1.
         -5    1    1    2    0  502 -0.68556273439E+02  0.39081524646E+02  0.73161258287E+02  0.10771252439E+03  0.47000000000E+01 0.  1.
        -11    1    1    2    0    0  0.72749545524E+02 -0.82960256540E+02  0.19263876037E+03  0.22200133454E+03  0.00000000000E+00 0. -1.
         11    1    1    2    0    0  0.84071787408E+01  0.18310678060E+02  0.67334965985E+01  0.21243859391E+02  0.00000000000E+00 0.  1.
<mgrwt>
<rscale>  0 0.16144581E+03</rscale>
<asrwt>0</asrwt>
<pdfrwt beam="1">  1        2 0.95658569E-01 0.16956316E+03</pdfrwt>
<pdfrwt beam="2">  1       -2 0.61361664E-02 0.16956316E+03</pdfrwt>
<totfact> 0.67352922E+03</totfact>
</mgrwt>
</event>
<event>
 7    1  0.7800420E-006  0.1336569E+03  0.7546771E-02  0.1229976E+00
          3   -1    0    0  501    0  0.00000000000E+00  0.00000000000E+00  0.13146562262E+04  0.13146562262E+04  0.00000000000E+00 0. -1.
         -3   -1    0    0    0  501 -0.00000000000E+00 -0.00000000000E+00 -0.13635387439E+02  0.13635387439E+02  0.00000000000E+00 0.  1.
         23    2    1    2    0    0  0.14692451525E+02 -0.43714708275E+02  0.95022014177E+03  0.95957411286E+03  0.12544846112E+03 0.  0.
          5    1    3    3  502    0  0.22631939800E+02  0.17916905972E+02  0.73321659596E+03  0.73379962306E+03  0.47000000000E+01 0.  1.
         -5    1    3    3    0  502 -0.79394882753E+01 -0.61631614248E+02  0.21700354581E+03  0.22577448980E+03  0.47000000000E+01 0.  1.
        -11    1    1    2    0    0 -0.51357436198E+02 -0.60361485851E+01  0.15575207041E+03  0.16411193979E+03  0.00000000000E+00 0.  1.
         11    1    1    2    0    0  0.36664984673E+02  0.49750856861E+02  0.19504862661E+03  0.20460556103E+03  0.00000000000E+00 0. -1.
<mgrwt>
<rscale>  0 0.12831613E+03</rscale>
<asrwt>0</asrwt>
<pdfrwt beam="1">  1        3 0.20225470E+00 0.13365688E+03</pdfrwt>
<pdfrwt beam="2">  1       -3 0.20977530E-02 0.13365688E+03</pdfrwt>
<totfact> 0.32336214E+02</totfact>
</mgrwt>
</event>
<event>
 7    1  0.7800420E-006  0.2000989E+03  0.7546771E-02  0.1153750E+00
          2   -1    0    0  501    0  0.00000000000E+00  0.00000000000E+00  0.20408375106E+04  0.20408375106E+04  0.00000000000E+00 0. -1.
         -2   -1    0    0    0  501 -0.00000000000E+00 -0.00000000000E+00 -0.23626159057E+02  0.23626159057E+02  0.00000000000E+00 0.  1.
         23    2    1    2    0    0 -0.48930599472E+02 -0.14839569793E+03  0.15552729244E+04  0.15680922908E+04  0.12499630565E+03 0.  0.
          5    1    3    3  502    0 -0.28876229580E+01  0.35932830412E+01  0.22405201711E+01  0.69541340222E+01  0.47000000000E+01 0.  1.
         -5    1    3    3    0  502 -0.46042976514E+02 -0.15198898097E+03  0.15530324042E+04  0.15611381568E+04  0.47000000000E+01 0.  1.
        -11    1    1    2    0    0  0.72411365127E+02  0.10294372416E+03  0.27276262719E+03  0.30040017799E+03  0.00000000000E+00 0.  1.
         11    1    1    2    0    0 -0.23480765655E+02  0.45451973771E+02  0.18917580001E+03  0.19597120091E+03  0.00000000000E+00 0. -1.
<mgrwt>
<rscale>  0 0.19531856E+03</rscale>
<asrwt>0</asrwt>
<pdfrwt beam="1">  1        2 0.31397486E+00 0.20009888E+03</pdfrwt>
<pdfrwt beam="2">  1       -2 0.36347953E-02 0.20009888E+03</pdfrwt>
<totfact> 0.22533625E+03</totfact>
</mgrwt>
</event>
<event>
 7    1  0.7800420E-006  0.1383352E+03  0.7546771E-02  0.1227307E+00
          1   -1    0    0  501    0  0.00000000000E+00  0.00000000000E+00  0.19294852675E+04  0.19294852675E+04  0.00000000000E+00 0. -1.
         -1   -1    0    0    0  501 -0.00000000000E+00 -0.00000000000E+00 -0.10636170200E+02  0.10636170200E+02  0.00000000000E+00 0.  1.
         23    2    1    2    0    0 -0.59106673955E+02 -0.38312491054E+01  0.15375789805E+04  0.15437894090E+04  0.12501336198E+03 0.  0.
          5    1    3    3  502    0  0.21502176201E+01 -0.33328636626E+02  0.12215045215E+03  0.12672112853E+03  0.47000000000E+01 0. -1.
         -5    1    3    3    0  502 -0.61256891575E+02  0.29497387521E+02  0.14154285284E+04  0.14170682805E+04  0.47000000000E+01 0. -1.
        -11    1    1    2    0    0  0.53849489470E+02  0.38473149192E+02  0.30910416035E+03  0.31610968455E+03  0.00000000000E+00 0. -1.
         11    1    1    2    0    0  0.52571844847E+01 -0.34641900086E+02  0.72165956450E+02  0.80222344148E+02  0.00000000000E+00 0.  1.
<mgrwt>
<rscale>  0 0.13010055E+03</rscale>
<asrwt>0</asrwt>
<pdfrwt beam="1">  1        1 0.29684361E+00 0.13833517E+03</pdfrwt>
<pdfrwt beam="2">  1       -1 0.16363354E-02 0.13833517E+03</pdfrwt>
<totfact> 0.34264649E+03</totfact>
</mgrwt>
</event>
<event>
 7    1  0.7800420E-006  0.1415660E+03  0.7546771E-02  0.1222616E+00
         -1   -1    0    0    0  501 -0.00000000000E+00  0.00000000000E+00  0.33993787001E+03  0.33993787001E+03  0.00000000000E+00 0.  1.
          1   -1    0    0  501    0  0.00000000000E+00 -0.00000000000E+00 -0.68480240228E+02  0.68480240228E+02  0.00000000000E+00 0. -1.
         23    2    1    2    0    0  0.42957038412E+02  0.51016938807E+02  0.33168054904E+02  0.14539959020E+03  0.12487147701E+03 0.  0.
          5    1    3    3  502    0  0.25167476487E+02  0.78379345249E+02  0.60744566377E+02  0.10241443247E+03  0.47000000000E+01 0. -1.
         -5    1    3    3    0  502  0.17789561926E+02 -0.27362406442E+02 -0.27576511473E+02  0.42985157727E+02  0.47000000000E+01 0. -1.
        -11    1    1    2    0    0  0.21208725269E+02  0.91988702957E+01  0.56696599778E+02  0.61228536391E+02  0.00000000000E+00 0.  1.
         11    1    1    2    0    0 -0.64165763681E+02 -0.60215809103E+02  0.18159297510E+03  0.20178998365E+03  0.00000000000E+00 0. -1.
<mgrwt>
<rscale>  0 0.13331620E+03</rscale>
<asrwt>0</asrwt>
<pdfrwt beam="2">  1        1 0.10535422E-01 0.14156596E+03</pdfrwt>
<pdfrwt beam="1">  1       -1 0.52298133E-01 0.14156596E+03</pdfrwt>
<totfact> 0.21959175E+03</totfact>
</mgrwt>
</event>
<event>
 7    1  0.7800420E-006  0.1258660E+03  0.7546771E-02  0.1249029E+00
          1   -1    0    0  501    0  0.00000000000E+00  0.00000000000E+00  0.97537954977E+02  0.97537954977E+02  0.00000000000E+00 0. -1.
         -1   -1    0    0    0  501 -0.00000000000E+00 -0.00000000000E+00 -0.12460043743E+03  0.12460043743E+03  0.00000000000E+00 0.  1.
         23    2    1    2    0    0  0.14674649667E+02  0.18456750166E+01 -0.31449363511E+02  0.12973551114E+03  0.12499395396E+03 0.  0.
          5    1    3    3  502    0  0.66049653304E+02 -0.89217788763E+01 -0.37613914690E+02  0.76674972567E+02  0.47000000000E+01 0.  1.
         -5    1    3    3    0  502 -0.51375003637E+02  0.10767453893E+02  0.61645511787E+01  0.53060538569E+02  0.47000000000E+01 0.  1.
        -11    1    1    2    0    0 -0.43695747021E+02 -0.14649442219E+02 -0.22069583204E+02  0.51097856783E+02  0.00000000000E+00 0.  1.
         11    1    1    2    0    0  0.29021097354E+02  0.12803767203E+02  0.26456464264E+02  0.41305024484E+02  0.00000000000E+00 0. -1.
<mgrwt>
<rscale>  0 0.11647430E+03</rscale>
<asrwt>0</asrwt>
<pdfrwt beam="1">  1        1 0.15005839E-01 0.12586596E+03</pdfrwt>
<pdfrwt beam="2">  1       -1 0.19169298E-01 0.12586596E+03</pdfrwt>
<totfact> 0.75674280E+03</totfact>
</mgrwt>
</event>
<event>
 7    1  0.7800420E-006  0.1345878E+03  0.7546771E-02  0.1232645E+00
         -1   -1    0    0    0  501 -0.00000000000E+00  0.00000000000E+00  0.36916688413E+02  0.36916688413E+02  0.00000000000E+00 0.  1.
          1   -1    0    0  501    0  0.00000000000E+00 -0.00000000000E+00 -0.39883686479E+03  0.39883686479E+03  0.00000000000E+00 0. -1.
         23    2    1    2    0    0 -0.49844003058E+02 -0.24891157586E+01 -0.23559516003E+03  0.27132812489E+03  0.12499300615E+03 0.  0.
          5    1    3    3  502    0  0.24116227077E+02 -0.37365010904E+02 -0.13135785706E+03  0.13876135290E+03  0.47000000000E+01 0.  1.
         -5    1    3    3    0  502 -0.73960230135E+02  0.34875895145E+02 -0.10423730297E+03  0.13256677198E+03  0.47000000000E+01 0.  1.
        -11    1    1    2    0    0 -0.71003055966E+01  0.37279986534E+02 -0.37769793124E+02  0.53542217064E+02  0.00000000000E+00 0. -1.
         11    1    1    2    0    0  0.56944308655E+02 -0.34790870775E+02 -0.88555223224E+02  0.11088321125E+03  0.00000000000E+00 0.  1.
<mgrwt>
<rscale>  0 0.12656409E+03</rscale>
<asrwt>0</asrwt>
<pdfrwt beam="2">  1        1 0.61359516E-01 0.13458779E+03</pdfrwt>
<pdfrwt beam="1">  1       -1 0.56794907E-02 0.13458779E+03</pdfrwt>
<totfact> 0.84032351E+03</totfact>
</mgrwt>
</event>
<event>
 7    1  0.7800420E-006  0.1402714E+03  0.7546771E-02  0.1224004E+00
          1   -1    0    0  501    0  0.00000000000E+00  0.00000000000E+00  0.62844781239E+02  0.62844781239E+02  0.00000000000E+00 0.  1.
         -1   -1    0    0    0  501 -0.00000000000E+00 -0.00000000000E+00 -0.25812778962E+03  0.25812778962E+03  0.00000000000E+00 0. -1.
         23    2    1    2    0    0  0.44000130414E+02  0.45990681456E+02 -0.83161681733E+02  0.16307028443E+03  0.12499959240E+03 0.  0.
          5    1    3    3  502    0 -0.12903755412E+02  0.61827391762E+02 -0.82251498772E+02  0.10381007815E+03  0.47000000000E+01 0.  1.
         -5    1    3    3    0  502  0.56903885826E+02 -0.15836710306E+02 -0.91018296106E+00  0.59260206281E+02  0.47000000000E+01 0.  1.
        -11    1    1    2    0    0  0.16877985446E+02 -0.36559611647E+02 -0.15161676014E+02  0.43027293850E+02  0.00000000000E+00 0.  1.
         11    1    1    2    0    0 -0.60878115859E+02 -0.94310698095E+01 -0.96959650633E+02  0.11487499258E+03  0.00000000000E+00 0. -1.
<mgrwt>
<rscale>  0 0.13235415E+03</rscale>
<asrwt>0</asrwt>
<pdfrwt beam="1">  1        1 0.96684278E-02 0.14027135E+03</pdfrwt>
<pdfrwt beam="2">  1       -1 0.39711968E-01 0.14027135E+03</pdfrwt>
<totfact> 0.40331092E+03</totfact>
</mgrwt>
</event>
<event>
 7    1  0.7800420E-006  0.1251900E+03  0.7546771E-02  0.1251523E+00
         -1   -1    0    0    0  501 -0.00000000000E+00  0.00000000000E+00  0.76048212090E+02  0.76048212090E+02  0.00000000000E+00 0.  1.
          1   -1    0    0  501    0  0.00000000000E+00 -0.00000000000E+00 -0.29435244397E+03  0.29435244397E+03  0.00000000000E+00 0. -1.
         23    2    1    2    0    0  0.99087740730E+00  0.70130705623E+01 -0.24678335982E+03  0.27672107778E+03  0.12498945238E+03 0.  0.
          5    1    3    3  502    0  0.25398049122E+02 -0.53158053821E+02 -0.10020962798E+03  0.11633958538E+03  0.47000000000E+01 0.  1.
         -5    1    3    3    0  502 -0.24407171715E+02  0.60171124384E+02 -0.14657373183E+03  0.16038149240E+03  0.47000000000E+01 0.  1.
        -11    1    1    2    0    0 -0.16587469102E+02  0.19263927168E+02  0.50145229753E+02  0.56220877689E+02  0.00000000000E+00 0.  1.
         11    1    1    2    0    0  0.15596591695E+02 -0.26276997730E+02 -0.21666101814E+02  0.37458700592E+02  0.00000000000E+00 0. -1.
<mgrwt>
<rscale>  0 0.11503342E+03</rscale>
<asrwt>0</asrwt>
<pdfrwt beam="2">  1        1 0.45284991E-01 0.12518997E+03</pdfrwt>
<pdfrwt beam="1">  1       -1 0.11699725E-01 0.12518997E+03</pdfrwt>
<totfact> 0.41018807E+03</totfact>
</mgrwt>
</event>
<event>
 7    1  0.7800420E-006  0.1388264E+03  0.7546771E-02  0.1228182E+00
          1   -1    0    0  501    0  0.00000000000E+00  0.00000000000E+00  0.19589099195E+02  0.19589099195E+02  0.00000000000E+00 0. -1.
         -1   -1    0    0    0  501 -0.00000000000E+00 -0.00000000000E+00 -0.78445901622E+03  0.78445901622E+03  0.00000000000E+00 0.  1.
         23    2    1    2    0    0 -0.57675850041E+02  0.17940046903E+02 -0.36276029347E+03  0.38841703296E+03  0.12499764803E+03 0.  0.
          5    1    3    3  502    0 -0.52314538932E+02  0.24734266829E+02 -0.53341733221E+02  0.78841774728E+02  0.47000000000E+01 0.  1.
         -5    1    3    3    0  502 -0.53613111086E+01 -0.67942199260E+01 -0.30941856025E+03  0.30957525823E+03  0.47000000000E+01 0.  1.
        -11    1    1    2    0    0  0.29127390237E+02  0.33797658142E+02 -0.13976550967E+03  0.14671429464E+03  0.00000000000E+00 0. -1.
         11    1    1    2    0    0  0.28548459804E+02 -0.51737705045E+02 -0.26234411388E+03  0.26891678781E+03  0.00000000000E+00 0.  1.
<mgrwt>
<rscale>  0 0.12951166E+03</rscale>
<asrwt>0</asrwt>
<pdfrwt beam="1">  1        1 0.30137073E-02 0.13882637E+03</pdfrwt>
<pdfrwt beam="2">  1       -1 0.12068601E+00 0.13882637E+03</pdfrwt>
<totfact> 0.21432312E+03</totfact>
</mgrwt>
</event>
<event>
 7    1  0.7800420E-006  0.1260437E+03  0.7546771E-02  0.1248036E+00
         -1   -1    0    0    0  501 -0.00000000000E+00  0.00000000000E+00  0.13492154638E+02  0.13492154638E+02  0.00000000000E+00 0.  1.
          1   -1    0    0  501    0  0.00000000000E+00 -0.00000000000E+00 -0.10274428261E+04  0.10274428261E+04  0.00000000000E+00 0. -1.
         23    2    1    2    0    0  0.14040677845E+02  0.80683606574E+01 -0.75683628373E+03  0.76726016793E+03  0.12499906338E+03 0.  0.
          5    1    3    3  502    0  0.33336748087E+02 -0.27828343710E+02 -0.66780307046E+03  0.66922999514E+03  0.47000000000E+01 0.  1.
         -5    1    3    3    0  502 -0.19296070243E+02  0.35896704367E+02 -0.89033213278E+02  0.98030172793E+02  0.47000000000E+01 0.  1.
        -11    1    1    2    0    0  0.20263509880E+02 -0.29594636571E+02 -0.44097430794E+02  0.56842200424E+02  0.00000000000E+00 0.  1.
         11    1    1    2    0    0 -0.34304187724E+02  0.21526275914E+02 -0.21301695695E+03  0.21683261240E+03  0.00000000000E+00 0. -1.
<mgrwt>
<rscale>  0 0.11705500E+03</rscale>
<asrwt>0</asrwt>
<pdfrwt beam="2">  1        1 0.15806813E+00 0.12604366E+03</pdfrwt>
<pdfrwt beam="1">  1       -1 0.20757160E-02 0.12604366E+03</pdfrwt>
<totfact> 0.95241442E+03</totfact>
</mgrwt>
</event>
<event>
 7    1  0.7800420E-006  0.1454010E+03  0.7546771E-02  0.1216328E+00
         -3   -1    0    0    0  501 -0.00000000000E+00  0.00000000000E+00  0.37203652144E+03  0.37203652144E+03  0.00000000000E+00 0.  1.
          3   -1    0    0  501    0  0.00000000000E+00 -0.00000000000E+00 -0.53344189532E+02  0.53344189532E+02  0.00000000000E+00 0. -1.
         23    2    1    2    0    0  0.38776925793E+02 -0.63346100158E+02  0.97638509209E+02  0.17514205426E+03  0.12500032924E+03 0.  0.
          5    1    3    3  502    0 -0.36488673043E+02  0.89291859214E+01  0.42893580938E+02  0.57211038335E+02  0.47000000000E+01 0.  1.
         -5    1    3    3    0  502  0.75265598836E+02 -0.72275286079E+02  0.54744928272E+02  0.11793101593E+03  0.47000000000E+01 0.  1.
        -11    1    1    2    0    0 -0.48365125032E+02  0.78751567383E+02  0.14421382258E+03  0.17128520458E+03  0.00000000000E+00 0. -1.
         11    1    1    2    0    0  0.95881992393E+01 -0.15405467225E+02  0.76840000127E+02  0.78953452138E+02  0.00000000000E+00 0.  1.
<mgrwt>
<rscale>  0 0.13779441E+03</rscale>
<asrwt>0</asrwt>
<pdfrwt beam="2">  1        3 0.82067986E-02 0.14540103E+03</pdfrwt>
<pdfrwt beam="1">  1       -3 0.57236386E-01 0.14540103E+03</pdfrwt>
<totfact> 0.72523724E+02</totfact>
</mgrwt>
</event>
<event>
 7    1  0.7800420E-006  0.1432195E+03  0.7546771E-02  0.1219736E+00
         -3   -1    0    0    0  501 -0.00000000000E+00  0.00000000000E+00  0.24298476054E+03  0.24298476054E+03  0.00000000000E+00 0.  1.
          3   -1    0    0  501    0  0.00000000000E+00 -0.00000000000E+00 -0.68211378637E+02  0.68211378637E+02  0.00000000000E+00 0. -1.
         23    2    1    2    0    0 -0.28926228786E+02  0.63643171896E+02  0.10004897342E+03  0.17470438706E+03  0.12499858293E+03 0.  0.
          5    1    3    3  502    0  0.13701253855E+02  0.63387578683E+02 -0.89516800366E+00  0.65027692672E+02  0.47000000000E+01 0.  1.
         -5    1    3    3    0  502 -0.42627482641E+02  0.25559321334E+00  0.10094414142E+03  0.10967669439E+03  0.47000000000E+01 0.  1.
        -11    1    1    2    0    0  0.13802585155E+02 -0.10470304183E+02 -0.20219400924E+02  0.26626355371E+02  0.00000000000E+00 0. -1.
         11    1    1    2    0    0  0.15123643632E+02 -0.53172867713E+02  0.94943809412E+02  0.10986539675E+03  0.00000000000E+00 0.  1.
<mgrwt>
<rscale>  0 0.13534349E+03</rscale>
<asrwt>0</asrwt>
<pdfrwt beam="2">  1        3 0.10494058E-01 0.14321950E+03</pdfrwt>
<pdfrwt beam="1">  1       -3 0.37382270E-01 0.14321950E+03</pdfrwt>
<totfact> 0.11195619E+03</totfact>
</mgrwt>
</event>
<event>
 7    1  0.7800420E-006  0.1258923E+03  0.7546771E-02  0.1248380E+00
         -2   -1    0    0    0  501 -0.00000000000E+00  0.00000000000E+00  0.14710234178E+02  0.14710234178E+02  0.00000000000E+00 0. -1.
          2   -1    0    0  501    0  0.00000000000E+00 -0.00000000000E+00 -0.90897541350E+03  0.90897541350E+03  0.00000000000E+00 0.  1.
         23    2    1    2    0    0 -0.81612691019E+01 -0.12623714825E+02 -0.65157966265E+03  0.66363010892E+03  0.12499160053E+03 0.  0.
          5    1    3    3  502    0  0.26990872688E+02 -0.59384997131E+02 -0.39879031619E+03  0.40411742276E+03  0.47000000000E+01 0.  1.
         -5    1    3    3    0  502 -0.35152141790E+02  0.46761282306E+02 -0.25278934645E+03  0.25951268616E+03  0.47000000000E+01 0.  1.
        -11    1    1    2    0    0 -0.25220237170E+02  0.36430628079E+02 -0.17830348219E+03  0.18372638022E+03  0.00000000000E+00 0.  1.
         11    1    1    2    0    0  0.33381506272E+02 -0.23806913254E+02 -0.64382034487E+02  0.76329158546E+02  0.00000000000E+00 0. -1.
<mgrwt>
<rscale>  0 0.11685368E+03</rscale>
<asrwt>0</asrwt>
<pdfrwt beam="2">  1        2 0.13984244E+00 0.12589227E+03</pdfrwt>
<pdfrwt beam="1">  1       -2 0.22631119E-02 0.12589227E+03</pdfrwt>
<totfact> 0.18290960E+04</totfact>
</mgrwt>
</event>
<event>
 7    1  0.7800420E-006  0.1864440E+03  0.7546771E-02  0.1165949E+00
          1   -1    0    0  501    0  0.00000000000E+00  0.00000000000E+00  0.70336801291E+03  0.70336801291E+03  0.00000000000E+00 0. -1.
         -1   -1    0    0    0  501 -0.00000000000E+00 -0.00000000000E+00 -0.49367137026E+02  0.49367137026E+02  0.00000000000E+00 0.  1.
         23    2    1    2    0    0 -0.13778843878E+03  0.12265878591E+02  0.45449628806E+03  0.49125170838E+03  0.12500103796E+03 0.  0.
          5    1    3    3  502    0 -0.38491659275E+02 -0.35777973811E+02  0.27876897525E+03  0.28371799874E+03  0.47000000000E+01 0.  1.
         -5    1    3    3    0  502 -0.99296779506E+02  0.48043852402E+02  0.17572731281E+03  0.20753370965E+03  0.47000000000E+01 0.  1.
        -11    1    1    2    0    0  0.22497447919E+02 -0.13532174993E+02 -0.49909937209E+01  0.26723864639E+02  0.00000000000E+00 0.  1.
         11    1    1    2    0    0  0.11529099086E+03  0.12662964012E+01  0.20449558154E+03  0.23475957691E+03  0.00000000000E+00 0. -1.
<mgrwt>
<rscale>  0 0.18192943E+03</rscale>
<asrwt>0</asrwt>
<pdfrwt beam="1">  1        1 0.10821046E+00 0.18644400E+03</pdfrwt>
<pdfrwt beam="2">  1       -1 0.75949447E-02 0.18644400E+03</pdfrwt>
<totfact> 0.25842544E+03</totfact>
</mgrwt>
</event>
<event>
 7    1  0.7800420E-006  0.1349795E+03  0.7546771E-02  0.1231958E+00
          1   -1    0    0  501    0  0.00000000000E+00  0.00000000000E+00  0.52877283741E+03  0.52877283741E+03  0.00000000000E+00 0. -1.
         -1   -1    0    0    0  501 -0.00000000000E+00 -0.00000000000E+00 -0.29533662477E+02  0.29533662477E+02  0.00000000000E+00 0.  1.
         23    2    1    2    0    0  0.15017068267E+02  0.48665263664E+02  0.35193337767E+03  0.37693046333E+03  0.12500260655E+03 0.  0.
          5    1    3    3  502    0 -0.43746723847E+02  0.29593194906E+02  0.67550111238E+02  0.85875727423E+02  0.47000000000E+01 0.  1.
         -5    1    3    3    0  502  0.58763792114E+02  0.19072068758E+02  0.28438326643E+03  0.29105473591E+03  0.47000000000E+01 0.  1.
        -11    1    1    2    0    0 -0.17379026580E+02 -0.69389212166E+02  0.65627631604E+02  0.97076667433E+02  0.00000000000E+00 0.  1.
         11    1    1    2    0    0  0.23619583131E+01  0.20723948501E+02  0.81678165666E+02  0.84299369126E+02  0.00000000000E+00 0. -1.
<mgrwt>
<rscale>  0 0.12701201E+03</rscale>
<asrwt>0</asrwt>
<pdfrwt beam="1">  1        1 0.81349661E-01 0.13497952E+03</pdfrwt>
<pdfrwt beam="2">  1       -1 0.45436408E-02 0.13497952E+03</pdfrwt>
<totfact> 0.81367915E+03</totfact>
</mgrwt>
</event>
<event>
 7    1  0.7800420E-006  0.2277360E+03  0.7546771E-02  0.1131317E+00
          2   -1    0    0  501    0  0.00000000000E+00  0.00000000000E+00  0.13018797893E+04  0.13018797893E+04  0.00000000000E+00 0. -1.
         -2   -1    0    0    0  501 -0.00000000000E+00 -0.00000000000E+00 -0.41405450341E+02  0.41405450341E+02  0.00000000000E+00 0.  1.
         23    2    1    2    0    0  0.16452407236E+03 -0.95789095551E+02  0.87059759770E+03  0.89989103580E+03  0.12497991034E+03 0.  0.
          5    1    3    3  502    0  0.11209292277E+03 -0.59040945227E+02  0.29993001253E+03  0.32562364620E+03  0.47000000000E+01 0. -1.
         -5    1    3    3    0  502  0.52431149590E+02 -0.36748150323E+02  0.57066758517E+03  0.57426738960E+03  0.47000000000E+01 0. -1.
        -11    1    1    2    0    0 -0.15609696213E+03  0.51897404127E+02  0.32945298323E+03  0.36823751886E+03  0.00000000000E+00 0. -1.
         11    1    1    2    0    0 -0.84271102300E+01  0.43891691424E+02  0.60423758073E+02  0.75156685015E+02  0.00000000000E+00 0.  1.
<mgrwt>
<rscale>  0 0.22347761E+03</rscale>
<asrwt>0</asrwt>
<pdfrwt beam="1">  1        2 0.20028917E+00 0.22773603E+03</pdfrwt>
<pdfrwt beam="2">  1       -2 0.63700703E-02 0.22773603E+03</pdfrwt>
<totfact> 0.23600394E+03</totfact>
</mgrwt>
</event>
<event>
 7    1  0.7800420E-006  0.1309865E+03  0.7546771E-02  0.1239381E+00
         -1   -1    0    0    0  501 -0.00000000000E+00  0.00000000000E+00  0.45737590766E+02  0.45737590766E+02  0.00000000000E+00 0.  1.
          1   -1    0    0  501    0  0.00000000000E+00 -0.00000000000E+00 -0.29108702243E+03  0.29108702243E+03  0.00000000000E+00 0. -1.
         23    2    1    2    0    0  0.33700348909E+02  0.19859467173E+02 -0.14789007187E+03  0.19755742682E+03  0.12500940596E+03 0.  0.
          5    1    3    3  502    0  0.37591966345E+02 -0.48939688157E+02 -0.67870501332E+02  0.91851749910E+02  0.47000000000E+01 0. -1.
         -5    1    3    3    0  502 -0.38916174365E+01  0.68799155329E+02 -0.80019570543E+02  0.10570567691E+03  0.47000000000E+01 0. -1.
        -11    1    1    2    0    0  0.30712353327E+02 -0.60472134551E+01 -0.18213365081E+02  0.36215246859E+02  0.00000000000E+00 0.  1.
         11    1    1    2    0    0 -0.64412702235E+02 -0.13812253718E+02 -0.79245994711E+02  0.10305193952E+03  0.00000000000E+00 0. -1.
<mgrwt>
<rscale>  0 0.12228072E+03</rscale>
<asrwt>0</asrwt>
<pdfrwt beam="2">  1        1 0.44782619E-01 0.13098650E+03</pdfrwt>
<pdfrwt beam="1">  1       -1 0.70365523E-02 0.13098650E+03</pdfrwt>
<totfact> 0.90178934E+03</totfact>
</mgrwt>
</event>
<event>
 7    1  0.7800420E-006  0.1270152E+03  0.7546771E-02  0.1247964E+00
          2   -1    0    0  501    0  0.00000000000E+00  0.00000000000E+00  0.82611418503E+03  0.82611418503E+03  0.00000000000E+00 0. -1.
         -2   -1    0    0    0  501 -0.00000000000E+00 -0.00000000000E+00 -0.14600339637E+02  0.14600339637E+02  0.00000000000E+00 0.  1.
         23    2    1    2    0    0  0.21228559018E+02 -0.75847731847E+01  0.50777180426E+03  0.52341671199E+03  0.12499867472E+03 0.  0.
          5    1    3    3  502    0 -0.37419762367E+02  0.22617230587E+02  0.87036505682E+02  0.97515234996E+02  0.47000000000E+01 0. -1.
         -5    1    3    3    0  502  0.58648321384E+02 -0.30202003772E+02  0.42073529858E+03  0.42590147699E+03  0.47000000000E+01 0. -1.
        -11    1    1    2    0    0  0.18397140393E+02  0.32454388625E+02  0.74359167537E+02  0.83192715502E+02  0.00000000000E+00 0.  1.
         11    1    1    2    0    0 -0.39625699411E+02 -0.24869615440E+02  0.22938287360E+03  0.23410509718E+03  0.00000000000E+00 0. -1.
<mgrwt>
<rscale>  0 0.11709736E+03</rscale>
<asrwt>0</asrwt>
<pdfrwt beam="1">  1        2 0.12709445E+00 0.12701515E+03</pdfrwt>
<pdfrwt beam="2">  1       -2 0.22462067E-02 0.12701515E+03</pdfrwt>
<totfact> 0.20915183E+04</totfact>
</mgrwt>
</event>
<event>
 7    1  0.7800420E-006  0.1472367E+03  0.7546771E-02  0.1216312E+00
         -1   -1    0    0    0  501 -0.00000000000E+00  0.00000000000E+00  0.29546932012E+03  0.29546932012E+03  0.00000000000E+00 0.  1.
          1   -1    0    0  501    0  0.00000000000E+00 -0.00000000000E+00 -0.86153451067E+02  0.86153451067E+02  0.00000000000E+00 0. -1.
         23    2    1    2    0    0 -0.33518378133E+01  0.77730173863E+02  0.40221114789E+01  0.14729158924E+03  0.12500168052E+03 0.  0.
          5    1    3    3  502    0 -0.25332986685E+02  0.10582359243E+03  0.14357716724E+02  0.10985730271E+03  0.47000000000E+01 0.  1.
         -5    1    3    3    0  502  0.21981148872E+02 -0.28093418562E+02 -0.10335605245E+02  0.37434286530E+02  0.47000000000E+01 0.  1.
        -11    1    1    2    0    0 -0.32063777198E+02 -0.28254909227E+02  0.41372655911E+02  0.59482117992E+02  0.00000000000E+00 0. -1.
         11    1    1    2    0    0  0.35415615011E+02 -0.49475264636E+02  0.16392110166E+03  0.17484906396E+03  0.00000000000E+00 0.  1.
<mgrwt>
<rscale>  0 0.13780565E+03</rscale>
<asrwt>0</asrwt>
<pdfrwt beam="2">  1        1 0.13254377E-01 0.14723666E+03</pdfrwt>
<pdfrwt beam="1">  1       -1 0.45456818E-01 0.14723666E+03</pdfrwt>
<totfact> 0.20986650E+03</totfact>
</mgrwt>
</event>
<event>
 7    1  0.7800420E-006  0.1253086E+03  0.7546771E-02  0.1250095E+00
         -1   -1    0    0    0  501 -0.00000000000E+00  0.00000000000E+00  0.11745956109E+03  0.11745956109E+03  0.00000000000E+00 0.  1.
          1   -1    0    0  501    0  0.00000000000E+00 -0.00000000000E+00 -0.10696337424E+03  0.10696337424E+03  0.00000000000E+00 0. -1.
         23    2    1    2    0    0  0.54629150761E+01  0.68477585645E+01 -0.22075395849E+02  0.12723826918E+03  0.12500207519E+03 0.  0.
          5    1    3    3  502    0 -0.25059946654E+02 -0.52125767315E+02 -0.35385477888E+01  0.58135254922E+02  0.47000000000E+01 0. -1.
         -5    1    3    3    0  502  0.30522861730E+02  0.58973525879E+02 -0.18536848061E+02  0.69103014253E+02  0.47000000000E+01 0. -1.
        -11    1    1    2    0    0 -0.10073887625E+02 -0.30826281243E+02  0.55117039993E+02  0.63950222242E+02  0.00000000000E+00 0.  1.
         11    1    1    2    0    0  0.46109725490E+01  0.23978522678E+02 -0.22545457298E+02  0.33234443917E+02  0.00000000000E+00 0. -1.
<mgrwt>
<rscale>  0 0.11585555E+03</rscale>
<asrwt>0</asrwt>
<pdfrwt beam="2">  1        1 0.16455904E-01 0.12530864E+03</pdfrwt>
<pdfrwt beam="1">  1       -1 0.18070702E-01 0.12530864E+03</pdfrwt>
<totfact> 0.73792463E+03</totfact>
</mgrwt>
</event>
<event>
 6    1  0.7800420E-006  0.1405646E+03  0.7546771E-02  0.1227885E+00
          1   -1    0    0  501    0  0.00000000000E+00  0.00000000000E+00  0.29033551924E+03  0.29033551924E+03  0.00000000000E+00 0. -1.
         -1   -1    0    0    0  501 -0.00000000000E+00 -0.00000000000E+00 -0.90715108880E+02  0.90715108880E+02  0.00000000000E+00 0.  1.
          5    1    1    2  502    0 -0.11486904898E+02  0.59019251552E+02  0.59023136162E+02  0.84386264524E+02  0.47000000000E+01 0. -1.
         -5    1    1    2    0  502  0.27713480160E+02 -0.64393280772E+02  0.17540919841E+03  0.18895768965E+03  0.47000000000E+01 0.  1.
        -11    1    1    2    0    0  0.17847171877E+02  0.45732959513E+02 -0.15859317891E+02  0.51590145317E+02  0.00000000000E+00 0. -1.
         11    1    1    2    0    0 -0.34073747140E+02 -0.40358930293E+02 -0.18952606323E+02  0.56116528626E+02  0.00000000000E+00 0.  1.
<mgrwt>
<rscale>  0 0.12971132E+03</rscale>
<asrwt>0</asrwt>
<pdfrwt beam="1">  1        1 0.44667002E-01 0.14056457E+03</pdfrwt>
<pdfrwt beam="2">  1       -1 0.13956171E-01 0.14056457E+03</pdfrwt>
<totfact> 0.31935238E+03</totfact>
</mgrwt>
</event>
<event>
 6    1  0.7800420E-006  0.4449540E+03  0.7546771E-02  0.1085372E+00
          1   -1    0    0  501    0  0.00000000000E+00  0.00000000000E+00  0.33432538775E+03  0.33432538775E+03  0.00000000000E+00 0. -1.
         -1   -1    0    0    0  501 -0.00000000000E+00 -0.00000000000E+00 -0.22110307165E+03  0.22110307165E+03  0.00000000000E+00 0.  1.
          5    1    1    2  502    0 -0.19583068775E+03 -0.29132993960E+02 -0.37879190826E+02  0.20163162623E+03  0.47000000000E+01 0. -1.
         -5    1    1    2    0  502  0.20143347932E+03  0.19091590436E+02  0.16499607143E+03  0.26112397248E+03  0.47000000000E+01 0.  1.
        -11    1    1    2    0    0  0.16892036567E+02  0.43267414769E+02 -0.22538925929E+02  0.51627640487E+02  0.00000000000E+00 0.  1.
         11    1    1    2    0    0 -0.22494828138E+02 -0.33226011245E+02  0.86443614224E+01  0.41045220192E+02  0.00000000000E+00 0. -1.
<mgrwt>
<rscale>  0 0.29973689E+03</rscale>
<asrwt>0</asrwt>
<pdfrwt beam="1">  1        1 0.51434675E-01 0.44495398E+03</pdfrwt>
<pdfrwt beam="2">  1       -1 0.34015857E-01 0.44495398E+03</pdfrwt>
<totfact> 0.62784211E+02</totfact>
</mgrwt>
</event>
<event>
 7    1  0.7800420E-006  0.1345806E+03  0.7546771E-02  0.1233069E+00
         -1   -1    0    0    0  501 -0.00000000000E+00  0.00000000000E+00  0.29197636531E+03  0.29197636531E+03  0.00000000000E+00 0.  1.
          1   -1    0    0  501    0  0.00000000000E+00 -0.00000000000E+00 -0.48955072723E+02  0.48955072723E+02  0.00000000000E+00 0. -1.
         23    2    1    2    0    0  0.48785495434E+00 -0.49869904011E+02  0.13033865685E+03  0.18735021267E+03  0.12499876555E+03 0.  0.
          5    1    3    3  502    0 -0.29665844296E+02 -0.54438612789E+02  0.98222013505E+01  0.62945933304E+02  0.47000000000E+01 0.  1.
         -5    1    3    3    0  502  0.30153699250E+02  0.45687087776E+01  0.12051645550E+03  0.12440427937E+03  0.47000000000E+01 0.  1.
        -11    1    1    2    0    0  0.17338357870E+02  0.58953123855E+02  0.11785796957E+03  0.13291572690E+03  0.00000000000E+00 0.  1.
         11    1    1    2    0    0 -0.17826212824E+02 -0.90832198439E+01 -0.51753338347E+01  0.20665498462E+02  0.00000000000E+00 0. -1.
<mgrwt>
<rscale>  0 0.12628867E+03</rscale>
<asrwt>0</asrwt>
<pdfrwt beam="2">  1        1 0.75315498E-02 0.13458060E+03</pdfrwt>
<pdfrwt beam="1">  1       -1 0.44919440E-01 0.13458060E+03</pdfrwt>
<totfact> 0.45171165E+03</totfact>
</mgrwt>
</event>
<event>
 7    1  0.7800420E-006  0.1350097E+03  0.7546771E-02  0.1233170E+00
          2   -1    0    0  501    0  0.00000000000E+00  0.00000000000E+00  0.60858961742E+03  0.60858961742E+03  0.00000000000E+00 0. -1.
         -2   -1    0    0    0  501 -0.00000000000E+00 -0.00000000000E+00 -0.24182840940E+02  0.24182840940E+02  0.00000000000E+00 0.  1.
         23    2    1    2    0    0  0.50744762207E+02 -0.51397681285E+01  0.38982145232E+03  0.41253894129E+03  0.12500466103E+03 0.  0.
          5    1    3    3  502    0  0.29047185233E+02 -0.22710783006E+02  0.21118346649E+02  0.42750359061E+02  0.47000000000E+01 0. -1.
         -5    1    3    3    0  502  0.21697576974E+02  0.17571014877E+02  0.36870310567E+03  0.36978858222E+03  0.47000000000E+01 0. -1.
        -11    1    1    2    0    0 -0.19477542377E+02 -0.37557204203E+02  0.45962624515E+02  0.62469841499E+02  0.00000000000E+00 0. -1.
         11    1    1    2    0    0 -0.31267219829E+02  0.42696972331E+02  0.14862269965E+03  0.15776367558E+03  0.00000000000E+00 0.  1.
<mgrwt>
<rscale>  0 0.12622288E+03</rscale>
<asrwt>0</asrwt>
<pdfrwt beam="1">  1        2 0.93629161E-01 0.13500968E+03</pdfrwt>
<pdfrwt beam="2">  1       -2 0.37204375E-02 0.13500968E+03</pdfrwt>
<totfact> 0.14435135E+04</totfact>
</mgrwt>
</event>
<event>
 7    1  0.7800420E-006  0.1452901E+03  0.7546771E-02  0.1216544E+00
         -1   -1    0    0    0  501 -0.00000000000E+00  0.00000000000E+00  0.20717912741E+03  0.20717912741E+03  0.00000000000E+00 0.  1.
          1   -1    0    0  501    0  0.00000000000E+00 -0.00000000000E+00 -0.10153939558E+03  0.10153939558E+03  0.00000000000E+00 0. -1.
         23    2    1    2    0    0  0.40556121233E+02 -0.61952017124E+02 -0.81254474881E+01  0.14551715945E+03  0.12500547748E+03 0.  0.
          5    1    3    3  502    0  0.20689631291E+02 -0.93640805966E+02 -0.31634716537E+02  0.10109157569E+03  0.47000000000E+01 0.  1.
         -5    1    3    3    0  502  0.19866489942E+02  0.31688788842E+02  0.23509269049E+02  0.44425583756E+02  0.47000000000E+01 0.  1.
        -11    1    1    2    0    0 -0.51033745509E+02  0.71860106064E+02  0.11880207879E+03  0.14792650861E+03  0.00000000000E+00 0.  1.
         11    1    1    2    0    0  0.10477624277E+02 -0.99080889391E+01 -0.50368994719E+01  0.15274854932E+02  0.00000000000E+00 0. -1.
<mgrwt>
<rscale>  0 0.13763729E+03</rscale>
<asrwt>0</asrwt>
<pdfrwt beam="2">  1        1 0.15621445E-01 0.14529013E+03</pdfrwt>
<pdfrwt beam="1">  1       -1 0.31873712E-01 0.14529013E+03</pdfrwt>
<totfact> 0.31450295E+03</totfact>
</mgrwt>
</event>
<event>
 7    1  0.7800420E-006  0.1336515E+03  0.7546771E-02  0.1235280E+00
         -1   -1    0    0    0  501 -0.00000000000E+00  0.00000000000E+00  0.17567999870E+02  0.17567999870E+02  0.00000000000E+00 0.  1.
          1   -1    0    0  501    0  0.00000000000E+00 -0.00000000000E+00 -0.10113021712E+04  0.10113021712E+04  0.00000000000E+00 0. -1.
         23    2    1    2    0    0 -0.14520888005E+02  0.45022943910E+02 -0.78871199981E+03  0.79995584154E+03  0.12499923242E+03 0.  0.
          5    1    3    3  502    0 -0.63493134660E+02  0.54090456179E+02 -0.47948256914E+03  0.48670605062E+03  0.47000000000E+01 0. -1.
         -5    1    3    3    0  502  0.48972246655E+02 -0.90675122685E+01 -0.30922943067E+03  0.31324979092E+03  0.47000000000E+01 0. -1.
        -11    1    1    2    0    0 -0.10562658683E+02 -0.38141368279E+02 -0.19807770789E+03  0.20199285159E+03  0.00000000000E+00 0. -1.
         11    1    1    2    0    0  0.25083546688E+02 -0.68815756314E+01 -0.69444635958E+01  0.26921477899E+02  0.00000000000E+00 0.  1.
<mgrwt>
<rscale>  0 0.12486497E+03</rscale>
<asrwt>0</asrwt>
<pdfrwt beam="2">  1        1 0.15558492E+00 0.13365152E+03</pdfrwt>
<pdfrwt beam="1">  1       -1 0.27027697E-02 0.13365152E+03</pdfrwt>
<totfact> 0.67000841E+03</totfact>
</mgrwt>
</event>
<event>
 7    1  0.7800420E-006  0.1569239E+03  0.7546771E-02  0.1201322E+00
         -1   -1    0    0    0  501 -0.00000000000E+00  0.00000000000E+00  0.41843511957E+02  0.41843511957E+02  0.00000000000E+00 0. -1.
          1   -1    0    0  501    0  0.00000000000E+00 -0.00000000000E+00 -0.48726644406E+03  0.48726644406E+03  0.00000000000E+00 0.  1.
         23    2    1    2    0    0 -0.90611225896E+02 -0.28053244190E+02 -0.24904611771E+03  0.29436214382E+03  0.12501089632E+03 0.  0.
          5    1    3    3  502    0  0.62270177860E+01  0.26822600654E+02 -0.12303440545E+03  0.12616569495E+03  0.47000000000E+01 0.  1.
         -5    1    3    3    0  502 -0.96838243682E+02 -0.54875844844E+02 -0.12601171226E+03  0.16819644887E+03  0.47000000000E+01 0.  1.
        -11    1    1    2    0    0  0.51246367579E+02 -0.25400215660E+01 -0.17153875299E+03  0.17904799825E+03  0.00000000000E+00 0.  1.
         11    1    1    2    0    0  0.39364858317E+02  0.30593265755E+02 -0.24838061402E+02  0.55699813950E+02  0.00000000000E+00 0. -1.
<mgrwt>
<rscale>  0 0.14931124E+03</rscale>
<asrwt>0</asrwt>
<pdfrwt beam="2">  1        1 0.74964069E-01 0.15692388E+03</pdfrwt>
<pdfrwt beam="1">  1       -1 0.64374633E-02 0.15692388E+03</pdfrwt>
<totfact> 0.54433952E+03</totfact>
</mgrwt>
</event>
<event>
 7    1  0.7800420E-006  0.1618783E+03  0.7546771E-02  0.1194354E+00
          1   -1    0    0  501    0  0.00000000000E+00  0.00000000000E+00  0.36638135079E+03  0.36638135079E+03  0.00000000000E+00 0.  1.
         -1   -1    0    0    0  501 -0.00000000000E+00 -0.00000000000E+00 -0.71957972083E+02  0.71957972083E+02  0.00000000000E+00 0. -1.
         23    2    1    2    0    0  0.13274307864E+02  0.10199765113E+03  0.24423611291E+03  0.29301171404E+03  0.12499943050E+03 0.  0.
          5    1    3    3  502    0  0.67328520257E+02  0.58305853921E+02  0.10858541096E+03  0.14051897991E+03  0.47000000000E+01 0. -1.
         -5    1    3    3    0  502 -0.54054212394E+02  0.43691797210E+02  0.13565070196E+03  0.15249273413E+03  0.47000000000E+01 0. -1.
        -11    1    1    2    0    0 -0.22659823708E+02 -0.27633679168E+02 -0.21421668820E+02  0.41665042060E+02  0.00000000000E+00 0. -1.
         11    1    1    2    0    0  0.93855158439E+01 -0.74363971963E+02  0.71608934609E+02  0.10366256677E+03  0.00000000000E+00 0.  1.
<mgrwt>
<rscale>  0 0.15509027E+03</rscale>
<asrwt>0</asrwt>
<pdfrwt beam="1">  1        1 0.56366361E-01 0.16187831E+03</pdfrwt>
<pdfrwt beam="2">  1       -1 0.11070457E-01 0.16187831E+03</pdfrwt>
<totfact> 0.34434418E+03</totfact>
</mgrwt>
</event>
<event>
 7    1  0.7800420E-006  0.1504531E+03  0.7546771E-02  0.1206892E+00
         -1   -1    0    0    0  501 -0.00000000000E+00  0.00000000000E+00  0.27778058351E+02  0.27778058351E+02  0.00000000000E+00 0.  1.
          1   -1    0    0  501    0  0.00000000000E+00 -0.00000000000E+00 -0.14953701833E+04  0.14953701833E+04  0.00000000000E+00 0. -1.
         23    2    1    2    0    0 -0.44853936962E+02  0.80404756639E+02 -0.13127550784E+04  0.13213485705E+04  0.11899306061E+03 0.  0.
          5    1    3    3  502    0 -0.38813502691E+02  0.95626218469E+02 -0.12822752452E+04  0.12864302376E+04  0.47000000000E+01 0. -1.
         -5    1    3    3    0  502 -0.60404342709E+01 -0.15221461829E+02 -0.30479833138E+02  0.34918332928E+02  0.47000000000E+01 0.  1.
        -11    1    1    2    0    0  0.38513550457E+01 -0.84771634606E+02 -0.12423310714E+03  0.15044908733E+03  0.00000000000E+00 0.  1.
         11    1    1    2    0    0  0.41002581916E+02  0.43668779663E+01 -0.30603939429E+02  0.51350583790E+02  0.00000000000E+00 0. -1.
<mgrwt>
<rscale>  0 0.14489328E+03</rscale>
<asrwt>0</asrwt>
<pdfrwt beam="2">  1        1 0.23005702E+00 0.15045315E+03</pdfrwt>
<pdfrwt beam="1">  1       -1 0.42735462E-02 0.15045315E+03</pdfrwt>
<totfact> 0.16095640E+03</totfact>
</mgrwt>
</event>
<event>
 6    1  0.7800420E-006  0.1575181E+03  0.7546771E-02  0.1214149E+00
         -1   -1    0    0    0  501 -0.00000000000E+00  0.00000000000E+00  0.72196205825E+02  0.72196205825E+02  0.00000000000E+00 0.  1.
          1   -1    0    0  501    0  0.00000000000E+00 -0.00000000000E+00 -0.22489187338E+03  0.22489187338E+03  0.00000000000E+00 0. -1.
          5    1    1    2  502    0  0.41264321424E+02 -0.81440348497E+02 -0.51966193182E+02  0.10515631136E+03  0.47000000000E+01 0. -1.
         -5    1    1    2    0  502 -0.27779953361E+02  0.58899095130E+02 -0.53480447578E+02  0.84398326341E+02  0.47000000000E+01 0.  1.
        -11    1    1    2    0    0 -0.11887213170E+02 -0.16503355057E+02 -0.62393010393E+02  0.65624342366E+02  0.00000000000E+00 0. -1.
         11    1    1    2    0    0 -0.15971548932E+01  0.39044608424E+02  0.15143983601E+02  0.41909099131E+02  0.00000000000E+00 0.  1.
<mgrwt>
<rscale>  0 0.13939230E+03</rscale>
<asrwt>0</asrwt>
<pdfrwt beam="2">  1        1 0.34598749E-01 0.15751815E+03</pdfrwt>
<pdfrwt beam="1">  1       -1 0.11107109E-01 0.15751815E+03</pdfrwt>
<totfact> 0.62841193E+03</totfact>
</mgrwt>
</event>
<event>
 7    1  0.7800420E-006  0.1577664E+03  0.7546771E-02  0.1199214E+00
          2   -1    0    0  501    0  0.00000000000E+00  0.00000000000E+00  0.30017075996E+04  0.30017075996E+04  0.00000000000E+00 0. -1.
         -2   -1    0    0    0  501 -0.00000000000E+00 -0.00000000000E+00 -0.13888472606E+02  0.13888472606E+02  0.00000000000E+00 0.  1.
         23    2    1    2    0    0  0.50381495768E+02 -0.82015973314E+02  0.26181653255E+04  0.26229143925E+04  0.12500129475E+03 0.  0.
          5    1    3    3  502    0  0.25541094192E+02 -0.10790726322E+03  0.14721522420E+04  0.14763301252E+04  0.47000000000E+01 0. -1.
         -5    1    3    3    0  502  0.24840401576E+02  0.25891289909E+02  0.11460130835E+04  0.11465842673E+04  0.47000000000E+01 0. -1.
        -11    1    1    2    0    0 -0.17432508380E+02  0.87453642410E+02  0.32444258554E+03  0.33647440204E+03  0.00000000000E+00 0. -1.
         11    1    1    2    0    0 -0.32948987388E+02 -0.54376690955E+01  0.45211215950E+02  0.56207277668E+02  0.00000000000E+00 0.  1.
<mgrwt>
<rscale>  0 0.15102919E+03</rscale>
<asrwt>0</asrwt>
<pdfrwt beam="1">  1        2 0.46180065E+00 0.15776641E+03</pdfrwt>
<pdfrwt beam="2">  1       -2 0.21366905E-02 0.15776641E+03</pdfrwt>
<totfact> 0.14886554E+03</totfact>
</mgrwt>
</event>
<event>
 7    1  0.7800420E-006  0.1869257E+03  0.7546771E-02  0.1166810E+00
         -1   -1    0    0    0  501 -0.00000000000E+00  0.00000000000E+00  0.62012777445E+03  0.62012777445E+03  0.00000000000E+00 0.  1.
          1   -1    0    0  501    0  0.00000000000E+00 -0.00000000000E+00 -0.52587890054E+02  0.52587890054E+02  0.00000000000E+00 0. -1.
         23    2    1    2    0    0 -0.61159076572E+02 -0.12480164129E+03  0.22324577173E+03  0.29116985891E+03  0.12500131931E+03 0.  0.
          5    1    3    3  502    0  0.16610160415E+02 -0.79872054875E+02  0.16469332633E+03  0.18385163670E+03  0.47000000000E+01 0.  1.
         -5    1    3    3    0  502 -0.77769236987E+02 -0.44929586414E+02  0.58552445397E+02  0.10731822221E+03  0.47000000000E+01 0.  1.
        -11    1    1    2    0    0  0.46955159500E+02  0.11485451294E+02  0.77545352672E+02  0.91378248594E+02  0.00000000000E+00 0. -1.
         11    1    1    2    0    0  0.14203917072E+02  0.11331619000E+03  0.26674875999E+03  0.29016755699E+03  0.00000000000E+00 0.  1.
<mgrwt>
<rscale>  0 0.18102981E+03</rscale>
<asrwt>0</asrwt>
<pdfrwt beam="2">  1        1 0.80904451E-02 0.18692569E+03</pdfrwt>
<pdfrwt beam="1">  1       -1 0.95404268E-01 0.18692569E+03</pdfrwt>
<totfact> 0.95111528E+02</totfact>
</mgrwt>
</event>
<event>
 7    1  0.7800420E-006  0.1719466E+03  0.7546771E-02  0.1182125E+00
         -2   -1    0    0    0  501 -0.00000000000E+00  0.00000000000E+00  0.58015131862E+02  0.58015131862E+02  0.00000000000E+00 0. -1.
          2   -1    0    0  501    0  0.00000000000E+00 -0.00000000000E+00 -0.44502913106E+03  0.44502913106E+03  0.00000000000E+00 0.  1.
         23    2    1    2    0    0  0.93040308710E+02  0.72687872498E+02 -0.19864283796E+03  0.26272535087E+03  0.12500242822E+03 0.  0.
          5    1    3    3  502    0 -0.39633108732E+01 -0.23645687318E+02 -0.39008201995E+01  0.24741316862E+02  0.47000000000E+01 0. -1.
         -5    1    3    3    0  502  0.97003619584E+02  0.96333559816E+02 -0.19474201776E+03  0.23798403400E+03  0.47000000000E+01 0. -1.
        -11    1    1    2    0    0 -0.65982617385E+02 -0.12349890682E+02 -0.14883775194E+03  0.16327554011E+03  0.00000000000E+00 0.  1.
         11    1    1    2    0    0 -0.27057691325E+02 -0.60337981816E+02 -0.39533409294E+02  0.77043371940E+02  0.00000000000E+00 0. -1.
<mgrwt>
<rscale>  0 0.16596212E+03</rscale>
<asrwt>0</asrwt>
<pdfrwt beam="2">  1        2 0.68466019E-01 0.17194660E+03</pdfrwt>
<pdfrwt beam="1">  1       -2 0.89254050E-02 0.17194660E+03</pdfrwt>
<totfact> 0.54926503E+03</totfact>
</mgrwt>
</event>
<event>
 7    1  0.7800420E-006  0.1428719E+03  0.7546771E-02  0.1223773E+00
         -1   -1    0    0    0  501 -0.00000000000E+00  0.00000000000E+00  0.32617526916E+03  0.32617526916E+03  0.00000000000E+00 0.  1.
          1   -1    0    0  501    0  0.00000000000E+00 -0.00000000000E+00 -0.57298489172E+02  0.57298489172E+02  0.00000000000E+00 0. -1.
         23    2    1    2    0    0  0.67011183843E+02 -0.17193012236E+02  0.71969201514E+02  0.15997485279E+03  0.12500515641E+03 0.  0.
          5    1    3    3  502    0 -0.15576889544E+02 -0.17913029083E+02 -0.23443987318E+02  0.33693124524E+02  0.47000000000E+01 0. -1.
         -5    1    3    3    0  502  0.82588073387E+02  0.72001684693E+00  0.95413188833E+02  0.12628172826E+03  0.47000000000E+01 0. -1.
        -11    1    1    2    0    0 -0.65061229242E+02 -0.54733783665E+01  0.18808979892E+03  0.19909970838E+03  0.00000000000E+00 0.  1.
         11    1    1    2    0    0 -0.19499546014E+01  0.22666390602E+02  0.88177795596E+01  0.24399197164E+02  0.00000000000E+00 0. -1.
<mgrwt>
<rscale>  0 0.13251388E+03</rscale>
<asrwt>0</asrwt>
<pdfrwt beam="2">  1        1 0.88151524E-02 0.14287193E+03</pdfrwt>
<pdfrwt beam="1">  1       -1 0.50180810E-01 0.14287193E+03</pdfrwt>
<totfact> 0.30043311E+03</totfact>
</mgrwt>
</event>
<event>
 7    1  0.7800420E-006  0.1503847E+03  0.7546771E-02  0.1209521E+00
          1   -1    0    0  501    0  0.00000000000E+00  0.00000000000E+00  0.55254281947E+03  0.55254281947E+03  0.00000000000E+00 0. -1.
         -1   -1    0    0    0  501 -0.00000000000E+00 -0.00000000000E+00 -0.35220922914E+02  0.35220922914E+02  0.00000000000E+00 0.  1.
         23    2    1    2    0    0 -0.75979542928E+02  0.34889038085E+02  0.34486190758E+03  0.37622503730E+03  0.12500162984E+03 0.  0.
          5    1    3    3  502    0 -0.31781464778E+01 -0.20832847628E+02  0.22100704524E+03  0.22205925381E+03  0.47000000000E+01 0.  1.
         -5    1    3    3    0  502 -0.72801396450E+02  0.55721885713E+02  0.12385486234E+03  0.15416578349E+03  0.47000000000E+01 0.  1.
        -11    1    1    2    0    0  0.56517158547E+02 -0.13169051075E+01  0.30225139030E+02  0.64105245329E+02  0.00000000000E+00 0.  1.
         11    1    1    2    0    0  0.19462384381E+02 -0.33572132977E+02  0.14223484995E+03  0.14743345976E+03  0.00000000000E+00 0. -1.
<mgrwt>
<rscale>  0 0.14286847E+03</rscale>
<asrwt>0</asrwt>
<pdfrwt beam="1">  1        1 0.85006581E-01 0.15038465E+03</pdfrwt>
<pdfrwt beam="2">  1       -1 0.54186039E-02 0.15038465E+03</pdfrwt>
<totfact> 0.59505503E+03</totfact>
</mgrwt>
</event>
<event>
 7    1  0.7800420E-006  0.1523765E+03  0.7546771E-02  0.1205439E+00
          1   -1    0    0  501    0  0.00000000000E+00  0.00000000000E+00  0.30060104000E+03  0.30060104000E+03  0.00000000000E+00 0. -1.
         -1   -1    0    0    0  501 -0.00000000000E+00 -0.00000000000E+00 -0.67826297473E+02  0.67826297473E+02  0.00000000000E+00 0.  1.
         23    2    1    2    0    0 -0.83536424649E+02  0.24813548348E+02  0.15901382021E+03  0.22023620270E+03  0.12499817413E+03 0.  0.
          5    1    3    3  502    0  0.16067531327E+02  0.46367813100E+02  0.40017026162E+02  0.63494818982E+02  0.47000000000E+01 0. -1.
         -5    1    3    3    0  502 -0.99603955977E+02 -0.21554264752E+02  0.11899679405E+03  0.15674138372E+03  0.47000000000E+01 0. -1.
        -11    1    1    2    0    0  0.28361892780E+02 -0.21609587459E+02  0.84657218138E+02  0.91859761675E+02  0.00000000000E+00 0. -1.
         11    1    1    2    0    0  0.55174531870E+02 -0.32039608890E+01 -0.10896295824E+02  0.56331373098E+02  0.00000000000E+00 0.  1.
<mgrwt>
<rscale>  0 0.14602913E+03</rscale>
<asrwt>0</asrwt>
<pdfrwt beam="1">  1        1 0.46246313E-01 0.15237647E+03</pdfrwt>
<pdfrwt beam="2">  1       -1 0.10434815E-01 0.15237647E+03</pdfrwt>
<totfact> 0.48152062E+03</totfact>
</mgrwt>
</event>
<event>
 7    1  0.7800420E-006  0.1490990E+03  0.7546771E-02  0.1211634E+00
          1   -1    0    0  501    0  0.00000000000E+00  0.00000000000E+00  0.49530030871E+03  0.49530030871E+03  0.00000000000E+00 0. -1.
         -1   -1    0    0    0  501 -0.00000000000E+00 -0.00000000000E+00 -0.43094833968E+02  0.43094833968E+02  0.00000000000E+00 0.  1.
         23    2    1    2    0    0  0.11457372819E+01 -0.81264417752E+02  0.35079363356E+03  0.38116490466E+03  0.12500117157E+03 0.  0.
          5    1    3    3  502    0  0.49408399016E+02 -0.86234240502E+02  0.25394476594E+03  0.27274084453E+03  0.47000000000E+01 0.  1.
         -5    1    3    3    0  502 -0.48262661734E+02  0.49698227505E+01  0.96848867623E+02  0.10842406013E+03  0.47000000000E+01 0.  1.
        -11    1    1    2    0    0 -0.28663311870E+02  0.85918286037E+02  0.87935077147E+02  0.12623832665E+03  0.00000000000E+00 0. -1.
         11    1    1    2    0    0  0.27517574588E+02 -0.46538682849E+01  0.13476764039E+02  0.30991911367E+02  0.00000000000E+00 0.  1.
<mgrwt>
<rscale>  0 0.14126696E+03</rscale>
<asrwt>0</asrwt>
<pdfrwt beam="1">  1        1 0.76200043E-01 0.14909900E+03</pdfrwt>
<pdfrwt beam="2">  1       -1 0.66299748E-02 0.14909900E+03</pdfrwt>
<totfact> 0.50846945E+03</totfact>
</mgrwt>
</event>
<event>
 7    1  0.7800420E-006  0.1296945E+03  0.7546771E-02  0.1242206E+00
          1   -1    0    0  501    0  0.00000000000E+00  0.00000000000E+00  0.49413042909E+02  0.49413042909E+02  0.00000000000E+00 0. -1.
         -1   -1    0    0    0  501 -0.00000000000E+00 -0.00000000000E+00 -0.28197214250E+03  0.28197214250E+03  0.00000000000E+00 0.  1.
         23    2    1    2    0    0  0.20547674774E+02 -0.92040443827E+01 -0.85511735454E+02  0.15534773489E+03  0.12772525382E+03 0.  0.
          5    1    3    3  502    0  0.50602638034E+02 -0.51433213502E+02 -0.27364161452E+02  0.77310347038E+02  0.47000000000E+01 0. -1.
         -5    1    3    3    0  502 -0.30054963261E+02  0.42229169119E+02 -0.58147574002E+02  0.78037387856E+02  0.47000000000E+01 0.  1.
        -11    1    1    2    0    0 -0.40167360769E+02  0.34328909350E+02 -0.12900835637E+03  0.13940963705E+03  0.00000000000E+00 0. -1.
         11    1    1    2    0    0  0.19619685996E+02 -0.25124864967E+02 -0.18039007766E+02  0.36627813467E+02  0.00000000000E+00 0.  1.
<mgrwt>
<rscale>  0 0.12054159E+03</rscale>
<asrwt>0</asrwt>
<pdfrwt beam="1">  1        1 0.76020067E-02 0.12969449E+03</pdfrwt>
<pdfrwt beam="2">  1       -1 0.43380329E-01 0.12969449E+03</pdfrwt>
<totfact> 0.47353054E+03</totfact>
</mgrwt>
</event>
<event>
 7    1  0.7800420E-006  0.1252026E+03  0.7546771E-02  0.1250232E+00
         -2   -1    0    0    0  501 -0.00000000000E+00  0.00000000000E+00  0.32412719267E+02  0.32412719267E+02  0.00000000000E+00 0. -1.
          2   -1    0    0  501    0  0.00000000000E+00 -0.00000000000E+00 -0.37469021977E+03  0.37469021977E+03  0.00000000000E+00 0.  1.
         23    2    1    2    0    0  0.66098897103E+01 -0.26855094507E+01 -0.23333694763E+03  0.26480523542E+03  0.12499911589E+03 0.  0.
          5    1    3    3  502    0  0.37618035100E+02 -0.41054797792E+02 -0.50322348180E+02  0.75200011389E+02  0.47000000000E+01 0.  1.
         -5    1    3    3    0  502 -0.31008145390E+02  0.38369288342E+02 -0.18301459945E+03  0.18960522403E+03  0.47000000000E+01 0.  1.
        -11    1    1    2    0    0 -0.25252440277E+02  0.26199255961E+02 -0.10608805491E+03  0.11215508079E+03  0.00000000000E+00 0.  1.
         11    1    1    2    0    0  0.18642550567E+02 -0.23513746510E+02 -0.28524979730E+01  0.30142622834E+02  0.00000000000E+00 0. -1.
<mgrwt>
<rscale>  0 0.11577619E+03</rscale>
<asrwt>0</asrwt>
<pdfrwt beam="2">  1        2 0.57644653E-01 0.12520256E+03</pdfrwt>
<pdfrwt beam="1">  1       -2 0.49865719E-02 0.12520256E+03</pdfrwt>
<totfact> 0.15756290E+04</totfact>
</mgrwt>
</event>
<event>
 7    1  0.7800420E-006  0.1332547E+03  0.7546771E-02  0.1234886E+00
          2   -1    0    0  501    0  0.00000000000E+00  0.00000000000E+00  0.41992832060E+03  0.41992832060E+03  0.00000000000E+00 0. -1.
         -2   -1    0    0    0  501 -0.00000000000E+00 -0.00000000000E+00 -0.35193804383E+02  0.35193804383E+02  0.00000000000E+00 0.  1.
         23    2    1    2    0    0 -0.35247410696E+01 -0.46040436874E+02  0.26638803502E+03  0.29785799905E+03  0.12499862705E+03 0.  0.
          5    1    3    3  502    0  0.59632839169E+02 -0.24709151829E+02  0.10736012073E+03  0.12535909706E+03  0.47000000000E+01 0.  1.
         -5    1    3    3    0  502 -0.63157580239E+02 -0.21331285045E+02  0.15902791429E+03  0.17249890199E+03  0.47000000000E+01 0.  1.
        -11    1    1    2    0    0  0.30230069141E+02  0.87599511962E+01  0.10483333497E+03  0.10945602745E+03  0.00000000000E+00 0. -1.
         11    1    1    2    0    0 -0.26705328071E+02  0.37280485678E+02  0.13513146225E+02  0.47808098484E+02  0.00000000000E+00 0.  1.
<mgrwt>
<rscale>  0 0.12511722E+03</rscale>
<asrwt>0</asrwt>
<pdfrwt beam="1">  1        2 0.64604354E-01 0.13325465E+03</pdfrwt>
<pdfrwt beam="2">  1       -2 0.54144317E-02 0.13325465E+03</pdfrwt>
<totfact> 0.12393261E+04</totfact>
</mgrwt>
</event>
<event>
 7    1  0.7800420E-006  0.1415569E+03  0.7546771E-02  0.1221110E+00
          1   -1    0    0  501    0  0.00000000000E+00  0.00000000000E+00  0.17556424949E+04  0.17556424949E+04  0.00000000000E+00 0. -1.
         -1   -1    0    0    0  501 -0.00000000000E+00 -0.00000000000E+00 -0.11108746490E+02  0.11108746490E+02  0.00000000000E+00 0.  1.
         23    2    1    2    0    0 -0.55098288661E+02 -0.37112499816E+02  0.12967440810E+04  0.13044476151E+04  0.12500083983E+03 0.  0.
          5    1    3    3  502    0 -0.71057597372E+02 -0.25785669784E+02  0.37955272080E+03  0.38703545158E+03  0.47000000000E+01 0.  1.
         -5    1    3    3    0  502  0.15959308711E+02 -0.11326830032E+02  0.91719136018E+03  0.91741216354E+03  0.47000000000E+01 0.  1.
        -11    1    1    2    0    0 -0.11134414176E+01  0.50131627976E+02  0.28982460623E+03  0.29413045108E+03  0.00000000000E+00 0. -1.
         11    1    1    2    0    0  0.56211730079E+02 -0.13019128160E+02  0.15796506118E+03  0.16817317518E+03  0.00000000000E+00 0.  1.
<mgrwt>
<rscale>  0 0.13437156E+03</rscale>
<asrwt>0</asrwt>
<pdfrwt beam="1">  1        1 0.27009862E+00 0.14155695E+03</pdfrwt>
<pdfrwt beam="2">  1       -1 0.17090393E-02 0.14155695E+03</pdfrwt>
<totfact> 0.41542137E+03</totfact>
</mgrwt>
</event>
<event>
 7    1  0.7800420E-006  0.1906526E+03  0.7546771E-02  0.1162113E+00
          1   -1    0    0  501    0  0.00000000000E+00  0.00000000000E+00  0.36730613664E+03  0.36730613664E+03  0.00000000000E+00 0. -1.
         -1   -1    0    0    0  501 -0.00000000000E+00 -0.00000000000E+00 -0.11114265284E+03  0.11114265284E+03  0.00000000000E+00 0.  1.
         23    2    1    2    0    0 -0.12648090177E+03 -0.68742585371E+02  0.23772030565E+03  0.30472830832E+03  0.12500174647E+03 0.  0.
          5    1    3    3  502    0 -0.57579581657E+02 -0.70647046774E+02  0.48623163639E+02  0.10340558730E+03  0.47000000000E+01 0.  1.
         -5    1    3    3    0  502 -0.68901320115E+02  0.19044614029E+01  0.18909714201E+03  0.20132272103E+03  0.47000000000E+01 0.  1.
        -11    1    1    2    0    0  0.17975522149E+02 -0.16342162285E+02 -0.18998556092E+02  0.30840408529E+02  0.00000000000E+00 0.  1.
         11    1    1    2    0    0  0.10850537962E+03  0.85084747656E+02  0.37441734240E+02  0.14288007263E+03  0.00000000000E+00 0. -1.
<mgrwt>
<rscale>  0 0.18600704E+03</rscale>
<asrwt>0</asrwt>
<pdfrwt beam="1">  1        1 0.56508636E-01 0.19065256E+03</pdfrwt>
<pdfrwt beam="2">  1       -1 0.17098870E-01 0.19065256E+03</pdfrwt>
<totfact> 0.17454450E+03</totfact>
</mgrwt>
</event>
<event>
 7    1  0.7800420E-006  0.1437385E+03  0.7546771E-02  0.1219047E+00
          4   -1    0    0  501    0  0.00000000000E+00  0.00000000000E+00  0.67788711666E+02  0.67788711666E+02  0.00000000000E+00 0. -1.
         -4   -1    0    0    0  501 -0.00000000000E+00 -0.00000000000E+00 -0.24739727558E+03  0.24739727558E+03  0.00000000000E+00 0.  1.
         23    2    1    2    0    0 -0.68786321785E+02 -0.17415493196E+02 -0.88946434179E+02  0.16903322887E+03  0.12500362731E+03 0.  0.
          5    1    3    3  502    0 -0.98709795955E+02  0.10510565695E+02 -0.45961382274E+02  0.10949262290E+03  0.47000000000E+01 0. -1.
         -5    1    3    3    0  502  0.29923474171E+02 -0.27926058891E+02 -0.42985051905E+02  0.59540605967E+02  0.47000000000E+01 0. -1.
        -11    1    1    2    0    0  0.31465688841E+02  0.53745675310E+02 -0.44347351468E+02  0.76455050657E+02  0.00000000000E+00 0.  1.
         11    1    1    2    0    0  0.37320632944E+02 -0.36330182114E+02 -0.46314778263E+02  0.69697707720E+02  0.00000000000E+00 0. -1.
<mgrwt>
<rscale>  0 0.13583400E+03</rscale>
<asrwt>0</asrwt>
<pdfrwt beam="1">  1        4 0.10429033E-01 0.14373853E+03</pdfrwt>
<pdfrwt beam="2">  1       -4 0.38061119E-01 0.14373853E+03</pdfrwt>
<totfact> 0.79313562E+02</totfact>
</mgrwt>
</event>
<event>
 7    1  0.7800420E-006  0.1409994E+03  0.7546771E-02  0.1222638E+00
         -2   -1    0    0    0  501 -0.00000000000E+00  0.00000000000E+00  0.40465706526E+02  0.40465706526E+02  0.00000000000E+00 0.  1.
          2   -1    0    0  501    0  0.00000000000E+00 -0.00000000000E+00 -0.39765141899E+03  0.39765141899E+03  0.00000000000E+00 0. -1.
         23    2    1    2    0    0  0.63885609266E+02  0.13197649789E+02 -0.20353219021E+03  0.24760084873E+03  0.12500111523E+03 0.  0.
          5    1    3    3  502    0  0.31226452761E+02  0.28529169326E+02 -0.20674134198E+03  0.21107599897E+03  0.47000000000E+01 0.  1.
         -5    1    3    3    0  502  0.32659156505E+02 -0.15331519536E+02  0.32091517755E+01  0.36524849760E+02  0.47000000000E+01 0.  1.
        -11    1    1    2    0    0 -0.25368469017E+02 -0.16187027140E+02  0.19815238915E+01  0.30158008967E+02  0.00000000000E+00 0.  1.
         11    1    1    2    0    0 -0.38517140249E+02  0.29893773508E+01 -0.15563504615E+03  0.16035826782E+03  0.00000000000E+00 0. -1.
<mgrwt>
<rscale>  0 0.13330087E+03</rscale>
<asrwt>0</asrwt>
<pdfrwt beam="2">  1        2 0.61177142E-01 0.14099939E+03</pdfrwt>
<pdfrwt beam="1">  1       -2 0.62254932E-02 0.14099939E+03</pdfrwt>
<totfact> 0.10680316E+04</totfact>
</mgrwt>
</event>
<event>
 7    1  0.7800420E-006  0.2134501E+03  0.7546771E-02  0.1142433E+00
         -2   -1    0    0    0  501 -0.00000000000E+00  0.00000000000E+00  0.20121580656E+02  0.20121580656E+02  0.00000000000E+00 0.  1.
          2   -1    0    0  501    0  0.00000000000E+00 -0.00000000000E+00 -0.21299786054E+04  0.21299786054E+04  0.00000000000E+00 0. -1.
         23    2    1    2    0    0 -0.80401355660E+02  0.15321267446E+03 -0.12613231350E+04  0.12792564234E+04  0.12498977611E+03 0.  0.
          5    1    3    3  502    0 -0.42192898853E+02  0.45426308495E+02 -0.15465590020E+03  0.16668631523E+03  0.47000000000E+01 0.  1.
         -5    1    3    3    0  502 -0.38208456808E+02  0.10778636596E+03 -0.11066672348E+04  0.11125701081E+04  0.47000000000E+01 0.  1.
        -11    1    1    2    0    0  0.23551571299E+02 -0.12663511535E+03 -0.47886152540E+03  0.49588253595E+03  0.00000000000E+00 0.  1.
         11    1    1    2    0    0  0.56849784362E+02 -0.26577559108E+02 -0.36967236435E+03  0.37496122679E+03  0.00000000000E+00 0. -1.
<mgrwt>
<rscale>  0 0.20890836E+03</rscale>
<asrwt>0</asrwt>
<pdfrwt beam="2">  1        2 0.32768899E+00 0.21345010E+03</pdfrwt>
<pdfrwt beam="1">  1       -2 0.30956281E-02 0.21345010E+03</pdfrwt>
<totfact> 0.25695407E+03</totfact>
</mgrwt>
</event>
<event>
 7    1  0.7800420E-006  0.1470199E+03  0.7546771E-02  0.1214167E+00
         -2   -1    0    0    0  501 -0.00000000000E+00  0.00000000000E+00  0.10326518965E+02  0.10326518965E+02  0.00000000000E+00 0.  1.
          2   -1    0    0  501    0  0.00000000000E+00 -0.00000000000E+00 -0.17445374343E+04  0.17445374343E+04  0.00000000000E+00 0. -1.
         23    2    1    2    0    0 -0.24252439317E+02 -0.73498849684E+02 -0.10800503011E+04  0.10900107825E+04  0.12499836604E+03 0.  0.
          5    1    3    3  502    0  0.50765917777E+02 -0.24571755103E+02 -0.47221890959E+03  0.47559829492E+03  0.47000000000E+01 0. -1.
         -5    1    3    3    0  502 -0.75018357094E+02 -0.48927094581E+02 -0.60783139147E+03  0.61441248762E+03  0.47000000000E+01 0. -1.
        -11    1    1    2    0    0  0.40069081597E+02 -0.34140524043E+01 -0.21552599710E+03  0.21924562135E+03  0.00000000000E+00 0. -1.
         11    1    1    2    0    0 -0.15816642279E+02  0.76912902088E+02 -0.43863461718E+03  0.44560754939E+03  0.00000000000E+00 0.  1.
<mgrwt>
<rscale>  0 0.13937936E+03</rscale>
<asrwt>0</asrwt>
<pdfrwt beam="2">  1        2 0.26839018E+00 0.14701991E+03</pdfrwt>
<pdfrwt beam="1">  1       -2 0.15886964E-02 0.14701991E+03</pdfrwt>
<totfact> 0.10766894E+04</totfact>
</mgrwt>
</event>
<event>
 7    1  0.7800420E-006  0.1661043E+03  0.7546771E-02  0.1188899E+00
         -1   -1    0    0    0  501 -0.00000000000E+00  0.00000000000E+00  0.10525186598E+03  0.10525186598E+03  0.00000000000E+00 0.  1.
          1   -1    0    0  501    0  0.00000000000E+00 -0.00000000000E+00 -0.22760763036E+03  0.22760763036E+03  0.00000000000E+00 0. -1.
         23    2    1    2    0    0 -0.43798154844E+02  0.10024381032E+03 -0.79770763833E+02  0.18426611752E+03  0.12499410958E+03 0.  0.
          5    1    3    3  502    0  0.23566267378E+01  0.10620822533E+03 -0.86412398411E+02  0.13702165309E+03  0.47000000000E+01 0.  1.
         -5    1    3    3    0  502 -0.46154781582E+02 -0.59644150080E+01  0.66416345781E+01  0.47244464428E+02  0.47000000000E+01 0.  1.
        -11    1    1    2    0    0  0.11910858616E+02 -0.84074829935E+02  0.94724753047E+01  0.85441052019E+02  0.00000000000E+00 0.  1.
         11    1    1    2    0    0  0.31887296228E+02 -0.16168980387E+02 -0.52057475855E+02  0.63152326797E+02  0.00000000000E+00 0. -1.
<mgrwt>
<rscale>  0 0.15982068E+03</rscale>
<asrwt>0</asrwt>
<pdfrwt beam="2">  1        1 0.35016558E-01 0.16610427E+03</pdfrwt>
<pdfrwt beam="1">  1       -1 0.16192595E-01 0.16610427E+03</pdfrwt>
<totfact> 0.34458305E+03</totfact>
</mgrwt>
</event>
<event>
 7    1  0.7800420E-006  0.1505767E+03  0.7546771E-02  0.1208954E+00
         -3   -1    0    0    0  501 -0.00000000000E+00  0.00000000000E+00  0.27074450727E+02  0.27074450727E+02  0.00000000000E+00 0.  1.
          3   -1    0    0  501    0  0.00000000000E+00 -0.00000000000E+00 -0.91312859589E+03  0.91312859589E+03  0.00000000000E+00 0. -1.
         23    2    1    2    0    0 -0.69529694762E+02  0.47043732789E+02 -0.70583596304E+03  0.72171860531E+03  0.12500338905E+03 0.  0.
          5    1    3    3  502    0 -0.92051184579E+02  0.60356049617E+02 -0.65647466123E+03  0.66565557471E+03  0.47000000000E+01 0.  1.
         -5    1    3    3    0  502  0.22521489817E+02 -0.13312316829E+02 -0.49361301813E+02  0.56063030596E+02  0.47000000000E+01 0.  1.
        -11    1    1    2    0    0  0.29986853350E+02  0.19582261607E+02 -0.10320667084E+03  0.10924419092E+03  0.00000000000E+00 0. -1.
         11    1    1    2    0    0  0.39542841412E+02 -0.66625994395E+02 -0.77011511283E+02  0.10924025039E+03  0.00000000000E+00 0.  1.
<mgrwt>
<rscale>  0 0.14330173E+03</rscale>
<asrwt>0</asrwt>
<pdfrwt beam="2">  1        3 0.14048134E+00 0.15057669E+03</pdfrwt>
<pdfrwt beam="1">  1       -3 0.41652995E-02 0.15057669E+03</pdfrwt>
<totfact> 0.29163665E+02</totfact>
</mgrwt>
</event>
<event>
 7    1  0.7800420E-006  0.1920490E+03  0.7546771E-02  0.1161350E+00
          2   -1    0    0  501    0  0.00000000000E+00  0.00000000000E+00  0.11282366262E+04  0.11282366262E+04  0.00000000000E+00 0. -1.
         -2   -1    0    0    0  501 -0.00000000000E+00 -0.00000000000E+00 -0.46487203563E+02  0.46487203563E+02  0.00000000000E+00 0.  1.
         23    2    1    2    0    0  0.89503234571E+02 -0.11509515720E+03  0.91575563128E+03  0.93567687096E+03  0.12500042571E+03 0.  0.
          5    1    3    3  502    0  0.56352546869E+01  0.21828759274E+02  0.23948867658E+03  0.24059336449E+03  0.47000000000E+01 0. -1.
         -5    1    3    3    0  502  0.83867979884E+02 -0.13692391647E+03  0.67626695469E+03  0.69508350647E+03  0.47000000000E+01 0. -1.
        -11    1    1    2    0    0 -0.56138341988E+02  0.83904592005E+01  0.34393747486E+02  0.66368992104E+02  0.00000000000E+00 0. -1.
         11    1    1    2    0    0 -0.33364892583E+02  0.10670469800E+03  0.13160004383E+03  0.17267796666E+03  0.00000000000E+00 0.  1.
<mgrwt>
<rscale>  0 0.18683202E+03</rscale>
<asrwt>0</asrwt>
<pdfrwt beam="1">  1        2 0.17357485E+00 0.19204903E+03</pdfrwt>
<pdfrwt beam="2">  1       -2 0.71518783E-02 0.19204903E+03</pdfrwt>
<totfact> 0.24683278E+03</totfact>
</mgrwt>
</event>
<event>
 7    1  0.7800420E-006  0.1299594E+03  0.7546771E-02  0.1236687E+00
          2   -1    0    0  501    0  0.00000000000E+00  0.00000000000E+00  0.44924721125E+03  0.44924721125E+03  0.00000000000E+00 0. -1.
         -2   -1    0    0    0  501 -0.00000000000E+00 -0.00000000000E+00 -0.35960675228E+02  0.35960675228E+02  0.00000000000E+00 0.  1.
         23    2    1    2    0    0  0.48372392531E+01 -0.35212688371E+02  0.30961093610E+03  0.33578023910E+03  0.12500441957E+03 0.  0.
          5    1    3    3  502    0 -0.32736214921E+02  0.11482507848E+02  0.20678575062E+02  0.40659577229E+02  0.47000000000E+01 0. -1.
         -5    1    3    3    0  502  0.37573454174E+02 -0.46695196219E+02  0.28893236104E+03  0.29512066187E+03  0.47000000000E+01 0. -1.
        -11    1    1    2    0    0 -0.56164601115E+01 -0.13837956855E+02 -0.14905379109E+02  0.21099857831E+02  0.00000000000E+00 0.  1.
         11    1    1    2    0    0  0.77922085838E+00  0.49050645226E+02  0.11858097902E+03  0.12832778954E+03  0.00000000000E+00 0. -1.
<mgrwt>
<rscale>  0 0.12397075E+03</rscale>
<asrwt>0</asrwt>
<pdfrwt beam="1">  1        2 0.69114951E-01 0.12995937E+03</pdfrwt>
<pdfrwt beam="2">  1       -2 0.55324119E-02 0.12995937E+03</pdfrwt>
<totfact> 0.11135325E+04</totfact>
</mgrwt>
</event>
<event>
 7    1  0.7800420E-006  0.1474775E+03  0.7546771E-02  0.1213404E+00
          2   -1    0    0  501    0  0.00000000000E+00  0.00000000000E+00  0.82876329598E+03  0.82876329598E+03  0.00000000000E+00 0. -1.
         -2   -1    0    0    0  501 -0.00000000000E+00 -0.00000000000E+00 -0.43680945105E+02  0.43680945105E+02  0.00000000000E+00 0.  1.
         23    2    1    2    0    0 -0.76282625554E+02 -0.17514426528E+02  0.72266268970E+03  0.73755744241E+03  0.12499529463E+03 0.  0.
          5    1    3    3  502    0 -0.92887775520E+02  0.23692124271E+02  0.58518072680E+03  0.59299918095E+03  0.47000000000E+01 0.  1.
         -5    1    3    3    0  502  0.16605149966E+02 -0.41206550799E+02  0.13748196289E+03  0.14455826146E+03  0.47000000000E+01 0.  1.
        -11    1    1    2    0    0  0.23854337986E+02 -0.20710812927E+02  0.62469706146E+02  0.70003081353E+02  0.00000000000E+00 0. -1.
         11    1    1    2    0    0  0.52428287568E+02  0.38225239455E+02 -0.50044967544E-01  0.64883717320E+02  0.00000000000E+00 0.  1.
<mgrwt>
<rscale>  0 0.13994412E+03</rscale>
<asrwt>0</asrwt>
<pdfrwt beam="1">  1        2 0.12750203E+00 0.14747752E+03</pdfrwt>
<pdfrwt beam="2">  1       -2 0.67201460E-02 0.14747752E+03</pdfrwt>
<totfact> 0.41189250E+03</totfact>
</mgrwt>
</event>
<event>
 7    1  0.7800420E-006  0.2017202E+03  0.7546771E-02  0.1152469E+00
          1   -1    0    0  501    0  0.00000000000E+00  0.00000000000E+00  0.16985281669E+03  0.16985281669E+03  0.00000000000E+00 0. -1.
         -1   -1    0    0    0  501 -0.00000000000E+00 -0.00000000000E+00 -0.24093388179E+03  0.24093388179E+03  0.00000000000E+00 0.  1.
         23    2    1    2    0    0  0.41415031863E+02 -0.15277283975E+03  0.26786415669E+02  0.20349089478E+03  0.12504513891E+03 0.  0.
          5    1    3    3  502    0 -0.15736025662E+02  0.14829615353E+02 -0.68936515943E+01  0.23176549084E+02  0.47000000000E+01 0. -1.
         -5    1    3    3    0  502  0.57151057526E+02 -0.16760245510E+03  0.33680067263E+02  0.18031434569E+03  0.47000000000E+01 0. -1.
        -11    1    1    2    0    0 -0.28641996137E+02  0.11428473500E+02 -0.47639403502E+02  0.56749332289E+02  0.00000000000E+00 0.  1.
         11    1    1    2    0    0 -0.12773035726E+02  0.14134436625E+03 -0.50228077266E+02  0.15054647142E+03  0.00000000000E+00 0. -1.
<mgrwt>
<rscale>  0 0.19679759E+03</rscale>
<asrwt>0</asrwt>
<pdfrwt beam="1">  1        1 0.26131203E-01 0.20172018E+03</pdfrwt>
<pdfrwt beam="2">  1       -1 0.37066751E-01 0.20172018E+03</pdfrwt>
<totfact> 0.12703316E+03</totfact>
</mgrwt>
</event>
<event>
 6    1  0.7800420E-006  0.1453151E+03  0.7546771E-02  0.1207390E+00
         -2   -1    0    0    0  501 -0.00000000000E+00  0.00000000000E+00  0.56319615398E+03  0.56319615398E+03  0.00000000000E+00 0.  1.
          2   -1    0    0  501    0  0.00000000000E+00 -0.00000000000E+00 -0.49884553545E+02  0.49884553545E+02  0.00000000000E+00 0. -1.
          5    1    1    2  502    0  0.46074490672E+01 -0.20053262231E+02 -0.33823364991E+02  0.39868181954E+02  0.47000000000E+01 0. -1.
         -5    1    1    2    0  502 -0.93387875487E+01 -0.22566405430E+02  0.13482622030E+03  0.13710089456E+03  0.47000000000E+01 0.  1.
        -11    1    1    2    0    0 -0.47464225512E+02  0.12180955853E+02  0.54720730345E+02  0.73454657568E+02  0.00000000000E+00 0.  1.
         11    1    1    2    0    0  0.52195563993E+02  0.30438711808E+02  0.35758801477E+03  0.36265697344E+03  0.00000000000E+00 0. -1.
<mgrwt>
<rscale>  0 0.14450675E+03</rscale>
<asrwt>0</asrwt>
<pdfrwt beam="2">  1        2 0.76745471E-02 0.14531510E+03</pdfrwt>
<pdfrwt beam="1">  1       -2 0.86645558E-01 0.14531510E+03</pdfrwt>
<totfact> 0.10432752E+03</totfact>
</mgrwt>
</event>
<event>
 7    1  0.7800420E-006  0.1320137E+03  0.7546771E-02  0.1237556E+00
         -2   -1    0    0    0  501 -0.00000000000E+00  0.00000000000E+00  0.43046759715E+02  0.43046759715E+02  0.00000000000E+00 0.  1.
          2   -1    0    0  501    0  0.00000000000E+00 -0.00000000000E+00 -0.36643637897E+03  0.36643637897E+03  0.00000000000E+00 0. -1.
         23    2    1    2    0    0  0.11103654550E+02 -0.40987205583E+02 -0.25643996087E+03  0.28842514522E+03  0.12499747479E+03 0.  0.
          5    1    3    3  502    0 -0.11217798080E+02 -0.75675328714E+02 -0.96774146322E+02  0.12345006993E+03  0.47000000000E+01 0. -1.
         -5    1    3    3    0  502  0.22321452630E+02  0.34688123131E+02 -0.15966581454E+03  0.16497507529E+03  0.47000000000E+01 0. -1.
        -11    1    1    2    0    0 -0.17733416538E+02  0.67499646738E+02 -0.32229975941E+02  0.76872932304E+02  0.00000000000E+00 0. -1.
         11    1    1    2    0    0  0.66297619875E+01 -0.26512441155E+02 -0.34719682448E+02  0.44185061156E+02  0.00000000000E+00 0.  1.
<mgrwt>
<rscale>  0 0.12342245E+03</rscale>
<asrwt>0</asrwt>
<pdfrwt beam="2">  1        2 0.56374829E-01 0.13201368E+03</pdfrwt>
<pdfrwt beam="1">  1       -2 0.66225783E-02 0.13201368E+03</pdfrwt>
<totfact> 0.10555064E+04</totfact>
</mgrwt>
</event>
<event>
 7    1  0.7800420E-006  0.2591153E+03  0.7546771E-02  0.1109916E+00
          2   -1    0    0  501    0  0.00000000000E+00  0.00000000000E+00  0.11847706059E+04  0.11847706059E+04  0.00000000000E+00 0. -1.
         -2   -1    0    0    0  501 -0.00000000000E+00 -0.00000000000E+00 -0.53906648743E+02  0.53906648743E+02  0.00000000000E+00 0.  1.
         23    2    1    2    0    0 -0.79099935897E+02 -0.21274202254E+03  0.63090998489E+03  0.68204702224E+03  0.12499905401E+03 0.  0.
          5    1    3    3  502    0 -0.42350278667E+02 -0.81032114371E+01  0.18512940627E+03  0.19014256548E+03  0.47000000000E+01 0.  1.
         -5    1    3    3    0  502 -0.36749657230E+02 -0.20463881110E+03  0.44578057861E+03  0.49190445676E+03  0.47000000000E+01 0.  1.
        -11    1    1    2    0    0  0.86796391834E+02  0.10302368102E+03  0.27772874062E+03  0.30867579409E+03  0.00000000000E+00 0.  1.
         11    1    1    2    0    0 -0.76964559370E+01  0.10971834151E+03  0.22222523163E+03  0.24795443830E+03  0.00000000000E+00 0. -1.
<mgrwt>
<rscale>  0 0.25543649E+03</rscale>
<asrwt>0</asrwt>
<pdfrwt beam="1">  1        2 0.18227238E+00 0.25911529E+03</pdfrwt>
<pdfrwt beam="2">  1       -2 0.82933315E-02 0.25911529E+03</pdfrwt>
<totfact> 0.18214070E+03</totfact>
</mgrwt>
</event>
<event>
 7    1  0.7800420E-006  0.1489287E+03  0.7546771E-02  0.1203341E+00
          2   -1    0    0  501    0  0.00000000000E+00  0.00000000000E+00  0.30971839579E+04  0.30971839579E+04  0.00000000000E+00 0. -1.
         -2   -1    0    0    0  501 -0.00000000000E+00 -0.00000000000E+00 -0.19524630557E+02  0.19524630557E+02  0.00000000000E+00 0.  1.
         23    2    1    2    0    0  0.78422458416E+02  0.38021130655E+02  0.27996086463E+04  0.28035670743E+04  0.12076456187E+03 0.  0.
          5    1    3    3  502    0  0.84831355824E+02  0.42091645451E+02  0.27837739335E+04  0.27853882079E+04  0.47000000000E+01 0. -1.
         -5    1    3    3    0  502 -0.64088974081E+01 -0.40705147957E+01  0.15834712748E+02  0.18178866426E+02  0.47000000000E+01 0.  1.
        -11    1    1    2    0    0 -0.45423537735E+02 -0.25821983032E+02  0.27257325205E+03  0.27753603427E+03  0.00000000000E+00 0. -1.
         11    1    1    2    0    0 -0.32998920681E+02 -0.12199147623E+02  0.54774290090E+01  0.35605479878E+02  0.00000000000E+00 0.  1.
<mgrwt>
<rscale>  0 0.14768935E+03</rscale>
<asrwt>0</asrwt>
<pdfrwt beam="1">  1        2 0.47648945E+00 0.14892873E+03</pdfrwt>
<pdfrwt beam="2">  1       -2 0.30037918E-02 0.14892873E+03</pdfrwt>
<totfact> 0.79625449E+02</totfact>
</mgrwt>
</event>
<event>
 7    1  0.7800420E-006  0.1709210E+03  0.7546771E-02  0.1185727E+00
          4   -1    0    0  501    0  0.00000000000E+00  0.00000000000E+00  0.89952343218E+02  0.89952343218E+02  0.00000000000E+00 0.  1.
         -4   -1    0    0    0  501 -0.00000000000E+00 -0.00000000000E+00 -0.36235064409E+03  0.36235064409E+03  0.00000000000E+00 0. -1.
         23    2    1    2    0    0  0.97685996319E+02 -0.63606501113E+02 -0.31820867169E+02  0.17385789369E+03  0.12500263497E+03 0.  0.
          5    1    3    3  502    0 -0.27184994927E+02 -0.13389913467E+01  0.78543801863E+01  0.28715816811E+02  0.47000000000E+01 0. -1.
         -5    1    3    3    0  502  0.12487099125E+03 -0.62267509766E+02 -0.39675247356E+02  0.14514207688E+03  0.47000000000E+01 0. -1.
        -11    1    1    2    0    0 -0.51423075099E+01 -0.16288544578E+02 -0.20457705609E+02  0.26651036186E+02  0.00000000000E+00 0.  1.
         11    1    1    2    0    0 -0.92543688809E+02  0.79895045691E+02 -0.22011972810E+03  0.25179405744E+03  0.00000000000E+00 0. -1.
<mgrwt>
<rscale>  0 0.16265914E+03</rscale>
<asrwt>0</asrwt>
<pdfrwt beam="1">  1        4 0.13838822E-01 0.17092103E+03</pdfrwt>
<pdfrwt beam="2">  1       -4 0.55746253E-01 0.17092103E+03</pdfrwt>
<totfact> 0.23319691E+02</totfact>
</mgrwt>
</event>
<event>
 7    1  0.7800420E-006  0.1271928E+03  0.7546771E-02  0.1246500E+00
         -2   -1    0    0    0  501 -0.00000000000E+00  0.00000000000E+00  0.60661007280E+02  0.60661007280E+02  0.00000000000E+00 0.  1.
          2   -1    0    0  501    0  0.00000000000E+00 -0.00000000000E+00 -0.27199460394E+03  0.27199460394E+03  0.00000000000E+00 0. -1.
         23    2    1    2    0    0 -0.23425756298E+02 -0.22077703040E+01 -0.20117961296E+03  0.23801519422E+03  0.12499742277E+03 0.  0.
          5    1    3    3  502    0 -0.19417256389E+02  0.31070048990E+02 -0.20079739175E+03  0.20416674637E+03  0.47000000000E+01 0. -1.
         -5    1    3    3    0  502 -0.40084999097E+01 -0.33277819294E+02 -0.38222121046E+00  0.33848447845E+02  0.47000000000E+01 0. -1.
        -11    1    1    2    0    0 -0.44742637254E+01 -0.33553878490E+02  0.20796905815E+02  0.39728995571E+02  0.00000000000E+00 0.  1.
         11    1    1    2    0    0  0.27900020024E+02  0.35761648794E+02 -0.30950889505E+02  0.54911421425E+02  0.00000000000E+00 0. -1.
<mgrwt>
<rscale>  0 0.11796072E+03</rscale>
<asrwt>0</asrwt>
<pdfrwt beam="2">  1        2 0.41845324E-01 0.12719275E+03</pdfrwt>
<pdfrwt beam="1">  1       -2 0.93324627E-02 0.12719275E+03</pdfrwt>
<totfact> 0.85064044E+03</totfact>
</mgrwt>
</event>
<event>
 7    1  0.7800420E-006  0.1279608E+03  0.7546771E-02  0.1244889E+00
          2   -1    0    0  501    0  0.00000000000E+00  0.00000000000E+00  0.27221295592E+03  0.27221295592E+03  0.00000000000E+00 0. -1.
         -2   -1    0    0    0  501 -0.00000000000E+00 -0.00000000000E+00 -0.47305841856E+02  0.47305841856E+02  0.00000000000E+00 0.  1.
         23    2    1    2    0    0 -0.41419025056E+01 -0.27047090825E+02  0.15613239998E+03  0.20186952158E+03  0.12500110775E+03 0.  0.
          5    1    3    3  502    0  0.50920470599E+02 -0.24081247659E+02  0.12770158729E+03  0.13965166025E+03  0.47000000000E+01 0.  1.
         -5    1    3    3    0  502 -0.55062373105E+02 -0.29658431659E+01  0.28430812690E+02  0.62217861325E+02  0.47000000000E+01 0.  1.
        -11    1    1    2    0    0 -0.33136745440E+02 -0.31481394489E+01  0.60379762132E+02  0.68946866175E+02  0.00000000000E+00 0. -1.
         11    1    1    2    0    0  0.37278647945E+02  0.30195230274E+02  0.83949519530E+01  0.48702410025E+02  0.00000000000E+00 0.  1.
<mgrwt>
<rscale>  0 0.11892028E+03</rscale>
<asrwt>0</asrwt>
<pdfrwt beam="1">  1        2 0.41878915E-01 0.12796084E+03</pdfrwt>
<pdfrwt beam="2">  1       -2 0.72778220E-02 0.12796084E+03</pdfrwt>
<totfact> 0.12487718E+04</totfact>
</mgrwt>
</event>
<event>
 7    1  0.7800420E-006  0.1257676E+03  0.7546771E-02  0.1250483E+00
         -2   -1    0    0    0  501 -0.00000000000E+00  0.00000000000E+00  0.57439875104E+02  0.57439875104E+02  0.00000000000E+00 0.  1.
          2   -1    0    0  501    0  0.00000000000E+00 -0.00000000000E+00 -0.27036527831E+03  0.27036527831E+03  0.00000000000E+00 0. -1.
         23    2    1    2    0    0  0.13399738398E+02  0.28091678660E+01 -0.20106491545E+03  0.23715939161E+03  0.12502012795E+03 0.  0.
          5    1    3    3  502    0  0.43061012276E+02  0.42936276709E+02 -0.16355536125E+03  0.17455721363E+03  0.47000000000E+01 0. -1.
         -5    1    3    3    0  502 -0.29661273878E+02 -0.40127108843E+02 -0.37509554196E+02  0.62602177982E+02  0.47000000000E+01 0. -1.
        -11    1    1    2    0    0 -0.19211194567E+02  0.96767080876E+01  0.35398052082E+02  0.41421380558E+02  0.00000000000E+00 0.  1.
         11    1    1    2    0    0  0.58114561690E+01 -0.12485875954E+02 -0.47258539841E+02  0.49224381245E+02  0.00000000000E+00 0. -1.
<mgrwt>
<rscale>  0 0.11563142E+03</rscale>
<asrwt>0</asrwt>
<pdfrwt beam="2">  1        2 0.41594659E-01 0.12576755E+03</pdfrwt>
<pdfrwt beam="1">  1       -2 0.88369037E-02 0.12576755E+03</pdfrwt>
<totfact> 0.93115027E+03</totfact>
</mgrwt>
</event>
<event>
 7    1  0.7800420E-006  0.1690481E+03  0.7546771E-02  0.1184348E+00
         -1   -1    0    0    0  501 -0.00000000000E+00  0.00000000000E+00  0.22564608917E+02  0.22564608917E+02  0.00000000000E+00 0.  1.
          1   -1    0    0  501    0  0.00000000000E+00 -0.00000000000E+00 -0.11688972461E+04  0.11688972461E+04  0.00000000000E+00 0. -1.
         23    2    1    2    0    0 -0.72791810631E+02 -0.87503085987E+02 -0.72401989864E+03  0.74349315021E+03  0.12498725149E+03 0.  0.
          5    1    3    3  502    0 -0.39388456304E+02 -0.68002242075E+02 -0.16191809878E+03  0.18004253978E+03  0.47000000000E+01 0.  1.
         -5    1    3    3    0  502 -0.33403354326E+02 -0.19500843912E+02 -0.56210179985E+03  0.56345061043E+03  0.47000000000E+01 0.  1.
        -11    1    1    2    0    0  0.43401434767E+02  0.98359522713E+02 -0.38241102601E+03  0.39723604200E+03  0.00000000000E+00 0. -1.
         11    1    1    2    0    0  0.29390375864E+02 -0.10856436726E+02 -0.39901712504E+02  0.50732662778E+02  0.00000000000E+00 0.  1.
<mgrwt>
<rscale>  0 0.16391311E+03</rscale>
<asrwt>0</asrwt>
<pdfrwt beam="2">  1        1 0.17983032E+00 0.16904807E+03</pdfrwt>
<pdfrwt beam="1">  1       -1 0.34714788E-02 0.16904807E+03</pdfrwt>
<totfact> 0.36218413E+03</totfact>
</mgrwt>
</event>
<event>
 7    1  0.7800420E-006  0.1552315E+03  0.7546771E-02  0.1202535E+00
          2   -1    0    0  501    0  0.00000000000E+00  0.00000000000E+00  0.45190578518E+03  0.45190578518E+03  0.00000000000E+00 0. -1.
         -2   -1    0    0    0  501 -0.00000000000E+00 -0.00000000000E+00 -0.45481353249E+02  0.45481353249E+02  0.00000000000E+00 0.  1.
         23    2    1    2    0    0  0.39271781164E+02 -0.83255794547E+02  0.25106469611E+03  0.29517841241E+03  0.12499205334E+03 0.  0.
          5    1    3    3  502    0  0.77715719398E+02 -0.61322535149E+02  0.11394527353E+03  0.15101589889E+03  0.47000000000E+01 0. -1.
         -5    1    3    3    0  502 -0.38443938235E+02 -0.21933259398E+02  0.13711942258E+03  0.14416251351E+03  0.47000000000E+01 0. -1.
        -11    1    1    2    0    0 -0.46727870301E+02  0.21254583364E+01  0.43923089888E+02  0.64165795104E+02  0.00000000000E+00 0. -1.
         11    1    1    2    0    0  0.74560891371E+01  0.81130336210E+02  0.11143664593E+03  0.13804293091E+03  0.00000000000E+00 0.  1.
<mgrwt>
<rscale>  0 0.14833454E+03</rscale>
<asrwt>0</asrwt>
<pdfrwt beam="1">  1        2 0.69523964E-01 0.15523148E+03</pdfrwt>
<pdfrwt beam="2">  1       -2 0.69971316E-02 0.15523148E+03</pdfrwt>
<totfact> 0.78332037E+03</totfact>
</mgrwt>
</event>
<event>
 6    1  0.7800420E-006  0.2105117E+03  0.7546771E-02  0.1164414E+00
         -1   -1    0    0    0  501 -0.00000000000E+00  0.00000000000E+00  0.53387537650E+02  0.53387537650E+02  0.00000000000E+00 0.  1.
          1   -1    0    0  501    0  0.00000000000E+00 -0.00000000000E+00 -0.76123190377E+03  0.76123190377E+03  0.00000000000E+00 0. -1.
          5    1    1    2  502    0 -0.29741235581E+02  0.64415712573E+02 -0.25994986475E+03  0.26949943841E+03  0.47000000000E+01 0. -1.
         -5    1    1    2    0  502  0.10764879894E+03 -0.85917231223E+02 -0.38340888218E+03  0.40742422053E+03  0.47000000000E+01 0.  1.
        -11    1    1    2    0    0 -0.71568758001E+02  0.11126914511E+02 -0.86334385586E+02  0.11269215360E+03  0.00000000000E+00 0.  1.
         11    1    1    2    0    0 -0.63388053544E+01  0.10374604140E+02  0.21848766397E+02  0.25003628886E+02  0.00000000000E+00 0. -1.
<mgrwt>
<rscale>  0 0.18354654E+03</rscale>
<asrwt>0</asrwt>
<pdfrwt beam="2">  1        1 0.11711261E+00 0.21051167E+03</pdfrwt>
<pdfrwt beam="1">  1       -1 0.82134668E-02 0.21051167E+03</pdfrwt>
<totfact> 0.20466803E+03</totfact>
</mgrwt>
</event>
<event>
 7    1  0.7800420E-006  0.1376713E+03  0.7546771E-02  0.1218077E+00
          1   -1    0    0  501    0  0.00000000000E+00  0.00000000000E+00  0.33133498947E+03  0.33133498947E+03  0.00000000000E+00 0. -1.
         -1   -1    0    0    0  501 -0.00000000000E+00 -0.00000000000E+00 -0.61185039784E+02  0.61185039784E+02  0.00000000000E+00 0.  1.
         23    2    1    2    0    0  0.18555128986E+02  0.70218500793E+02  0.19774677488E+03  0.24095053962E+03  0.11695488405E+03 0.  0.
          5    1    3    3  502    0  0.29754338846E+02  0.76632036124E+02  0.20806917998E+03  0.22376921883E+03  0.47000000000E+01 0. -1.
         -5    1    3    3    0  502 -0.11199209860E+02 -0.64135353309E+01 -0.10322405098E+02  0.17181320786E+02  0.47000000000E+01 0.  1.
        -11    1    1    2    0    0 -0.25307567249E+02 -0.95505189973E+02  0.76658672990E+02  0.12505305441E+03  0.00000000000E+00 0.  1.
         11    1    1    2    0    0  0.67524382630E+01  0.25286689181E+02 -0.42554981868E+01  0.26516435225E+02  0.00000000000E+00 0. -1.
<mgrwt>
<rscale>  0 0.13652884E+03</rscale>
<asrwt>0</asrwt>
<pdfrwt beam="1">  1        1 0.50974613E-01 0.13767126E+03</pdfrwt>
<pdfrwt beam="2">  1       -1 0.94130833E-02 0.13767126E+03</pdfrwt>
<totfact> 0.49663319E+03</totfact>
</mgrwt>
</event>
<event>
 7    1  0.7800420E-006  0.1493192E+03  0.7546771E-02  0.1210767E+00
          2   -1    0    0  501    0  0.00000000000E+00  0.00000000000E+00  0.27951424810E+04  0.27951424810E+04  0.00000000000E+00 0. -1.
         -2   -1    0    0    0  501 -0.00000000000E+00 -0.00000000000E+00 -0.88892252666E+01  0.88892252666E+01  0.00000000000E+00 0.  1.
         23    2    1    2    0    0 -0.20499357571E+01  0.81604102681E+02  0.22098380983E+04  0.22148771154E+04  0.12503113105E+03 0.  0.
          5    1    3    3  502    0  0.27973052185E+02  0.34910961678E+02  0.18670163500E+04  0.18675581405E+04  0.47000000000E+01 0.  1.
         -5    1    3    3    0  502 -0.30022987942E+02  0.46693141003E+02  0.34282174834E+03  0.34731897494E+03  0.47000000000E+01 0.  1.
        -11    1    1    2    0    0 -0.11308760863E+02  0.18054099620E+02  0.99437333951E+02  0.10169376563E+03  0.00000000000E+00 0.  1.
         11    1    1    2    0    0  0.13358696620E+02 -0.99658202302E+02  0.47697782349E+03  0.48746082526E+03  0.00000000000E+00 0. -1.
<mgrwt>
<rscale>  0 0.14192135E+03</rscale>
<asrwt>0</asrwt>
<pdfrwt beam="1">  1        2 0.43002122E+00 0.14931917E+03</pdfrwt>
<pdfrwt beam="2">  1       -2 0.13675753E-02 0.14931917E+03</pdfrwt>
<totfact> 0.37356983E+03</totfact>
</mgrwt>
</event>
<event>
 7    1  0.7800420E-006  0.1262898E+03  0.7546771E-02  0.1251003E+00
          2   -1    0    0  501    0  0.00000000000E+00  0.00000000000E+00  0.60118567771E+02  0.60118567771E+02  0.00000000000E+00 0. -1.
         -2   -1    0    0    0  501 -0.00000000000E+00 -0.00000000000E+00 -0.24852089350E+03  0.24852089350E+03  0.00000000000E+00 0.  1.
         23    2    1    2    0    0  0.79431834312E+01  0.16161264396E+02 -0.33650557858E+02  0.13069611996E+03  0.12499934039E+03 0.  0.
          5    1    3    3  502    0 -0.13102084973E+02 -0.14414017141E+02 -0.73413017695E+02  0.76098552469E+02  0.47000000000E+01 0. -1.
         -5    1    3    3    0  502  0.21045268404E+02  0.30575281537E+02  0.39762459837E+02  0.54597567487E+02  0.47000000000E+01 0. -1.
        -11    1    1    2    0    0 -0.27291901385E+02 -0.42279765271E+02 -0.63170222625E+02  0.80764493802E+02  0.00000000000E+00 0. -1.
         11    1    1    2    0    0  0.19348717954E+02  0.26118500875E+02 -0.91581545244E+02  0.97178847512E+02  0.00000000000E+00 0.  1.
<mgrwt>
<rscale>  0 0.11533160E+03</rscale>
<asrwt>0</asrwt>
<pdfrwt beam="1">  1        2 0.92490105E-02 0.12628981E+03</pdfrwt>
<pdfrwt beam="2">  1       -2 0.38233983E-01 0.12628981E+03</pdfrwt>
<totfact> 0.43552269E+03</totfact>
</mgrwt>
</event>
<event>
 7    1  0.7800420E-006  0.1346616E+03  0.7546771E-02  0.1233435E+00
          1   -1    0    0  501    0  0.00000000000E+00  0.00000000000E+00  0.53827774353E+03  0.53827774353E+03  0.00000000000E+00 0. -1.
         -1   -1    0    0    0  501 -0.00000000000E+00 -0.00000000000E+00 -0.31165252660E+02  0.31165252660E+02  0.00000000000E+00 0.  1.
         23    2    1    2    0    0 -0.45011323872E+02  0.21980087725E+02  0.39314838959E+03  0.41557116845E+03  0.12499838510E+03 0.  0.
          5    1    3    3  502    0 -0.85118281787E+02  0.32498025797E+02  0.23731249290E+03  0.25424506457E+03  0.47000000000E+01 0.  1.
         -5    1    3    3    0  502  0.40106957916E+02 -0.10517938072E+02  0.15583589669E+03  0.16132610387E+03  0.47000000000E+01 0.  1.
        -11    1    1    2    0    0  0.44976006771E+01 -0.28908910770E+02  0.10853954430E+03  0.11241346098E+03  0.00000000000E+00 0. -1.
         11    1    1    2    0    0  0.40513723195E+02  0.69288230453E+01  0.54245569880E+01  0.41458366760E+02  0.00000000000E+00 0.  1.
<mgrwt>
<rscale>  0 0.12605164E+03</rscale>
<asrwt>0</asrwt>
<pdfrwt beam="1">  1        1 0.82811954E-01 0.13466158E+03</pdfrwt>
<pdfrwt beam="2">  1       -1 0.47946546E-02 0.13466158E+03</pdfrwt>
<totfact> 0.73401733E+03</totfact>
</mgrwt>
</event>
<event>
 7    1  0.7800420E-006  0.1997885E+03  0.7546771E-02  0.1154643E+00
         -2   -1    0    0    0  501 -0.00000000000E+00  0.00000000000E+00  0.13819017240E+03  0.13819017240E+03  0.00000000000E+00 0.  1.
          2   -1    0    0  501    0  0.00000000000E+00 -0.00000000000E+00 -0.26123212274E+03  0.26123212274E+03  0.00000000000E+00 0. -1.
         23    2    1    2    0    0 -0.10539607895E+03  0.11482624663E+03 -0.82642921165E+02  0.21620658973E+03  0.12498814604E+03 0.  0.
          5    1    3    3  502    0 -0.83589329161E+01  0.10113400791E+03 -0.38799791266E+02  0.10874499123E+03  0.47000000000E+01 0.  1.
         -5    1    3    3    0  502 -0.97037146036E+02  0.13692238713E+02 -0.43843129899E+02  0.10746159850E+03  0.47000000000E+01 0.  1.
        -11    1    1    2    0    0  0.63922468109E+02 -0.11617580293E+03 -0.48016922955E+02  0.14102667834E+03  0.00000000000E+00 0. -1.
         11    1    1    2    0    0  0.41473610843E+02  0.13495562984E+01  0.76178937791E+01  0.42189027059E+02  0.00000000000E+00 0.  1.
<mgrwt>
<rscale>  0 0.19429550E+03</rscale>
<asrwt>0</asrwt>
<pdfrwt beam="2">  1        2 0.40189557E-01 0.19978848E+03</pdfrwt>
<pdfrwt beam="1">  1       -2 0.21260027E-01 0.19978848E+03</pdfrwt>
<totfact> 0.23720281E+03</totfact>
</mgrwt>
</event>
<event>
 7    1  0.7800420E-006  0.1377599E+03  0.7546771E-02  0.1228001E+00
         -1   -1    0    0    0  501 -0.00000000000E+00  0.00000000000E+00  0.60355570318E+02  0.60355570318E+02  0.00000000000E+00 0.  1.
          1   -1    0    0  501    0  0.00000000000E+00 -0.00000000000E+00 -0.30749721178E+03  0.30749721178E+03  0.00000000000E+00 0. -1.
         23    2    1    2    0    0  0.57824617514E+02 -0.29141781737E+01 -0.21464866689E+03  0.25505259878E+03  0.12500239645E+03 0.  0.
          5    1    3    3  502    0  0.97008262493E+02 -0.74062827121E+01 -0.14093770907E+03  0.17132128838E+03  0.47000000000E+01 0.  1.
         -5    1    3    3    0  502 -0.39183644980E+02  0.44921045384E+01 -0.73710957826E+02  0.83731310397E+02  0.47000000000E+01 0.  1.
        -11    1    1    2    0    0  0.13790012391E+02  0.26689274114E+02 -0.20563006075E+02  0.36404931168E+02  0.00000000000E+00 0.  1.
         11    1    1    2    0    0 -0.71614629904E+02 -0.23775095941E+02 -0.11929968495E+02  0.76395252154E+02  0.00000000000E+00 0. -1.
<mgrwt>
<rscale>  0 0.12963342E+03</rscale>
<asrwt>0</asrwt>
<pdfrwt beam="2">  1        1 0.47307264E-01 0.13775986E+03</pdfrwt>
<pdfrwt beam="1">  1       -1 0.92854722E-02 0.13775986E+03</pdfrwt>
<totfact> 0.55631985E+03</totfact>
</mgrwt>
</event>
<event>
 7    1  0.7800420E-006  0.1330099E+03  0.7546771E-02  0.1235867E+00
         -2   -1    0    0    0  501 -0.00000000000E+00  0.00000000000E+00  0.85543476328E+01  0.85543476328E+01  0.00000000000E+00 0.  1.
          2   -1    0    0  501    0  0.00000000000E+00 -0.00000000000E+00 -0.19474205696E+04  0.19474205696E+04  0.00000000000E+00 0. -1.
         23    2    1    2    0    0 -0.34767547478E+02  0.29267845451E+02 -0.14763762749E+04  0.14823557396E+04  0.12500497820E+03 0.  0.
          5    1    3    3  502    0  0.39014999317E+02 -0.13825720563E+02 -0.70899062665E+03  0.71021343228E+03  0.47000000000E+01 0. -1.
         -5    1    3    3    0  502 -0.73782546795E+02  0.43093566014E+02 -0.76738564821E+03  0.77214230730E+03  0.47000000000E+01 0. -1.
        -11    1    1    2    0    0  0.73473443409E+01 -0.59438226913E+02 -0.31249539104E+03  0.31818273949E+03  0.00000000000E+00 0. -1.
         11    1    1    2    0    0  0.27420203137E+02  0.30170381462E+02 -0.14999455605E+03  0.15543643814E+03  0.00000000000E+00 0.  1.
<mgrwt>
<rscale>  0 0.12449071E+03</rscale>
<asrwt>0</asrwt>
<pdfrwt beam="2">  1        2 0.29960301E+00 0.13300990E+03</pdfrwt>
<pdfrwt beam="1">  1       -2 0.13160542E-02 0.13300990E+03</pdfrwt>
<totfact> 0.11082471E+04</totfact>
</mgrwt>
</event>
<event>
 7    1  0.7800420E-006  0.1177686E+03  0.7546771E-02  0.1257459E+00
         -1   -1    0    0    0  501 -0.00000000000E+00  0.00000000000E+00  0.67176376104E+03  0.67176376104E+03  0.00000000000E+00 0.  1.
          1   -1    0    0  501    0  0.00000000000E+00 -0.00000000000E+00 -0.17254407658E+02  0.17254407658E+02  0.00000000000E+00 0. -1.
         23    2    1    2    0    0  0.12890081164E+02  0.41523746643E+01  0.31158028231E+03  0.33309414787E+03  0.11698736093E+03 0.  0.
          5    1    3    3  502    0 -0.19215850189E+02 -0.46339882933E+02  0.86070799512E+02  0.99734177579E+02  0.47000000000E+01 0. -1.
         -5    1    3    3    0  502  0.32105931352E+02  0.50492257597E+02  0.22550948279E+03  0.23335997029E+03  0.47000000000E+01 0.  1.
        -11    1    1    2    0    0 -0.36471477163E+02  0.34054378104E+02  0.19860540528E+03  0.20477787069E+03  0.00000000000E+00 0.  1.
         11    1    1    2    0    0  0.23581396000E+02 -0.38206752768E+02  0.14432366579E+03  0.15114615014E+03  0.00000000000E+00 0. -1.
<mgrwt>
<rscale>  0 0.11169716E+03</rscale>
<asrwt>0</asrwt>
<pdfrwt beam="2">  1        1 0.26545248E-02 0.11776858E+03</pdfrwt>
<pdfrwt beam="1">  1       -1 0.10334825E+00 0.11776858E+03</pdfrwt>
<totfact> 0.36054093E+03</totfact>
</mgrwt>
</event>
<event>
 7    1  0.7800420E-006  0.1643290E+03  0.7546771E-02  0.1188621E+00
         -2   -1    0    0    0  501 -0.00000000000E+00  0.00000000000E+00  0.24442092498E+02  0.24442092498E+02  0.00000000000E+00 0.  1.
          2   -1    0    0  501    0  0.00000000000E+00 -0.00000000000E+00 -0.15851957426E+04  0.15851957426E+04  0.00000000000E+00 0. -1.
         23    2    1    2    0    0  0.11569240266E+03  0.12692597804E+02 -0.12958423249E+04  0.13062202506E+04  0.11600938782E+03 0.  0.
          5    1    3    3  502    0  0.11756080337E+03  0.32126996927E+02 -0.12528126490E+04  0.12587352025E+04  0.47000000000E+01 0. -1.
         -5    1    3    3    0  502 -0.18684007127E+01 -0.19434399124E+02 -0.43029675861E+02  0.47485048123E+02  0.47000000000E+01 0.  1.
        -11    1    1    2    0    0 -0.35008627308E+02  0.83292012535E+01 -0.18311254040E+03  0.18661506379E+03  0.00000000000E+00 0. -1.
         11    1    1    2    0    0 -0.80683775353E+02 -0.21021799057E+02 -0.81798784749E+02  0.11680252064E+03  0.00000000000E+00 0.  1.
<mgrwt>
<rscale>  0 0.16006707E+03</rscale>
<asrwt>0</asrwt>
<pdfrwt beam="2">  1        2 0.24387635E+00 0.16432898E+03</pdfrwt>
<pdfrwt beam="1">  1       -2 0.37603207E-02 0.16432898E+03</pdfrwt>
<totfact> 0.36899566E+03</totfact>
</mgrwt>
</event>
<event>
 7    1  0.7800420E-006  0.1457085E+03  0.7546771E-02  0.1235264E+00
          2   -1    0    0  501    0  0.00000000000E+00  0.00000000000E+00  0.10123014741E+03  0.10123014741E+03  0.00000000000E+00 0. -1.
         -2   -1    0    0    0  501 -0.00000000000E+00 -0.00000000000E+00 -0.13469221357E+03  0.13469221357E+03  0.00000000000E+00 0.  1.
         23    2    1    2    0    0  0.19017076194E+02  0.72398208109E+02  0.10090101291E+02  0.14605741371E+03  0.12501123242E+03 0.  0.
          5    1    3    3  502    0  0.27168317916E+02 -0.82605168432E+01  0.48366597660E+02  0.56282958399E+02  0.47000000000E+01 0.  1.
         -5    1    3    3    0  502 -0.81512417224E+01  0.80658724953E+02 -0.38276496369E+02  0.89774455314E+02  0.47000000000E+01 0.  1.
        -11    1    1    2    0    0  0.29915506258E+01 -0.10051003369E+02 -0.13875270115E+02  0.17392388123E+02  0.00000000000E+00 0.  1.
         11    1    1    2    0    0 -0.22008626819E+02 -0.62347204740E+02 -0.29676897329E+02  0.72472559141E+02  0.00000000000E+00 0. -1.
<mgrwt>
<rscale>  0 0.12487562E+03</rscale>
<asrwt>0</asrwt>
<pdfrwt beam="1">  1        2 0.15573869E-01 0.14570847E+03</pdfrwt>
<pdfrwt beam="2">  1       -2 0.20721879E-01 0.14570847E+03</pdfrwt>
<totfact> 0.70076280E+03</totfact>
</mgrwt>
</event>
<event>
 7    1  0.7800420E-006  0.1777099E+03  0.7546771E-02  0.1176607E+00
          1   -1    0    0  501    0  0.00000000000E+00  0.00000000000E+00  0.32379859453E+03  0.32379859453E+03  0.00000000000E+00 0. -1.
         -1   -1    0    0    0  501 -0.00000000000E+00 -0.00000000000E+00 -0.84687916249E+02  0.84687916249E+02  0.00000000000E+00 0.  1.
         23    2    1    2    0    0 -0.11183005015E+03 -0.58703925488E+02  0.13881685209E+03  0.22550147500E+03  0.12501474241E+03 0.  0.
          5    1    3    3  502    0 -0.52036411632E+02 -0.45478964906E+02  0.14799224613E+03  0.16340109944E+03  0.47000000000E+01 0.  1.
         -5    1    3    3    0  502 -0.59793638517E+02 -0.13224960581E+02 -0.91753940351E+01  0.62100375564E+02  0.47000000000E+01 0.  1.
        -11    1    1    2    0    0  0.44417218758E+02  0.62406425923E+02  0.22196633160E+02  0.79750497443E+02  0.00000000000E+00 0.  1.
         11    1    1    2    0    0  0.67412831390E+02 -0.37025004354E+01  0.78097193024E+02  0.10323453833E+03  0.00000000000E+00 0. -1.
<mgrwt>
<rscale>  0 0.17119570E+03</rscale>
<asrwt>0</asrwt>
<pdfrwt beam="1">  1        1 0.49815168E-01 0.17770987E+03</pdfrwt>
<pdfrwt beam="2">  1       -1 0.13028910E-01 0.17770987E+03</pdfrwt>
<totfact> 0.31348852E+03</totfact>
</mgrwt>
</event>
<event>
 7    1  0.7800420E-006  0.1404759E+03  0.7546771E-02  0.1224530E+00
          2   -1    0    0  501    0  0.00000000000E+00  0.00000000000E+00  0.18541435409E+03  0.18541435409E+03  0.00000000000E+00 0. -1.
         -2   -1    0    0    0  501 -0.00000000000E+00 -0.00000000000E+00 -0.99308906011E+02  0.99308906011E+02  0.00000000000E+00 0.  1.
         23    2    1    2    0    0 -0.64086920479E+02 -0.90111257092E+00  0.10265751406E+03  0.17398860958E+03  0.12500210274E+03 0.  0.
          5    1    3    3  502    0  0.31850710874E+02 -0.21252373270E+02  0.12131735960E+02  0.40440081234E+02  0.47000000000E+01 0. -1.
         -5    1    3    3    0  502 -0.95937631353E+02  0.20351260699E+02  0.90525778102E+02  0.13354852834E+03  0.47000000000E+01 0. -1.
        -11    1    1    2    0    0  0.75776269548E+02  0.97931963632E+01  0.13215551291E+02  0.77540960257E+02  0.00000000000E+00 0.  1.
         11    1    1    2    0    0 -0.11689349069E+02 -0.88920837923E+01 -0.29767617271E+02  0.33193690271E+02  0.00000000000E+00 0. -1.
<mgrwt>
<rscale>  0 0.13199136E+03</rscale>
<asrwt>0</asrwt>
<pdfrwt beam="1">  1        2 0.28525285E-01 0.14047587E+03</pdfrwt>
<pdfrwt beam="2">  1       -2 0.15278293E-01 0.14047587E+03</pdfrwt>
<totfact> 0.58791513E+03</totfact>
</mgrwt>
</event>
<event>
 7    1  0.7800420E-006  0.1291617E+03  0.7546771E-02  0.1241402E+00
         -1   -1    0    0    0  501 -0.00000000000E+00  0.00000000000E+00  0.44838387158E+02  0.44838387158E+02  0.00000000000E+00 0.  1.
          1   -1    0    0  501    0  0.00000000000E+00 -0.00000000000E+00 -0.82244154221E+03  0.82244154221E+03  0.00000000000E+00 0. -1.
         23    2    1    2    0    0 -0.13977174340E+02  0.29382025119E+02 -0.75392947247E+03  0.76491331911E+03  0.12499628592E+03 0.  0.
          5    1    3    3  502    0 -0.12339010623E+02 -0.39040490798E+02 -0.50575251331E+03  0.50742891702E+03  0.47000000000E+01 0.  1.
         -5    1    3    3    0  502 -0.16381637178E+01  0.68422515917E+02 -0.24817695916E+03  0.25748440209E+03  0.47000000000E+01 0.  1.
        -11    1    1    2    0    0 -0.40127429229E+02 -0.19229178865E+02 -0.12125346686E+02  0.46119366090E+02  0.00000000000E+00 0.  1.
         11    1    1    2    0    0  0.54104603569E+02 -0.10152846254E+02 -0.11548335897E+02  0.56247244167E+02  0.00000000000E+00 0. -1.
<mgrwt>
<rscale>  0 0.12103358E+03</rscale>
<asrwt>0</asrwt>
<pdfrwt beam="2">  1        1 0.12652945E+00 0.12916167E+03</pdfrwt>
<pdfrwt beam="1">  1       -1 0.68982141E-02 0.12916167E+03</pdfrwt>
<totfact> 0.23474953E+03</totfact>
</mgrwt>
</event>
<event>
 7    1  0.7800420E-006  0.1218021E+03  0.7546771E-02  0.1253987E+00
          2   -1    0    0  501    0  0.00000000000E+00  0.00000000000E+00  0.12811008303E+04  0.12811008303E+04  0.00000000000E+00 0. -1.
         -2   -1    0    0    0  501 -0.00000000000E+00 -0.00000000000E+00 -0.11019640495E+02  0.11019640495E+02  0.00000000000E+00 0.  1.
         23    2    1    2    0    0 -0.44871947069E+01 -0.10846900933E+01  0.98444611377E+03  0.99195256804E+03  0.12171456306E+03 0.  0.
          5    1    3    3  502    0  0.27056893027E+02  0.35672889013E+02  0.79771476995E+03  0.79898408912E+03  0.47000000000E+01 0. -1.
         -5    1    3    3    0  502 -0.31544087734E+02 -0.36757579106E+02  0.18673134381E+03  0.19296847892E+03  0.47000000000E+01 0.  1.
        -11    1    1    2    0    0  0.42552554865E+02 -0.97570849455E+01  0.83813261553E+02  0.94501764239E+02  0.00000000000E+00 0.  1.
         11    1    1    2    0    0 -0.38065360158E+02  0.10841775039E+02  0.20182181445E+03  0.20566613848E+03  0.00000000000E+00 0. -1.
<mgrwt>
<rscale>  0 0.11363281E+03</rscale>
<asrwt>0</asrwt>
<pdfrwt beam="1">  1        2 0.19709232E+00 0.12180208E+03</pdfrwt>
<pdfrwt beam="2">  1       -2 0.16953303E-02 0.12180208E+03</pdfrwt>
<totfact> 0.16944464E+04</totfact>
</mgrwt>
</event>
<event>
 7    1  0.7800420E-006  0.2366776E+03  0.7546771E-02  0.1124795E+00
         -2   -1    0    0    0  501 -0.00000000000E+00  0.00000000000E+00  0.44712432186E+02  0.44712432186E+02  0.00000000000E+00 0.  1.
          2   -1    0    0  501    0  0.00000000000E+00 -0.00000000000E+00 -0.11732074632E+04  0.11732074632E+04  0.00000000000E+00 0. -1.
         23    2    1    2    0    0 -0.10569568256E+03  0.17093771649E+03 -0.61071987371E+03  0.65497712544E+03  0.12499996193E+03 0.  0.
          5    1    3    3  502    0 -0.10363434869E+03  0.72246108402E+02 -0.23936779079E+03  0.27070021735E+03  0.47000000000E+01 0.  1.
         -5    1    3    3    0  502 -0.20613338743E+01  0.98691608092E+02 -0.37135208292E+03  0.38427690809E+03  0.47000000000E+01 0.  1.
        -11    1    1    2    0    0  0.46614360352E+02 -0.14831027865E+03 -0.32976683264E+03  0.36457509686E+03  0.00000000000E+00 0.  1.
         11    1    1    2    0    0  0.59081322210E+02 -0.22627437846E+02 -0.18800832464E+03  0.19836767305E+03  0.00000000000E+00 0. -1.
<mgrwt>
<rscale>  0 0.23264047E+03</rscale>
<asrwt>0</asrwt>
<pdfrwt beam="2">  1        2 0.18049342E+00 0.23667757E+03</pdfrwt>
<pdfrwt beam="1">  1       -2 0.68788370E-02 0.23667757E+03</pdfrwt>
<totfact> 0.24751970E+03</totfact>
</mgrwt>
</event>
<event>
 7    1  0.7800420E-006  0.1317085E+03  0.7546771E-02  0.1238014E+00
         -3   -1    0    0    0  501 -0.00000000000E+00  0.00000000000E+00  0.53737542888E+02  0.53737542888E+02  0.00000000000E+00 0.  1.
          3   -1    0    0  501    0  0.00000000000E+00 -0.00000000000E+00 -0.25216461698E+03  0.25216461698E+03  0.00000000000E+00 0. -1.
         23    2    1    2    0    0 -0.23218547010E+02 -0.34388002701E+02 -0.12224416532E+03  0.17969628726E+03  0.12500193616E+03 0.  0.
          5    1    3    3  502    0 -0.16746427833E+01 -0.58972011864E+02 -0.67417262526E+01  0.59565455463E+02  0.47000000000E+01 0.  1.
         -5    1    3    3    0  502 -0.21543904227E+02  0.24584009162E+02 -0.11550243907E+03  0.12013083179E+03  0.47000000000E+01 0.  1.
        -11    1    1    2    0    0  0.65121960651E+01  0.21541600226E+02  0.18545609126E+02  0.29161427532E+02  0.00000000000E+00 0.  1.
         11    1    1    2    0    0  0.16706350945E+02  0.12846402476E+02 -0.94728517889E+02  0.97044445075E+02  0.00000000000E+00 0. -1.
<mgrwt>
<rscale>  0 0.12313450E+03</rscale>
<asrwt>0</asrwt>
<pdfrwt beam="2">  1        3 0.38794556E-01 0.13170846E+03</pdfrwt>
<pdfrwt beam="1">  1       -3 0.82673144E-02 0.13170846E+03</pdfrwt>
<totfact> 0.15234883E+03</totfact>
</mgrwt>
</event>
<event>
 7    1  0.7800420E-006  0.1401600E+03  0.7546771E-02  0.1224314E+00
          2   -1    0    0  501    0  0.00000000000E+00  0.00000000000E+00  0.14170643240E+03  0.14170643240E+03  0.00000000000E+00 0. -1.
         -2   -1    0    0    0  501 -0.00000000000E+00 -0.00000000000E+00 -0.11191686527E+03  0.11191686527E+03  0.00000000000E+00 0.  1.
         23    2    1    2    0    0 -0.26961553274E+02  0.57385225965E+02  0.27710354712E+02  0.14287302120E+03  0.12499938766E+03 0.  0.
          5    1    3    3  502    0 -0.69310087008E+02  0.49884996615E+01  0.28704208184E+02  0.75331234275E+02  0.47000000000E+01 0. -1.
         -5    1    3    3    0  502  0.42348533734E+02  0.52396726303E+02 -0.99385347255E+00  0.67541786928E+02  0.47000000000E+01 0. -1.
        -11    1    1    2    0    0 -0.90342115444E+01 -0.71317214555E+02 -0.21651546232E+01  0.71919746695E+02  0.00000000000E+00 0. -1.
         11    1    1    2    0    0  0.35995764818E+02  0.13931988591E+02  0.42443670394E+01  0.38830529773E+02  0.00000000000E+00 0.  1.
<mgrwt>
<rscale>  0 0.13214028E+03</rscale>
<asrwt>0</asrwt>
<pdfrwt beam="1">  1        2 0.21800990E-01 0.14016004E+03</pdfrwt>
<pdfrwt beam="2">  1       -2 0.17217979E-01 0.14016004E+03</pdfrwt>
<totfact> 0.64950868E+03</totfact>
</mgrwt>
</event>
<event>
 7    1  0.7800420E-006  0.1697993E+03  0.7546771E-02  0.1184860E+00
         -2   -1    0    0    0  501 -0.00000000000E+00  0.00000000000E+00  0.43152150934E+02  0.43152150934E+02  0.00000000000E+00 0.  1.
          2   -1    0    0  501    0  0.00000000000E+00 -0.00000000000E+00 -0.68018463095E+03  0.68018463095E+03  0.00000000000E+00 0. -1.
         23    2    1    2    0    0 -0.10083062337E+03  0.55136556402E+02 -0.47962030410E+03  0.50879016450E+03  0.12499976368E+03 0.  0.
          5    1    3    3  502    0 -0.66320767929E+02 -0.30986002674E+02 -0.16139478442E+03  0.17728210022E+03  0.47000000000E+01 0.  1.
         -5    1    3    3    0  502 -0.34509855445E+02  0.86122559076E+02 -0.31822551968E+03  0.33150806428E+03  0.47000000000E+01 0.  1.
        -11    1    1    2    0    0  0.20308980402E+02 -0.13071203061E+02 -0.10892360358E+03  0.11156909273E+03  0.00000000000E+00 0. -1.
         11    1    1    2    0    0  0.80521642972E+02 -0.42065353341E+02 -0.48488572336E+02  0.10297752466E+03  0.00000000000E+00 0.  1.
<mgrwt>
<rscale>  0 0.16344664E+03</rscale>
<asrwt>0</asrwt>
<pdfrwt beam="2">  1        2 0.10464378E+00 0.16979928E+03</pdfrwt>
<pdfrwt beam="1">  1       -2 0.66387930E-02 0.16979928E+03</pdfrwt>
<totfact> 0.53746176E+03</totfact>
</mgrwt>
</event>
<event>
 7    1  0.7800420E-006  0.2178104E+03  0.7546771E-02  0.1139064E+00
         -1   -1    0    0    0  501 -0.00000000000E+00  0.00000000000E+00  0.32321833960E+02  0.32321833960E+02  0.00000000000E+00 0.  1.
          1   -1    0    0  501    0  0.00000000000E+00 -0.00000000000E+00 -0.13527994252E+04  0.13527994252E+04  0.00000000000E+00 0. -1.
         23    2    1    2    0    0  0.17773347638E+03  0.15080839807E+02 -0.65504347585E+03  0.69030667778E+03  0.12499893514E+03 0.  0.
          5    1    3    3  502    0  0.27938320761E+02  0.22408448441E+02 -0.28399978609E+02  0.45949288498E+02  0.47000000000E+01 0. -1.
         -5    1    3    3    0  502  0.14979515562E+03 -0.73276086348E+01 -0.62664349724E+03  0.64435738928E+03  0.47000000000E+01 0. -1.
        -11    1    1    2    0    0 -0.14006621120E+03 -0.39971073758E+02 -0.58197989613E+03  0.59993068746E+03  0.00000000000E+00 0. -1.
         11    1    1    2    0    0 -0.37667265178E+02  0.24890233951E+02 -0.83454219268E+02  0.94883893922E+02  0.00000000000E+00 0.  1.
<mgrwt>
<rscale>  0 0.21319083E+03</rscale>
<asrwt>0</asrwt>
<pdfrwt beam="2">  1        1 0.20812297E+00 0.21781036E+03</pdfrwt>
<pdfrwt beam="1">  1       -1 0.49725903E-02 0.21781036E+03</pdfrwt>
<totfact> 0.15957298E+03</totfact>
</mgrwt>
</event>
<event>
 7    1  0.7800420E-006  0.1736518E+03  0.7546771E-02  0.1180321E+00
          1   -1    0    0  501    0  0.00000000000E+00  0.00000000000E+00  0.71899763010E+03  0.71899763010E+03  0.00000000000E+00 0. -1.
         -1   -1    0    0    0  501 -0.00000000000E+00 -0.00000000000E+00 -0.45296695905E+02  0.45296695905E+02  0.00000000000E+00 0.  1.
         23    2    1    2    0    0  0.39969358582E+02  0.11371719471E+03  0.52292500067E+03  0.55100408819E+03  0.12500319546E+03 0.  0.
          5    1    3    3  502    0 -0.20796590002E+02  0.97094172462E+02  0.40720455203E+03  0.41916275321E+03  0.47000000000E+01 0.  1.
         -5    1    3    3    0  502  0.60765948584E+02  0.16623022248E+02  0.11572044864E+03  0.13184133498E+03  0.47000000000E+01 0.  1.
        -11    1    1    2    0    0 -0.38920811381E+02 -0.19652635010E+01  0.42995298707E+02  0.58028333856E+02  0.00000000000E+00 0.  1.
         11    1    1    2    0    0 -0.10485472017E+01 -0.11175193121E+03  0.10778063482E+03  0.15526190396E+03  0.00000000000E+00 0. -1.
<mgrwt>
<rscale>  0 0.16765034E+03</rscale>
<asrwt>0</asrwt>
<pdfrwt beam="1">  1        1 0.11061501E+00 0.17365180E+03</pdfrwt>
<pdfrwt beam="2">  1       -1 0.69687230E-02 0.17365180E+03</pdfrwt>
<totfact> 0.28457266E+03</totfact>
</mgrwt>
</event>
<event>
 7    1  0.7800420E-006  0.1377370E+03  0.7546771E-02  0.1228050E+00
         -2   -1    0    0    0  501 -0.00000000000E+00  0.00000000000E+00  0.40111126540E+02  0.40111126540E+02  0.00000000000E+00 0.  1.
          2   -1    0    0  501    0  0.00000000000E+00 -0.00000000000E+00 -0.37669579961E+03  0.37669579961E+03  0.00000000000E+00 0. -1.
         23    2    1    2    0    0 -0.47578756095E+02  0.32914458167E+02 -0.19572884957E+03  0.23933504363E+03  0.12499752385E+03 0.  0.
          5    1    3    3  502    0  0.27315055350E+02  0.20425698930E+02 -0.60336501904E+01  0.34954489843E+02  0.47000000000E+01 0.  1.
         -5    1    3    3    0  502 -0.74893811446E+02  0.12488759237E+02 -0.18969519938E+03  0.20438055379E+03  0.47000000000E+01 0.  1.
        -11    1    1    2    0    0  0.58171299567E+02 -0.65593035221E+01 -0.13677498185E+03  0.14877607407E+03  0.00000000000E+00 0. -1.
         11    1    1    2    0    0 -0.10592543472E+02 -0.26355154645E+02 -0.40808416470E+01  0.28695808442E+02  0.00000000000E+00 0.  1.
<mgrwt>
<rscale>  0 0.12960036E+03</rscale>
<asrwt>0</asrwt>
<pdfrwt beam="2">  1        2 0.57953201E-01 0.13773700E+03</pdfrwt>
<pdfrwt beam="1">  1       -2 0.61709425E-02 0.13773700E+03</pdfrwt>
<totfact> 0.11448344E+04</totfact>
</mgrwt>
</event>
<event>
 7    1  0.7800420E-006  0.1151882E+03  0.7546771E-02  0.1259774E+00
         -1   -1    0    0    0  501 -0.00000000000E+00  0.00000000000E+00  0.17863763224E+02  0.17863763224E+02  0.00000000000E+00 0.  1.
          1   -1    0    0  501    0  0.00000000000E+00 -0.00000000000E+00 -0.77654603786E+03  0.77654603786E+03  0.00000000000E+00 0. -1.
         23    2    1    2    0    0 -0.94508795117E+01 -0.31542411788E+02 -0.57624700186E+03  0.58764693992E+03  0.11038150196E+03 0.  0.
          5    1    3    3  502    0 -0.52091798241E+01 -0.65864940842E+02 -0.49226523602E+03  0.49670159913E+03  0.47000000000E+01 0. -1.
         -5    1    3    3    0  502 -0.42416996876E+01  0.34322529053E+02 -0.83981765848E+02  0.90945340792E+02  0.47000000000E+01 0.  1.
        -11    1    1    2    0    0  0.46534932933E+02  0.33753373955E+01 -0.61677198315E+02  0.77336729162E+02  0.00000000000E+00 0.  1.
         11    1    1    2    0    0 -0.37084053421E+02  0.28167074393E+02 -0.12075807446E+03  0.12942613200E+03  0.00000000000E+00 0. -1.
<mgrwt>
<rscale>  0 0.11043067E+03</rscale>
<asrwt>0</asrwt>
<pdfrwt beam="2">  1        1 0.11946863E+00 0.11518819E+03</pdfrwt>
<pdfrwt beam="1">  1       -1 0.27482710E-02 0.11518819E+03</pdfrwt>
<totfact> 0.98390607E+03</totfact>
</mgrwt>
</event>
<event>
 7    1  0.7800420E-006  0.2119832E+03  0.7546771E-02  0.1143378E+00
          1   -1    0    0  501    0  0.00000000000E+00  0.00000000000E+00  0.12501899219E+04  0.12501899219E+04  0.00000000000E+00 0. -1.
         -1   -1    0    0    0  501 -0.00000000000E+00 -0.00000000000E+00 -0.40163323076E+02  0.40163323076E+02  0.00000000000E+00 0.  1.
         23    2    1    2    0    0  0.66269753442E+02 -0.15785951635E+03  0.89377703683E+03  0.91857185626E+03  0.12500222568E+03 0.  0.
          5    1    3    3  502    0  0.23474390275E+02 -0.15427186832E+02  0.44210719152E+03  0.44302359292E+03  0.47000000000E+01 0.  1.
         -5    1    3    3    0  502  0.42795363167E+02 -0.14243232952E+03  0.45166984531E+03  0.47554826334E+03  0.47000000000E+01 0.  1.
        -11    1    1    2    0    0 -0.32625804859E+02  0.15849114910E+03  0.26263577669E+03  0.30848247711E+03  0.00000000000E+00 0. -1.
         11    1    1    2    0    0 -0.33643948583E+02 -0.63163275142E+00  0.53613785322E+02  0.63298911624E+02  0.00000000000E+00 0.  1.
<mgrwt>
<rscale>  0 0.20772787E+03</rscale>
<asrwt>0</asrwt>
<pdfrwt beam="1">  1        1 0.19233688E+00 0.21198317E+03</pdfrwt>
<pdfrwt beam="2">  1       -1 0.61789737E-02 0.21198317E+03</pdfrwt>
<totfact> 0.13522595E+03</totfact>
</mgrwt>
</event>
<event>
 7    1  0.7800420E-006  0.1276839E+03  0.7546771E-02  0.1245179E+00
         -2   -1    0    0    0  501 -0.00000000000E+00  0.00000000000E+00  0.19855560306E+02  0.19855560306E+02  0.00000000000E+00 0.  1.
          2   -1    0    0  501    0  0.00000000000E+00 -0.00000000000E+00 -0.68711109393E+03  0.68711109393E+03  0.00000000000E+00 0. -1.
         23    2    1    2    0    0  0.11842769166E+02  0.23161332421E+02 -0.48085440463E+03  0.49751797454E+03  0.12500591200E+03 0.  0.
          5    1    3    3  502    0 -0.49263336429E+02 -0.18057035609E+02 -0.16809130227E+03  0.17615251559E+03  0.47000000000E+01 0. -1.
         -5    1    3    3    0  502  0.61106105595E+02  0.41218368030E+02 -0.31276310236E+03  0.32136545894E+03  0.47000000000E+01 0. -1.
        -11    1    1    2    0    0 -0.28518530024E+02 -0.27346047194E+02 -0.18806955378E+03  0.19217510221E+03  0.00000000000E+00 0. -1.
         11    1    1    2    0    0  0.16675760858E+02  0.41847147728E+01  0.16684247849E+01  0.17273577486E+02  0.00000000000E+00 0.  1.
<mgrwt>
<rscale>  0 0.11874668E+03</rscale>
<asrwt>0</asrwt>
<pdfrwt beam="2">  1        2 0.10570938E+00 0.12768389E+03</pdfrwt>
<pdfrwt beam="1">  1       -2 0.30547020E-02 0.12768389E+03</pdfrwt>
<totfact> 0.16701496E+04</totfact>
</mgrwt>
</event>
<event>
 7    1  0.7800420E-006  0.2297633E+03  0.7546771E-02  0.1129933E+00
          2   -1    0    0  501    0  0.00000000000E+00  0.00000000000E+00  0.20518327820E+04  0.20518327820E+04  0.00000000000E+00 0.  1.
         -2   -1    0    0    0  501 -0.00000000000E+00 -0.00000000000E+00 -0.27442726107E+02  0.27442726107E+02  0.00000000000E+00 0. -1.
         23    2    1    2    0    0  0.93354839339E+01 -0.19255942341E+03  0.14216152035E+04  0.14400628326E+04  0.12499956851E+03 0.  0.
          5    1    3    3  502    0 -0.18494688503E+02 -0.18722622247E+02  0.55975862144E+03  0.56039664021E+03  0.47000000000E+01 0. -1.
         -5    1    3    3    0  502  0.27830172437E+02 -0.17383680117E+03  0.86185658205E+03  0.87966619235E+03  0.47000000000E+01 0. -1.
        -11    1    1    2    0    0  0.12828122782E+02  0.82244096051E+02  0.38712739832E+03  0.39597509341E+03  0.00000000000E+00 0.  1.
         11    1    1    2    0    0 -0.22163606716E+02  0.11031532736E+03  0.21564745413E+03  0.24323758219E+03  0.00000000000E+00 0. -1.
<mgrwt>
<rscale>  0 0.22538199E+03</rscale>
<asrwt>0</asrwt>
<pdfrwt beam="1">  1        2 0.31566646E+00 0.22976330E+03</pdfrwt>
<pdfrwt beam="2">  1       -2 0.42219595E-02 0.22976330E+03</pdfrwt>
<totfact> 0.17721314E+03</totfact>
</mgrwt>
</event>
<event>
 7    1  0.7800420E-006  0.1272796E+03  0.7546771E-02  0.1245401E+00
          1   -1    0    0  501    0  0.00000000000E+00  0.00000000000E+00  0.63050376507E+02  0.63050376507E+02  0.00000000000E+00 0. -1.
         -1   -1    0    0    0  501 -0.00000000000E+00 -0.00000000000E+00 -0.20909939145E+03  0.20909939145E+03  0.00000000000E+00 0.  1.
         23    2    1    2    0    0 -0.17698182815E+02  0.16167651744E+02 -0.51181575659E+02  0.13718476921E+03  0.12500195430E+03 0.  0.
          5    1    3    3  502    0 -0.14875468450E+01 -0.34561690620E+02 -0.71836217628E+02  0.79870241124E+02  0.47000000000E+01 0.  1.
         -5    1    3    3    0  502 -0.16210635970E+02  0.50729342364E+02  0.20654641969E+02  0.57314528089E+02  0.47000000000E+01 0.  1.
        -11    1    1    2    0    0  0.22000390925E+01 -0.38316149987E+02 -0.10030008080E+03  0.10739214929E+03  0.00000000000E+00 0.  1.
         11    1    1    2    0    0  0.15498143722E+02  0.22148498243E+02  0.54326415094E+01  0.27572849455E+02  0.00000000000E+00 0. -1.
<mgrwt>
<rscale>  0 0.11861384E+03</rscale>
<asrwt>0</asrwt>
<pdfrwt beam="1">  1        1 0.97000580E-02 0.12727964E+03</pdfrwt>
<pdfrwt beam="2">  1       -1 0.32169137E-01 0.12727964E+03</pdfrwt>
<totfact> 0.57339579E+03</totfact>
</mgrwt>
</event>
<event>
 7    1  0.7800420E-006  0.1662446E+03  0.7546771E-02  0.1186338E+00
          2   -1    0    0  501    0  0.00000000000E+00  0.00000000000E+00  0.15360063930E+03  0.15360063930E+03  0.00000000000E+00 0. -1.
         -2   -1    0    0    0  501 -0.00000000000E+00 -0.00000000000E+00 -0.16476178382E+03  0.16476178382E+03  0.00000000000E+00 0.  1.
         23    2    1    2    0    0  0.46518051242E+01 -0.10950334894E+03  0.10155101832E+02  0.16655446767E+03  0.12499856754E+03 0.  0.
          5    1    3    3  502    0 -0.23344169487E+02 -0.11628070294E+03  0.39571278803E+02  0.12511645867E+03  0.47000000000E+01 0.  1.
         -5    1    3    3    0  502  0.27995974611E+02  0.67773540015E+01 -0.29416176971E+02  0.41438008992E+02  0.47000000000E+01 0.  1.
        -11    1    1    2    0    0  0.79860960184E+01 -0.70465619633E+01 -0.32348722934E+02  0.34056888299E+02  0.00000000000E+00 0.  1.
         11    1    1    2    0    0 -0.12637901143E+02  0.11654991090E+03  0.11032476584E+02  0.11775106715E+03  0.00000000000E+00 0. -1.
<mgrwt>
<rscale>  0 0.16210755E+03</rscale>
<asrwt>0</asrwt>
<pdfrwt beam="1">  1        2 0.23630868E-01 0.16624459E+03</pdfrwt>
<pdfrwt beam="2">  1       -2 0.25347967E-01 0.16624459E+03</pdfrwt>
<totfact> 0.30972665E+03</totfact>
</mgrwt>
</event>
<event>
 7    1  0.7800420E-006  0.1703436E+03  0.7546771E-02  0.1184549E+00
         -1   -1    0    0    0  501 -0.00000000000E+00  0.00000000000E+00  0.25172333242E+03  0.25172333242E+03  0.00000000000E+00 0.  1.
          1   -1    0    0  501    0  0.00000000000E+00 -0.00000000000E+00 -0.10055510926E+03  0.10055510926E+03  0.00000000000E+00 0. -1.
         23    2    1    2    0    0 -0.63522448518E+01 -0.11316566969E+03  0.59665926120E+02  0.18049092073E+03  0.12716182570E+03 0.  0.
          5    1    3    3  502    0 -0.59711173534E+02 -0.93590977951E+02  0.25482019498E+02  0.11400052068E+03  0.47000000000E+01 0. -1.
         -5    1    3    3    0  502  0.53358928682E+02 -0.19574691742E+02  0.34183906622E+02  0.66490400050E+02  0.47000000000E+01 0.  1.
        -11    1    1    2    0    0  0.48243116720E+02  0.49665234958E+02  0.46408476234E+02  0.83353347507E+02  0.00000000000E+00 0.  1.
         11    1    1    2    0    0 -0.41890871869E+02  0.63500434735E+02  0.45093820803E+02  0.88434173440E+02  0.00000000000E+00 0. -1.
<mgrwt>
<rscale>  0 0.16372995E+03</rscale>
<asrwt>0</asrwt>
<pdfrwt beam="2">  1        1 0.15470017E-01 0.17034362E+03</pdfrwt>
<pdfrwt beam="1">  1       -1 0.38726666E-01 0.17034362E+03</pdfrwt>
<totfact> 0.22931581E+03</totfact>
</mgrwt>
</event>
<event>
 7    1  0.7800420E-006  0.1661173E+03  0.7546771E-02  0.1189126E+00
         -2   -1    0    0    0  501 -0.00000000000E+00  0.00000000000E+00  0.35268421906E+03  0.35268421906E+03  0.00000000000E+00 0. -1.
          2   -1    0    0  501    0  0.00000000000E+00 -0.00000000000E+00 -0.82239961158E+02  0.82239961158E+02  0.00000000000E+00 0.  1.
         23    2    1    2    0    0  0.10838569308E+03 -0.15021904173E+02  0.51030052823E+02  0.17377870921E+03  0.12498742902E+03 0.  0.
          5    1    3    3  502    0  0.51853711298E+02 -0.69518138237E+02  0.19396202609E+02  0.88993716604E+02  0.47000000000E+01 0.  1.
         -5    1    3    3    0  502  0.56531981784E+02  0.54496234064E+02  0.31633850214E+02  0.84784992605E+02  0.47000000000E+01 0.  1.
        -11    1    1    2    0    0 -0.68010845726E+01  0.17250501291E+02  0.11107988489E+03  0.11261694088E+03  0.00000000000E+00 0. -1.
         11    1    1    2    0    0 -0.10158460851E+03 -0.22285971185E+01  0.10833432019E+03  0.14852853013E+03  0.00000000000E+00 0.  1.
<mgrwt>
<rscale>  0 0.15962002E+03</rscale>
<asrwt>0</asrwt>
<pdfrwt beam="2">  1        2 0.12652302E-01 0.16611735E+03</pdfrwt>
<pdfrwt beam="1">  1       -2 0.54259110E-01 0.16611735E+03</pdfrwt>
<totfact> 0.15282193E+03</totfact>
</mgrwt>
</event>
<event>
 7    1  0.7800420E-006  0.1733212E+03  0.7546771E-02  0.1180256E+00
          1   -1    0    0  501    0  0.00000000000E+00  0.00000000000E+00  0.16135834937E+04  0.16135834937E+04  0.00000000000E+00 0. -1.
         -1   -1    0    0    0  501 -0.00000000000E+00 -0.00000000000E+00 -0.18855281397E+02  0.18855281397E+02  0.00000000000E+00 0.  1.
         23    2    1    2    0    0  0.12005983753E+03 -0.13097427089E+00  0.11373760609E+04  0.11505062082E+04  0.12500339783E+03 0.  0.
          5    1    3    3  502    0  0.12445831583E+03  0.31190140142E+02  0.10427241437E+04  0.10505990801E+04  0.47000000000E+01 0.  1.
         -5    1    3    3    0  502 -0.43984783027E+01 -0.31321114413E+02  0.94651917197E+02  0.99907128116E+02  0.47000000000E+01 0.  1.
        -11    1    1    2    0    0 -0.68014562631E+02 -0.94683595341E+01  0.39136720848E+03  0.39734609906E+03  0.00000000000E+00 0. -1.
         11    1    1    2    0    0 -0.52045274895E+02  0.95993338050E+01  0.65984942922E+02  0.84586467835E+02  0.00000000000E+00 0.  1.
<mgrwt>
<rscale>  0 0.16771119E+03</rscale>
<asrwt>0</asrwt>
<pdfrwt beam="1">  1        1 0.24824351E+00 0.17332118E+03</pdfrwt>
<pdfrwt beam="2">  1       -1 0.29008138E-02 0.17332118E+03</pdfrwt>
<totfact> 0.23844387E+03</totfact>
</mgrwt>
</event>
<event>
 7    1  0.7800420E-006  0.1756932E+03  0.7546771E-02  0.1177508E+00
          1   -1    0    0  501    0  0.00000000000E+00  0.00000000000E+00  0.13352383680E+03  0.13352383680E+03  0.00000000000E+00 0. -1.
         -1   -1    0    0    0  501 -0.00000000000E+00 -0.00000000000E+00 -0.21013768835E+03  0.21013768835E+03  0.00000000000E+00 0.  1.
         23    2    1    2    0    0 -0.10049251630E+03 -0.71725680270E+02 -0.13778875481E+02  0.17623264893E+03  0.12499908038E+03 0.  0.
          5    1    3    3  502    0  0.10382559175E+02  0.23738910876E+02 -0.14049349020E+02  0.29846400662E+02  0.47000000000E+01 0.  1.
         -5    1    3    3    0  502 -0.11087507548E+03 -0.95464591146E+02  0.27047353892E+00  0.14638624826E+03  0.47000000000E+01 0.  1.
        -11    1    1    2    0    0  0.10322010211E+03  0.88700061408E+02 -0.63592297139E+02  0.15022007399E+03  0.00000000000E+00 0. -1.
         11    1    1    2    0    0 -0.27275858108E+01 -0.16974381139E+02  0.75732106830E+00  0.17208802242E+02  0.00000000000E+00 0.  1.
<mgrwt>
<rscale>  0 0.17032668E+03</rscale>
<asrwt>0</asrwt>
<pdfrwt beam="1">  1        1 0.20542129E-01 0.17569317E+03</pdfrwt>
<pdfrwt beam="2">  1       -1 0.32328875E-01 0.17569317E+03</pdfrwt>
<totfact> 0.21765821E+03</totfact>
</mgrwt>
</event>
<event>
 7    1  0.7800420E-006  0.1253443E+03  0.7546771E-02  0.1250308E+00
          3   -1    0    0  501    0  0.00000000000E+00  0.00000000000E+00  0.65561671630E+02  0.65561671630E+02  0.00000000000E+00 0. -1.
         -3   -1    0    0    0  501 -0.00000000000E+00 -0.00000000000E+00 -0.18052255448E+03  0.18052255448E+03  0.00000000000E+00 0.  1.
         23    2    1    2    0    0  0.62064781292E+01  0.68536823803E+01 -0.78897662346E+02  0.14810818759E+03  0.12500280307E+03 0.  0.
          5    1    3    3  502    0  0.13498307374E+02 -0.56465877629E+02 -0.54285988253E+02  0.79621970328E+02  0.47000000000E+01 0.  1.
         -5    1    3    3    0  502 -0.72918292446E+01  0.63319560009E+02 -0.24611674093E+02  0.68486217264E+02  0.47000000000E+01 0.  1.
        -11    1    1    2    0    0  0.26063456725E+02 -0.13788910597E+02 -0.53170640544E+02  0.60799299731E+02  0.00000000000E+00 0.  1.
         11    1    1    2    0    0 -0.32269934855E+02  0.69352282164E+01  0.17107420043E+02  0.37176738782E+02  0.00000000000E+00 0. -1.
<mgrwt>
<rscale>  0 0.11573242E+03</rscale>
<asrwt>0</asrwt>
<pdfrwt beam="1">  1        3 0.10086411E-01 0.12534430E+03</pdfrwt>
<pdfrwt beam="2">  1       -3 0.27772700E-01 0.12534430E+03</pdfrwt>
<totfact> 0.20360185E+03</totfact>
</mgrwt>
</event>
<event>
 7    1  0.7800420E-006  0.1359093E+03  0.7546771E-02  0.1232129E+00
         -1   -1    0    0    0  501 -0.00000000000E+00  0.00000000000E+00  0.11463845020E+03  0.11463845020E+03  0.00000000000E+00 0.  1.
          1   -1    0    0  501    0  0.00000000000E+00 -0.00000000000E+00 -0.26698322084E+03  0.26698322084E+03  0.00000000000E+00 0. -1.
         23    2    1    2    0    0  0.59850475231E+01  0.52970924098E+02 -0.21967263180E+03  0.25831645766E+03  0.12501834882E+03 0.  0.
          5    1    3    3  502    0  0.48800578606E+02 -0.18174948537E+02 -0.74690902586E+02  0.91173714171E+02  0.47000000000E+01 0. -1.
         -5    1    3    3    0  502 -0.42815531083E+02  0.71145872635E+02 -0.14498172921E+03  0.16714274348E+03  0.47000000000E+01 0. -1.
        -11    1    1    2    0    0  0.38803376383E+02 -0.33533631858E+02  0.49643121652E+02  0.71376789026E+02  0.00000000000E+00 0.  1.
         11    1    1    2    0    0 -0.44788423906E+02 -0.19437292240E+02  0.17684739506E+02  0.51928424365E+02  0.00000000000E+00 0. -1.
<mgrwt>
<rscale>  0 0.12690044E+03</rscale>
<asrwt>0</asrwt>
<pdfrwt beam="2">  1        1 0.41074342E-01 0.13590926E+03</pdfrwt>
<pdfrwt beam="1">  1       -1 0.17636685E-01 0.13590926E+03</pdfrwt>
<totfact> 0.24476900E+03</totfact>
</mgrwt>
</event>
<event>
 7    1  0.7800420E-006  0.2103431E+03  0.7546771E-02  0.1145547E+00
         -2   -1    0    0    0  501 -0.00000000000E+00  0.00000000000E+00  0.14752159419E+02  0.14752159419E+02  0.00000000000E+00 0. -1.
          2   -1    0    0  501    0  0.00000000000E+00 -0.00000000000E+00 -0.27978424088E+04  0.27978424088E+04  0.00000000000E+00 0.  1.
         23    2    1    2    0    0 -0.38750071085E+02 -0.16467453728E+03 -0.17012317751E+04  0.17141860438E+04  0.12499987481E+03 0.  0.
          5    1    3    3  502    0  0.45625046419E+02 -0.49687137924E+02 -0.53536660364E+03  0.53962018757E+03  0.47000000000E+01 0.  1.
         -5    1    3    3    0  502 -0.84375117504E+02 -0.11498739935E+03 -0.11658651715E+04  0.11745658562E+04  0.47000000000E+01 0.  1.
        -11    1    1    2    0    0  0.60400997361E+02  0.68306480686E+02 -0.51536163271E+03  0.52336571177E+03  0.00000000000E+00 0.  1.
         11    1    1    2    0    0 -0.21650926276E+02  0.96368056593E+02 -0.56649684158E+03  0.57504281271E+03  0.00000000000E+00 0. -1.
<mgrwt>
<rscale>  0 0.20505006E+03</rscale>
<asrwt>0</asrwt>
<pdfrwt beam="2">  1        2 0.43043685E+00 0.21034315E+03</pdfrwt>
<pdfrwt beam="1">  1       -2 0.22695653E-02 0.21034315E+03</pdfrwt>
<totfact> 0.17666045E+03</totfact>
</mgrwt>
</event>
<event>
 7    1  0.7800420E-006  0.1276780E+03  0.7546771E-02  0.1245657E+00
         -2   -1    0    0    0  501 -0.00000000000E+00  0.00000000000E+00  0.20754324678E+02  0.20754324678E+02  0.00000000000E+00 0.  1.
          2   -1    0    0  501    0  0.00000000000E+00 -0.00000000000E+00 -0.65758442493E+03  0.65758442493E+03  0.00000000000E+00 0. -1.
         23    2    1    2    0    0  0.24811100597E+02 -0.77927091490E+01 -0.46467988338E+03  0.48190151363E+03  0.12500143115E+03 0.  0.
          5    1    3    3  502    0 -0.34812525398E+02  0.17118275749E+02 -0.33153422043E+03  0.33382926266E+03  0.47000000000E+01 0.  1.
         -5    1    3    3    0  502  0.59623625996E+02 -0.24910984898E+02 -0.13314566295E+03  0.14807225097E+03  0.47000000000E+01 0.  1.
        -11    1    1    2    0    0 -0.19848772482E+02 -0.35492747626E+02 -0.39017647926E+02  0.56356772023E+02  0.00000000000E+00 0. -1.
         11    1    1    2    0    0 -0.49623281149E+01  0.43285456775E+02 -0.13313256894E+03  0.14008046395E+03  0.00000000000E+00 0.  1.
<mgrwt>
<rscale>  0 0.11846128E+03</rscale>
<asrwt>0</asrwt>
<pdfrwt beam="2">  1        2 0.10116682E+00 0.12767801E+03</pdfrwt>
<pdfrwt beam="1">  1       -2 0.31929734E-02 0.12767801E+03</pdfrwt>
<totfact> 0.16474588E+04</totfact>
</mgrwt>
</event>
<event>
 7    1  0.7800420E-006  0.2036287E+03  0.7546771E-02  0.1150519E+00
         -1   -1    0    0    0  501 -0.00000000000E+00  0.00000000000E+00  0.82372578328E+02  0.82372578328E+02  0.00000000000E+00 0.  1.
          1   -1    0    0  501    0  0.00000000000E+00 -0.00000000000E+00 -0.48854665728E+03  0.48854665728E+03  0.00000000000E+00 0. -1.
         23    2    1    2    0    0  0.15835908123E+03 -0.27624120943E+02 -0.27968693944E+03  0.34596160847E+03  0.12499583903E+03 0.  0.
          5    1    3    3  502    0  0.92798470415E+01  0.65498257305E+01 -0.13438769430E+03  0.13494872418E+03  0.47000000000E+01 0.  1.
         -5    1    3    3    0  502  0.14907923419E+03 -0.34173946673E+02 -0.14529924514E+03  0.21101288429E+03  0.47000000000E+01 0.  1.
        -11    1    1    2    0    0 -0.59947045592E+01 -0.16748801414E+02  0.54239091553E+01  0.18597785408E+02  0.00000000000E+00 0.  1.
         11    1    1    2    0    0 -0.15236437668E+03  0.44372922357E+02 -0.13191104867E+03  0.20635984173E+03  0.00000000000E+00 0. -1.
<mgrwt>
<rscale>  0 0.19907863E+03</rscale>
<asrwt>0</asrwt>
<pdfrwt beam="2">  1        1 0.75161024E-01 0.20362871E+03</pdfrwt>
<pdfrwt beam="1">  1       -1 0.12672704E-01 0.20362871E+03</pdfrwt>
<totfact> 0.19435257E+03</totfact>
</mgrwt>
</event>
<event>
 7    1  0.7800420E-006  0.2257296E+03  0.7546771E-02  0.1132324E+00
          1   -1    0    0  501    0  0.00000000000E+00  0.00000000000E+00  0.10272673056E+03  0.10272673056E+03  0.00000000000E+00 0. -1.
         -1   -1    0    0    0  501 -0.00000000000E+00 -0.00000000000E+00 -0.52193563499E+03  0.52193563499E+03  0.00000000000E+00 0.  1.
         23    2    1    2    0    0 -0.18627912519E+03  0.25247888917E+02 -0.11290215441E+03  0.25239003292E+03  0.12496585082E+03 0.  0.
          5    1    3    3  502    0 -0.14671102205E+03  0.51687171693E+02 -0.12878803409E+03  0.20200033523E+03  0.47000000000E+01 0. -1.
         -5    1    3    3    0  502 -0.39568103142E+02 -0.26439282776E+02  0.15885879682E+02  0.50389697689E+02  0.47000000000E+01 0. -1.
        -11    1    1    2    0    0  0.15973227302E+03  0.19230106572E+01 -0.18136930251E+03  0.24168765154E+03  0.00000000000E+00 0. -1.
         11    1    1    2    0    0  0.26546852176E+02 -0.27170899574E+02 -0.12493744751E+03  0.13058468108E+03  0.00000000000E+00 0.  1.
<mgrwt>
<rscale>  0 0.22210383E+03</rscale>
<asrwt>0</asrwt>
<pdfrwt beam="1">  1        1 0.15804112E-01 0.22572956E+03</pdfrwt>
<pdfrwt beam="2">  1       -1 0.80297791E-01 0.22572956E+03</pdfrwt>
<totfact> 0.56367519E+02</totfact>
</mgrwt>
</event>
<event>
 7    1  0.7800420E-006  0.1868725E+03  0.7546771E-02  0.1166205E+00
         -4   -1    0    0    0  501 -0.00000000000E+00  0.00000000000E+00  0.30123676971E+03  0.30123676971E+03  0.00000000000E+00 0.  1.
          4   -1    0    0  501    0  0.00000000000E+00 -0.00000000000E+00 -0.10755298598E+03  0.10755298598E+03  0.00000000000E+00 0. -1.
         23    2    1    2    0    0 -0.38773196459E+02  0.13338333951E+03  0.13995829416E+03  0.23347302137E+03  0.12500740612E+03 0.  0.
          5    1    3    3  502    0  0.12177657303E+02  0.54641734619E+01 -0.18631833035E+02  0.23396318754E+02  0.47000000000E+01 0. -1.
         -5    1    3    3    0  502 -0.50950853762E+02  0.12791916605E+03  0.15859012719E+03  0.21007670262E+03  0.47000000000E+01 0. -1.
        -11    1    1    2    0    0  0.28659653460E+02 -0.11941901678E+03  0.42065949645E+01  0.12288194638E+03  0.00000000000E+00 0. -1.
         11    1    1    2    0    0  0.10113542999E+02 -0.13964322729E+02  0.49518894615E+02  0.52434787929E+02  0.00000000000E+00 0.  1.
<mgrwt>
<rscale>  0 0.18166082E+03</rscale>
<asrwt>0</asrwt>
<pdfrwt beam="2">  1        4 0.16546613E-01 0.18687249E+03</pdfrwt>
<pdfrwt beam="1">  1       -4 0.46344118E-01 0.18687249E+03</pdfrwt>
<totfact> 0.25254901E+02</totfact>
</mgrwt>
</event>
<event>
 7    1  0.7800420E-006  0.1366548E+03  0.7546771E-02  0.1229283E+00
          1   -1    0    0  501    0  0.00000000000E+00  0.00000000000E+00  0.18987184001E+03  0.18987184001E+03  0.00000000000E+00 0. -1.
         -1   -1    0    0    0  501 -0.00000000000E+00 -0.00000000000E+00 -0.80792892062E+02  0.80792892062E+02  0.00000000000E+00 0.  1.
         23    2    1    2    0    0 -0.25942935230E+02  0.48715057866E+02  0.82663498666E+02  0.15971155335E+03  0.12501333333E+03 0.  0.
          5    1    3    3  502    0  0.35773695368E+02 -0.53214526894E+01 -0.80184404660E+01  0.37342476170E+02  0.47000000000E+01 0.  1.
         -5    1    3    3    0  502 -0.61716630598E+02  0.54036510555E+02  0.90681939132E+02  0.12236907718E+03  0.47000000000E+01 0.  1.
        -11    1    1    2    0    0 -0.87570016478E+01  0.23867605782E+02  0.15472730981E+02  0.29761604252E+02  0.00000000000E+00 0. -1.
         11    1    1    2    0    0  0.34699936878E+02 -0.72582663648E+02  0.10942718305E+02  0.81191574473E+02  0.00000000000E+00 0.  1.
<mgrwt>
<rscale>  0 0.12877628E+03</rscale>
<asrwt>0</asrwt>
<pdfrwt beam="1">  1        1 0.29211052E-01 0.13665477E+03</pdfrwt>
<pdfrwt beam="2">  1       -1 0.12429676E-01 0.13665477E+03</pdfrwt>
<totfact> 0.64612266E+03</totfact>
</mgrwt>
</event>
<event>
 7    1  0.7800420E-006  0.1532869E+03  0.7546771E-02  0.1204216E+00
          2   -1    0    0  501    0  0.00000000000E+00  0.00000000000E+00  0.37834036432E+03  0.37834036432E+03  0.00000000000E+00 0. -1.
         -2   -1    0    0    0  501 -0.00000000000E+00 -0.00000000000E+00 -0.79874977043E+02  0.79874977043E+02  0.00000000000E+00 0.  1.
         23    2    1    2    0    0 -0.88029580400E+02 -0.11052991401E+02  0.29036052541E+03  0.32833839650E+03  0.12500196900E+03 0.  0.
          5    1    3    3  502    0 -0.84573584979E+01 -0.41005881919E+02  0.23545638987E+02  0.48264856573E+02  0.47000000000E+01 0. -1.
         -5    1    3    3    0  502 -0.79572221902E+02  0.29952890517E+02  0.26681488643E+03  0.28007353993E+03  0.47000000000E+01 0. -1.
        -11    1    1    2    0    0  0.25146603477E+02 -0.20907331771E+00 -0.41820401764E+02  0.48798989557E+02  0.00000000000E+00 0.  1.
         11    1    1    2    0    0  0.62882976923E+02  0.11262064719E+02  0.49925263629E+02  0.81077955307E+02  0.00000000000E+00 0. -1.
<mgrwt>
<rscale>  0 0.14699411E+03</rscale>
<asrwt>0</asrwt>
<pdfrwt beam="1">  1        2 0.58206209E-01 0.15328688E+03</pdfrwt>
<pdfrwt beam="2">  1       -2 0.12288458E-01 0.15328688E+03</pdfrwt>
<totfact> 0.39205699E+03</totfact>
</mgrwt>
</event>
<event>
 7    1  0.7800420E-006  0.1308001E+03  0.7546771E-02  0.1239987E+00
         -2   -1    0    0    0  501 -0.00000000000E+00  0.00000000000E+00  0.78285394355E+02  0.78285394355E+02  0.00000000000E+00 0.  1.
          2   -1    0    0  501    0  0.00000000000E+00 -0.00000000000E+00 -0.28092660864E+03  0.28092660864E+03  0.00000000000E+00 0. -1.
         23    2    1    2    0    0  0.16386344189E+02  0.37040834475E+02 -0.22292117083E+03  0.25846182598E+03  0.12437094271E+03 0.  0.
          5    1    3    3  502    0  0.41100335602E+02 -0.31733760916E+02 -0.57862722936E+02  0.77887443623E+02  0.47000000000E+01 0. -1.
         -5    1    3    3    0  502 -0.24713991413E+02  0.68774595391E+02 -0.16505844789E+03  0.18057438236E+03  0.47000000000E+01 0. -1.
        -11    1    1    2    0    0  0.32861205219E+02  0.33065029882E+01  0.16637601892E+02  0.36981097430E+02  0.00000000000E+00 0.  1.
         11    1    1    2    0    0 -0.49247549408E+02 -0.40347337463E+02  0.36423546588E+01  0.63769079580E+02  0.00000000000E+00 0. -1.
<mgrwt>
<rscale>  0 0.12190518E+03</rscale>
<asrwt>0</asrwt>
<pdfrwt beam="2">  1        2 0.43219478E-01 0.13080010E+03</pdfrwt>
<pdfrwt beam="1">  1       -2 0.12043907E-01 0.13080010E+03</pdfrwt>
<totfact> 0.55081396E+03</totfact>
</mgrwt>
</event>
<event>
 7    1  0.7800420E-006  0.1290057E+03  0.7546771E-02  0.1255656E+00
         -1   -1    0    0    0  501 -0.00000000000E+00  0.00000000000E+00  0.16033208317E+02  0.16033208317E+02  0.00000000000E+00 0.  1.
          1   -1    0    0  501    0  0.00000000000E+00 -0.00000000000E+00 -0.73766768867E+03  0.73766768867E+03  0.00000000000E+00 0. -1.
         23    2    1    2    0    0  0.22067043662E+02  0.23036124027E+02 -0.57072249371E+03  0.58512104273E+03  0.12499940954E+03 0.  0.
          5    1    3    3  502    0  0.59689588109E+02 -0.73663332113E+01 -0.15115623253E+03  0.16274952051E+03  0.47000000000E+01 0. -1.
         -5    1    3    3    0  502 -0.37622544447E+02  0.30402457239E+02 -0.41956626118E+03  0.42237152221E+03  0.47000000000E+01 0. -1.
        -11    1    1    2    0    0 -0.29273417814E+02  0.16957353001E+02 -0.79812747912E+02  0.86686559169E+02  0.00000000000E+00 0.  1.
         11    1    1    2    0    0  0.72063741520E+01 -0.39993477028E+02 -0.71099238731E+02  0.81893295094E+02  0.00000000000E+00 0. -1.
<mgrwt>
<rscale>  0 0.11269695E+03</rscale>
<asrwt>0</asrwt>
<pdfrwt beam="2">  1        1 0.11348733E+00 0.12900570E+03</pdfrwt>
<pdfrwt beam="1">  1       -1 0.24666476E-02 0.12900570E+03</pdfrwt>
<totfact> 0.12501814E+04</totfact>
</mgrwt>
</event>
<event>
 7    1  0.7800420E-006  0.1133410E+03  0.7546771E-02  0.1263498E+00
          2   -1    0    0  501    0  0.00000000000E+00  0.00000000000E+00  0.36583896996E+02  0.36583896996E+02  0.00000000000E+00 0. -1.
         -2   -1    0    0    0  501 -0.00000000000E+00 -0.00000000000E+00 -0.31529014710E+03  0.31529014710E+03  0.00000000000E+00 0.  1.
         23    2    1    2    0    0 -0.17651808750E+02 -0.13176239945E+02 -0.10810622912E+03  0.15663056885E+03  0.11117993826E+03 0.  0.
          5    1    3    3  502    0  0.23358923935E+01  0.34035498032E+02  0.26029893763E+01  0.34536025731E+02  0.47000000000E+01 0. -1.
         -5    1    3    3    0  502 -0.19987701144E+02 -0.47211737977E+02 -0.11070921849E+03  0.12209454312E+03  0.47000000000E+01 0.  1.
        -11    1    1    2    0    0  0.19413137945E+02  0.50535243613E+02 -0.12533145556E+03  0.13652345778E+03  0.00000000000E+00 0. -1.
         11    1    1    2    0    0 -0.17613291946E+01 -0.37359003668E+02 -0.45268565434E+02  0.58720017473E+02  0.00000000000E+00 0.  1.
<mgrwt>
<rscale>  0 0.10843384E+03</rscale>
<asrwt>0</asrwt>
<pdfrwt beam="1">  1        2 0.56282920E-02 0.11334098E+03</pdfrwt>
<pdfrwt beam="2">  1       -2 0.48506175E-01 0.11334098E+03</pdfrwt>
<totfact> 0.51260324E+03</totfact>
</mgrwt>
</event>
<event>
 7    1  0.1309347E-005  0.1591265E+03  0.7546771E-02  0.1200314E+00
          3   -1    0    0  501    0  0.00000000000E+00  0.00000000000E+00  0.11804509911E+03  0.11804509911E+03  0.00000000000E+00 0.  1.
         -3   -1    0    0    0  501 -0.00000000000E+00 -0.00000000000E+00 -0.17800032318E+03  0.17800032318E+03  0.00000000000E+00 0. -1.
         23    2    1    2    0    0 -0.29618528719E+02  0.93911196784E+02 -0.69474753363E+01  0.15927808392E+03  0.12499868191E+03 0.  0.
          5    1    3    3  502    0 -0.65441516052E+02  0.53760208843E+02 -0.42238544452E+02  0.94757251519E+02  0.47000000000E+01 0.  1.
         -5    1    3    3    0  502  0.35822987333E+02  0.40150987942E+02  0.35291069116E+02  0.64520832399E+02  0.47000000000E+01 0.  1.
        -11    1    1    2    0    0 -0.15844927960E+02 -0.52513857245E+02 -0.51533327342E+02  0.75262545610E+02  0.00000000000E+00 0.  1.
         11    1    1    2    0    0  0.45463456679E+02 -0.41397339540E+02 -0.14744213844E+01  0.61504792761E+02  0.00000000000E+00 0. -1.
<mgrwt>
<rscale>  0 0.15012952E+03</rscale>
<asrwt>0</asrwt>
<pdfrwt beam="1">  1        3 0.18160785E-01 0.15912649E+03</pdfrwt>
<pdfrwt beam="2">  1       -3 0.27384665E-01 0.15912649E+03</pdfrwt>
<totfact> 0.80043180E+02</totfact>
</mgrwt>
</event>
<event>
 7    1  0.7800420E-006  0.2573812E+03  0.7546771E-02  0.1111213E+00
          2   -1    0    0  501    0  0.00000000000E+00  0.00000000000E+00  0.67890437808E+03  0.67890437808E+03  0.00000000000E+00 0. -1.
         -2   -1    0    0    0  501 -0.00000000000E+00 -0.00000000000E+00 -0.12637422057E+03  0.12637422057E+03  0.00000000000E+00 0.  1.
         23    2    1    2    0    0  0.19122088383E+03  0.11557386086E+03  0.49349713767E+03  0.55658290693E+03  0.12775900622E+03 0.  0.
          5    1    3    3  502    0  0.10225772121E+03  0.10160495349E+03  0.40631343464E+03  0.43115299523E+03  0.47000000000E+01 0. -1.
         -5    1    3    3    0  502  0.88963162622E+02  0.13968907372E+02  0.87183703028E+02  0.12542991171E+03  0.47000000000E+01 0.  1.
        -11    1    1    2    0    0 -0.77783488371E+02 -0.92424468653E+02  0.49237227834E+01  0.12089994423E+03  0.00000000000E+00 0. -1.
         11    1    1    2    0    0 -0.11343739546E+03 -0.23149392212E+02  0.54109297059E+02  0.12779574749E+03  0.00000000000E+00 0.  1.
<mgrwt>
<rscale>  0 0.25333863E+03</rscale>
<asrwt>0</asrwt>
<pdfrwt beam="1">  1        2 0.10444683E+00 0.25738125E+03</pdfrwt>
<pdfrwt beam="2">  1       -2 0.19442188E-01 0.25738125E+03</pdfrwt>
<totfact> 0.96297787E+02</totfact>
</mgrwt>
</event>
<event>
 7    1  0.7800420E-006  0.1745236E+03  0.7546771E-02  0.1180146E+00
         -2   -1    0    0    0  501 -0.00000000000E+00  0.00000000000E+00  0.32990740923E+02  0.32990740923E+02  0.00000000000E+00 0.  1.
          2   -1    0    0  501    0  0.00000000000E+00 -0.00000000000E+00 -0.80048729064E+03  0.80048729064E+03  0.00000000000E+00 0. -1.
         23    2    1    2    0    0 -0.12085149601E+03  0.15125342412E+02 -0.45058125612E+03  0.48319968994E+03  0.12499844764E+03 0.  0.
          5    1    3    3  502    0 -0.97766163312E+02  0.65745740231E+02 -0.32638027990E+03  0.34702579466E+03  0.47000000000E+01 0.  1.
         -5    1    3    3    0  502 -0.23085332697E+02 -0.50620397819E+02 -0.12420097622E+03  0.13617389528E+03  0.47000000000E+01 0.  1.
        -11    1    1    2    0    0  0.48856934713E+02 -0.48418833846E+02 -0.12625760679E+03  0.14377888167E+03  0.00000000000E+00 0.  1.
         11    1    1    2    0    0  0.71994561296E+02  0.33293491434E+02 -0.19065768680E+03  0.20649945996E+03  0.00000000000E+00 0. -1.
<mgrwt>
<rscale>  0 0.16781479E+03</rscale>
<asrwt>0</asrwt>
<pdfrwt beam="2">  1        2 0.12315188E+00 0.17452356E+03</pdfrwt>
<pdfrwt beam="1">  1       -2 0.50754990E-02 0.17452356E+03</pdfrwt>
<totfact> 0.66386436E+03</totfact>
</mgrwt>
</event>
<event>
 7    1  0.7800420E-006  0.1408803E+03  0.7546771E-02  0.1223664E+00
         -3   -1    0    0    0  501 -0.00000000000E+00  0.00000000000E+00  0.37200331801E+02  0.37200331801E+02  0.00000000000E+00 0.  1.
          3   -1    0    0  501    0  0.00000000000E+00 -0.00000000000E+00 -0.44692090615E+03  0.44692090615E+03  0.00000000000E+00 0. -1.
         23    2    1    2    0    0  0.13450078314E+02  0.63571699212E+02 -0.28188045055E+03  0.31512514123E+03  0.12500000274E+03 0.  0.
          5    1    3    3  502    0 -0.22596629936E+02  0.73335371302E+02 -0.26098614159E+03  0.27207451272E+03  0.47000000000E+01 0.  1.
         -5    1    3    3    0  502  0.36046708249E+02 -0.97636720896E+01 -0.20894308959E+02  0.43050628511E+02  0.47000000000E+01 0.  1.
        -11    1    1    2    0    0  0.31310852605E+02 -0.54950203893E+02 -0.88550908570E+02  0.10881708417E+03  0.00000000000E+00 0. -1.
         11    1    1    2    0    0 -0.44760930919E+02 -0.86214953196E+01 -0.39289215222E+02  0.60179012546E+02  0.00000000000E+00 0.  1.
<mgrwt>
<rscale>  0 0.13258869E+03</rscale>
<asrwt>0</asrwt>
<pdfrwt beam="2">  1        3 0.68757059E-01 0.14088033E+03</pdfrwt>
<pdfrwt beam="1">  1       -3 0.57231283E-02 0.14088033E+03</pdfrwt>
<totfact> 0.88268735E+02</totfact>
</mgrwt>
</event>
<event>
 6    1  0.7800420E-006  0.1466988E+03  0.7546771E-02  0.1226350E+00
          3   -1    0    0  501    0  0.00000000000E+00  0.00000000000E+00  0.31998437726E+02  0.31998437726E+02  0.00000000000E+00 0. -1.
         -3   -1    0    0    0  501 -0.00000000000E+00 -0.00000000000E+00 -0.45724362808E+03  0.45724362808E+03  0.00000000000E+00 0.  1.
          5    1    1    2  502    0 -0.47134126765E+02 -0.37536693440E+02 -0.35997040716E+02  0.70345619626E+02  0.47000000000E+01 0. -1.
         -5    1    1    2    0  502  0.54374372298E+02  0.25051024875E+02 -0.18848257864E+03  0.19781784212E+03  0.47000000000E+01 0.  1.
        -11    1    1    2    0    0 -0.11047310007E+00 -0.27034227031E+02 -0.14787813757E+02  0.30814624308E+02  0.00000000000E+00 0.  1.
         11    1    1    2    0    0 -0.71297724329E+01  0.39519895597E+02 -0.18597775725E+03  0.19026397976E+03  0.00000000000E+00 0. -1.
<mgrwt>
<rscale>  0 0.13074823E+03</rscale>
<asrwt>0</asrwt>
<pdfrwt beam="1">  1        3 0.49228365E-02 0.14669882E+03</pdfrwt>
<pdfrwt beam="2">  1       -3 0.70345175E-01 0.14669882E+03</pdfrwt>
<totfact> 0.10740229E+03</totfact>
</mgrwt>
</event>
<event>
 7    1  0.7800420E-006  0.1274511E+03  0.7546771E-02  0.1249774E+00
         -1   -1    0    0    0  501 -0.00000000000E+00  0.00000000000E+00  0.11412213717E+02  0.11412213717E+02  0.00000000000E+00 0.  1.
          1   -1    0    0  501    0  0.00000000000E+00 -0.00000000000E+00 -0.14778839550E+04  0.14778839550E+04  0.00000000000E+00 0. -1.
         23    2    1    2    0    0  0.28441790463E+01  0.24722614785E+02 -0.12391286503E+04  0.12456659203E+04  0.12499790423E+03 0.  0.
          5    1    3    3  502    0  0.30734286293E+02  0.53576049492E+02 -0.10694763454E+04  0.10712687492E+04  0.47000000000E+01 0.  1.
         -5    1    3    3    0  502 -0.27890107247E+02 -0.28853434708E+02 -0.16965230484E+03  0.17439717118E+03  0.47000000000E+01 0.  1.
        -11    1    1    2    0    0  0.29116276805E+02 -0.32785828908E+02 -0.67984740000E+02  0.80898658982E+02  0.00000000000E+00 0.  1.
         11    1    1    2    0    0 -0.31960455851E+02  0.80632141239E+01 -0.15935835104E+03  0.16273158945E+03  0.00000000000E+00 0. -1.
<mgrwt>
<rscale>  0 0.11604136E+03</rscale>
<asrwt>0</asrwt>
<pdfrwt beam="2">  1        1 0.22736668E+00 0.12745106E+03</pdfrwt>
<pdfrwt beam="1">  1       -1 0.17557258E-02 0.12745106E+03</pdfrwt>
<totfact> 0.60065423E+03</totfact>
</mgrwt>
</event>
<event>
 7    1  0.7800420E-006  0.1395419E+03  0.7546771E-02  0.1226347E+00
          2   -1    0    0  501    0  0.00000000000E+00  0.00000000000E+00  0.14114189510E+03  0.14114189510E+03  0.00000000000E+00 0. -1.
         -2   -1    0    0    0  501 -0.00000000000E+00 -0.00000000000E+00 -0.10877694542E+03  0.10877694542E+03  0.00000000000E+00 0.  1.
         23    2    1    2    0    0 -0.61673587678E+02  0.64609047928E+01  0.27645143734E+02  0.14225394778E+03  0.12500622777E+03 0.  0.
          5    1    3    3  502    0  0.17974180122E+02 -0.40027654732E+02  0.23077523799E+02  0.49799060223E+02  0.47000000000E+01 0.  1.
         -5    1    3    3    0  502 -0.79647767800E+02  0.46488559525E+02  0.45676199355E+01  0.92454887562E+02  0.47000000000E+01 0.  1.
        -11    1    1    2    0    0  0.40091850907E+02  0.66088474163E+01 -0.39554409538E+02  0.56706125659E+02  0.00000000000E+00 0.  1.
         11    1    1    2    0    0  0.21581736771E+02 -0.13069752209E+02  0.44274215485E+02  0.50958767073E+02  0.00000000000E+00 0. -1.
<mgrwt>
<rscale>  0 0.13075024E+03</rscale>
<asrwt>0</asrwt>
<pdfrwt beam="1">  1        2 0.21714138E-01 0.13954186E+03</pdfrwt>
<pdfrwt beam="2">  1       -2 0.16734915E-01 0.13954186E+03</pdfrwt>
<totfact> 0.68373645E+03</totfact>
</mgrwt>
</event>
<event>
 7    1  0.7800420E-006  0.1438643E+03  0.7546771E-02  0.1218674E+00
          1   -1    0    0  501    0  0.00000000000E+00  0.00000000000E+00  0.61833545992E+03  0.61833545992E+03  0.00000000000E+00 0. -1.
         -1   -1    0    0    0  501 -0.00000000000E+00 -0.00000000000E+00 -0.29785360282E+02  0.29785360282E+02  0.00000000000E+00 0.  1.
         23    2    1    2    0    0  0.70953755601E+02  0.59950688783E+01  0.41989948570E+03  0.44386092879E+03  0.12500627876E+03 0.  0.
          5    1    3    3  502    0  0.25571029322E+02 -0.17169612133E+02  0.37346853516E+03  0.37476594012E+03  0.47000000000E+01 0.  1.
         -5    1    3    3    0  502  0.45382726279E+02  0.23164681011E+02  0.46430950539E+02  0.69094988667E+02  0.47000000000E+01 0.  1.
        -11    1    1    2    0    0 -0.85972488064E+02  0.79867923360E+01  0.97623217816E+02  0.13032785662E+03  0.00000000000E+00 0.  1.
         11    1    1    2    0    0  0.15018732462E+02 -0.13981861214E+02  0.71027396119E+02  0.73932034784E+02  0.00000000000E+00 0. -1.
<mgrwt>
<rscale>  0 0.13610085E+03</rscale>
<asrwt>0</asrwt>
<pdfrwt beam="1">  1        1 0.95128522E-01 0.14386433E+03</pdfrwt>
<pdfrwt beam="2">  1       -1 0.45823636E-02 0.14386433E+03</pdfrwt>
<totfact> 0.65339050E+03</totfact>
</mgrwt>
</event>
<event>
 7    1  0.7800420E-006  0.1852139E+03  0.7546771E-02  0.1168167E+00
          2   -1    0    0  501    0  0.00000000000E+00  0.00000000000E+00  0.47221871879E+03  0.47221871879E+03  0.00000000000E+00 0. -1.
         -2   -1    0    0    0  501 -0.00000000000E+00 -0.00000000000E+00 -0.64520664025E+02  0.64520664025E+02  0.00000000000E+00 0.  1.
         23    2    1    2    0    0 -0.10011944887E+03 -0.93042877584E+02  0.22029354876E+03  0.28780798145E+03  0.12499322161E+03 0.  0.
          5    1    3    3  502    0 -0.11056815015E+03 -0.98396381345E+02  0.13127261117E+03  0.19789328470E+03  0.47000000000E+01 0.  1.
         -5    1    3    3    0  502  0.10448701273E+02  0.53535037614E+01  0.89020937593E+02  0.89914696745E+02  0.47000000000E+01 0.  1.
        -11    1    1    2    0    0  0.37259281003E+02  0.80920649591E+02  0.63291531230E+02  0.10928048077E+03  0.00000000000E+00 0.  1.
         11    1    1    2    0    0  0.62860167871E+02  0.12122227992E+02  0.12411297477E+03  0.13965092060E+03  0.00000000000E+00 0. -1.
<mgrwt>
<rscale>  0 0.17962464E+03</rscale>
<asrwt>0</asrwt>
<pdfrwt beam="1">  1        2 0.72649032E-01 0.18521389E+03</pdfrwt>
<pdfrwt beam="2">  1       -2 0.99262563E-02 0.18521389E+03</pdfrwt>
<totfact> 0.43695760E+03</totfact>
</mgrwt>
</event>
<event>
 7    1  0.7800420E-006  0.1365317E+03  0.7546771E-02  0.1230495E+00
          1   -1    0    0  501    0  0.00000000000E+00  0.00000000000E+00  0.26392900153E+02  0.26392900153E+02  0.00000000000E+00 0. -1.
         -1   -1    0    0    0  501 -0.00000000000E+00 -0.00000000000E+00 -0.62655309155E+03  0.62655309155E+03  0.00000000000E+00 0.  1.
         23    2    1    2    0    0  0.43458352175E+02  0.33562916227E+02 -0.22424749462E+03  0.26254112395E+03  0.12500322077E+03 0.  0.
          5    1    3    3  502    0  0.55167698875E+02  0.17437125389E+02 -0.23311089402E+03  0.24022969686E+03  0.47000000000E+01 0. -1.
         -5    1    3    3    0  502 -0.11709346699E+02  0.16125790838E+02  0.88633993960E+01  0.22311427098E+02  0.47000000000E+01 0. -1.
        -11    1    1    2    0    0  0.21864307640E+02 -0.28177252023E+02 -0.18893524067E+03  0.19227202253E+03  0.00000000000E+00 0. -1.
         11    1    1    2    0    0 -0.65322659815E+02 -0.53856642039E+01 -0.18697745610E+03  0.19813284522E+03  0.00000000000E+00 0.  1.
<mgrwt>
<rscale>  0 0.12797286E+03</rscale>
<asrwt>0</asrwt>
<pdfrwt beam="1">  1        1 0.40604464E-02 0.13653169E+03</pdfrwt>
<pdfrwt beam="2">  1       -1 0.96392777E-01 0.13653169E+03</pdfrwt>
<totfact> 0.23578296E+03</totfact>
</mgrwt>
</event>
<event>
 7    1  0.7800420E-006  0.1253200E+03  0.7546771E-02  0.1248731E+00
         -2   -1    0    0    0  501 -0.00000000000E+00  0.00000000000E+00  0.15122914744E+03  0.15122914744E+03  0.00000000000E+00 0.  1.
          2   -1    0    0  501    0  0.00000000000E+00 -0.00000000000E+00 -0.81679524500E+02  0.81679524500E+02  0.00000000000E+00 0. -1.
         23    2    1    2    0    0 -0.45304118874E+01 -0.77278901761E+01  0.21060619506E+02  0.12707738200E+03  0.12499946562E+03 0.  0.
          5    1    3    3  502    0  0.30071835292E+01  0.19518131599E+02 -0.48103422895E+02  0.52211396344E+02  0.47000000000E+01 0.  1.
         -5    1    3    3    0  502 -0.75375954166E+01 -0.27246021776E+02  0.69164042402E+02  0.74865985658E+02  0.47000000000E+01 0.  1.
        -11    1    1    2    0    0  0.25980724682E+02  0.12636902113E+02 -0.19177599967E+02  0.34676644741E+02  0.00000000000E+00 0. -1.
         11    1    1    2    0    0 -0.21450312794E+02 -0.49090119373E+01  0.67666603404E+02  0.71154645199E+02  0.00000000000E+00 0.  1.
<mgrwt>
<rscale>  0 0.11664809E+03</rscale>
<asrwt>0</asrwt>
<pdfrwt beam="2">  1        2 0.12566081E-01 0.12532004E+03</pdfrwt>
<pdfrwt beam="1">  1       -2 0.23266023E-01 0.12532004E+03</pdfrwt>
<totfact> 0.73190586E+03</totfact>
</mgrwt>
</event>
<event>
 7    1  0.7800420E-006  0.1645088E+03  0.7546771E-02  0.1190350E+00
         -1   -1    0    0    0  501 -0.00000000000E+00  0.00000000000E+00  0.42519172457E+02  0.42519172457E+02  0.00000000000E+00 0.  1.
          1   -1    0    0  501    0  0.00000000000E+00 -0.00000000000E+00 -0.56798964317E+03  0.56798964317E+03  0.00000000000E+00 0. -1.
         23    2    1    2    0    0 -0.17523576585E+02  0.10553544978E+03 -0.23061336628E+03  0.28327664765E+03  0.12497330715E+03 0.  0.
          5    1    3    3  502    0  0.51017007483E+01 -0.40720050718E+01  0.12918398485E+02  0.15217870917E+02  0.47000000000E+01 0.  1.
         -5    1    3    3    0  502 -0.22625277334E+02  0.10960745485E+03 -0.24353176477E+03  0.26805877673E+03  0.47000000000E+01 0.  1.
        -11    1    1    2    0    0 -0.38033310125E+02 -0.51593447423E+02 -0.14557358439E+03  0.15906000430E+03  0.00000000000E+00 0. -1.
         11    1    1    2    0    0  0.55556886710E+02 -0.53942002357E+02 -0.14928352004E+03  0.16817216367E+03  0.00000000000E+00 0.  1.
<mgrwt>
<rscale>  0 0.15854396E+03</rscale>
<asrwt>0</asrwt>
<pdfrwt beam="2">  1        1 0.87383024E-01 0.16450877E+03</pdfrwt>
<pdfrwt beam="1">  1       -1 0.65414110E-02 0.16450877E+03</pdfrwt>
<totfact> 0.43459306E+03</totfact>
</mgrwt>
</event>
<event>
 7    1  0.7800420E-006  0.1466378E+03  0.7546771E-02  0.1213658E+00
         -1   -1    0    0    0  501 -0.00000000000E+00  0.00000000000E+00  0.15311539322E+02  0.15311539322E+02  0.00000000000E+00 0.  1.
          1   -1    0    0  501    0  0.00000000000E+00 -0.00000000000E+00 -0.13870798486E+04  0.13870798486E+04  0.00000000000E+00 0. -1.
         23    2    1    2    0    0  0.61123401017E+02 -0.46291272063E+02 -0.10179774829E+04  0.10284847177E+04  0.12499482727E+03 0.  0.
          5    1    3    3  502    0  0.40185120241E+02 -0.16239365523E+02 -0.92375170015E+02  0.10214608615E+03  0.47000000000E+01 0.  1.
         -5    1    3    3    0  502  0.20938280777E+02 -0.30051906540E+02 -0.92560231284E+03  0.92633863151E+03  0.47000000000E+01 0.  1.
        -11    1    1    2    0    0 -0.37629357999E+02 -0.11569414391E+02 -0.49359325101E+02  0.63136066612E+02  0.00000000000E+00 0.  1.
         11    1    1    2    0    0 -0.23494043018E+02  0.57860686454E+02 -0.30443150132E+03  0.31077060365E+03  0.00000000000E+00 0. -1.
<mgrwt>
<rscale>  0 0.13975608E+03</rscale>
<asrwt>0</asrwt>
<pdfrwt beam="2">  1        1 0.21339694E+00 0.14663785E+03</pdfrwt>
<pdfrwt beam="1">  1       -1 0.23556210E-02 0.14663785E+03</pdfrwt>
<totfact> 0.45260750E+03</totfact>
</mgrwt>
</event>
<event>
 7    1  0.7800420E-006  0.1277000E+03  0.7546771E-02  0.1244660E+00
         -1   -1    0    0    0  501 -0.00000000000E+00  0.00000000000E+00  0.43167320276E+02  0.43167320276E+02  0.00000000000E+00 0.  1.
          1   -1    0    0  501    0  0.00000000000E+00 -0.00000000000E+00 -0.34004621899E+03  0.34004621899E+03  0.00000000000E+00 0. -1.
         23    2    1    2    0    0 -0.24477825269E+02  0.90817239530E+01 -0.23824460987E+03  0.27031051940E+03  0.12500256449E+03 0.  0.
          5    1    3    3  502    0  0.48560771608E+01  0.48399068685E+02 -0.32362415958E+02  0.58612859524E+02  0.47000000000E+01 0. -1.
         -5    1    3    3    0  502 -0.29333902430E+02 -0.39317344732E+02 -0.20588219391E+03  0.21169765988E+03  0.47000000000E+01 0. -1.
        -11    1    1    2    0    0 -0.23491704665E+02 -0.26121214780E+02 -0.50247792344E+02  0.61310836604E+02  0.00000000000E+00 0.  1.
         11    1    1    2    0    0  0.47969529934E+02  0.17039490827E+02 -0.83864964991E+01  0.51592183257E+02  0.00000000000E+00 0. -1.
<mgrwt>
<rscale>  0 0.11905747E+03</rscale>
<asrwt>0</asrwt>
<pdfrwt beam="2">  1        1 0.52314802E-01 0.12769997E+03</pdfrwt>
<pdfrwt beam="1">  1       -1 0.66411263E-02 0.12769997E+03</pdfrwt>
<totfact> 0.80958489E+03</totfact>
</mgrwt>
</event>
<event>
 7    1  0.7800420E-006  0.1457942E+03  0.7546771E-02  0.1215656E+00
         -2   -1    0    0    0  501 -0.00000000000E+00  0.00000000000E+00  0.27399334419E+02  0.27399334419E+02  0.00000000000E+00 0. -1.
          2   -1    0    0  501    0  0.00000000000E+00 -0.00000000000E+00 -0.65818406898E+03  0.65818406898E+03  0.00000000000E+00 0.  1.
         23    2    1    2    0    0  0.22120634155E+02 -0.71706979934E+02 -0.41153877211E+03  0.43660062084E+03  0.12499891096E+03 0.  0.
          5    1    3    3  502    0 -0.50338332034E+02 -0.23138827822E+02 -0.20364324259E+03  0.21109716549E+03  0.47000000000E+01 0. -1.
         -5    1    3    3    0  502  0.72458966190E+02 -0.48568152112E+02 -0.20789552952E+03  0.22550345535E+03  0.47000000000E+01 0. -1.
        -11    1    1    2    0    0 -0.40394112160E+01  0.18508580778E+02  0.34953960121E+01  0.19264013047E+02  0.00000000000E+00 0. -1.
         11    1    1    2    0    0 -0.18081222939E+02  0.53198399156E+02 -0.22274135846E+03  0.22971876951E+03  0.00000000000E+00 0.  1.
<mgrwt>
<rscale>  0 0.13828472E+03</rscale>
<asrwt>0</asrwt>
<pdfrwt beam="2">  1        2 0.10125908E+00 0.14579417E+03</pdfrwt>
<pdfrwt beam="1">  1       -2 0.42152824E-02 0.14579417E+03</pdfrwt>
<totfact> 0.11010930E+04</totfact>
</mgrwt>
</event>
<event>
 7    1  0.7800420E-006  0.1704461E+03  0.7546771E-02  0.1181998E+00
          1   -1    0    0  501    0  0.00000000000E+00  0.00000000000E+00  0.69143379091E+03  0.69143379091E+03  0.00000000000E+00 0. -1.
         -1   -1    0    0    0  501 -0.00000000000E+00 -0.00000000000E+00 -0.38184289295E+02  0.38184289295E+02  0.00000000000E+00 0.  1.
         23    2    1    2    0    0 -0.22465508077E+02 -0.11367001561E+03  0.37032839442E+03  0.40767019473E+03  0.12500518574E+03 0.  0.
          5    1    3    3  502    0 -0.54192288141E+02 -0.11711686266E+03  0.23087468787E+03  0.26453426075E+03  0.47000000000E+01 0. -1.
         -5    1    3    3    0  502  0.31726780064E+02  0.34468470482E+01  0.13945370655E+03  0.14313593398E+03  0.47000000000E+01 0. -1.
        -11    1    1    2    0    0  0.21020186258E+02  0.81857439855E+02  0.27693653565E+03  0.28954504566E+03  0.00000000000E+00 0. -1.
         11    1    1    2    0    0  0.14453218197E+01  0.31812575753E+02  0.59845715526E+01  0.32402839812E+02  0.00000000000E+00 0.  1.
<mgrwt>
<rscale>  0 0.16608036E+03</rscale>
<asrwt>0</asrwt>
<pdfrwt beam="1">  1        1 0.10637442E+00 0.17044609E+03</pdfrwt>
<pdfrwt beam="2">  1       -1 0.58745066E-02 0.17044609E+03</pdfrwt>
<totfact> 0.38899358E+03</totfact>
</mgrwt>
</event>
<event>
 7    1  0.7800420E-006  0.1171589E+03  0.7546771E-02  0.1256646E+00
          1   -1    0    0  501    0  0.00000000000E+00  0.00000000000E+00  0.43148419409E+03  0.43148419409E+03  0.00000000000E+00 0. -1.
         -1   -1    0    0    0  501 -0.00000000000E+00 -0.00000000000E+00 -0.32326911070E+02  0.32326911070E+02  0.00000000000E+00 0.  1.
         23    2    1    2    0    0  0.81643962559E+01  0.33983493947E+02  0.30868566782E+03  0.33017124645E+03  0.11182430522E+03 0.  0.
          5    1    3    3  502    0  0.39496889836E+02  0.42453836809E+02  0.78747425360E+02  0.97905973094E+02  0.47000000000E+01 0. -1.
         -5    1    3    3    0  502 -0.31332493580E+02 -0.84703428624E+01  0.22993824246E+03  0.23226527336E+03  0.47000000000E+01 0.  1.
        -11    1    1    2    0    0 -0.16633347543E+02 -0.53732030883E+02  0.96168217379E+02  0.11140971873E+03  0.00000000000E+00 0. -1.
         11    1    1    2    0    0  0.84689512870E+01  0.19748536937E+02 -0.56966021807E+01  0.22230139978E+02  0.00000000000E+00 0.  1.
<mgrwt>
<rscale>  0 0.11214633E+03</rscale>
<asrwt>0</asrwt>
<pdfrwt beam="1">  1        1 0.66382180E-01 0.11715891E+03</pdfrwt>
<pdfrwt beam="2">  1       -1 0.49733712E-02 0.11715891E+03</pdfrwt>
<totfact> 0.91689488E+03</totfact>
</mgrwt>
</event>
<event>
 7    1  0.7800420E-006  0.1657155E+03  0.7546771E-02  0.1188806E+00
         -2   -1    0    0    0  501 -0.00000000000E+00  0.00000000000E+00  0.28185760893E+02  0.28185760893E+02  0.00000000000E+00 0.  1.
          2   -1    0    0  501    0  0.00000000000E+00 -0.00000000000E+00 -0.86186761644E+03  0.86186761644E+03  0.00000000000E+00 0. -1.
         23    2    1    2    0    0 -0.83095099740E+02 -0.70223703566E+02 -0.50042965705E+03  0.52715411091E+03  0.12500180338E+03 0.  0.
          5    1    3    3  502    0 -0.97683422400E+02 -0.35901142176E+02 -0.21124377090E+03  0.23553548303E+03  0.47000000000E+01 0. -1.
         -5    1    3    3    0  502  0.14588322659E+02 -0.34322561390E+02 -0.28918588616E+03  0.29161862789E+03  0.47000000000E+01 0. -1.
        -11    1    1    2    0    0  0.78158436511E+02  0.22272593208E+02 -0.27770347354E+03  0.28935104773E+03  0.00000000000E+00 0.  1.
         11    1    1    2    0    0  0.49366632293E+01  0.47951110358E+02 -0.55548724949E+02  0.73548218686E+02  0.00000000000E+00 0. -1.
<mgrwt>
<rscale>  0 0.15990350E+03</rscale>
<asrwt>0</asrwt>
<pdfrwt beam="2">  1        2 0.13259504E+00 0.16571546E+03</pdfrwt>
<pdfrwt beam="1">  1       -2 0.43362702E-02 0.16571546E+03</pdfrwt>
<totfact> 0.76393485E+03</totfact>
</mgrwt>
</event>
<event>
 7    1  0.7800420E-006  0.1692765E+03  0.7546771E-02  0.1184969E+00
          3   -1    0    0  501    0  0.00000000000E+00  0.00000000000E+00  0.67672362047E+02  0.67672362047E+02  0.00000000000E+00 0. -1.
         -3   -1    0    0    0  501 -0.00000000000E+00 -0.00000000000E+00 -0.37071907645E+03  0.37071907645E+03  0.00000000000E+00 0.  1.
         23    2    1    2    0    0 -0.10823094263E+03  0.36256049958E+02 -0.17708907884E+03  0.24497971165E+03  0.12500431662E+03 0.  0.
          5    1    3    3  502    0 -0.95153238517E+02  0.61592083600E+02 -0.18316473862E+03  0.21545100380E+03  0.47000000000E+01 0.  1.
         -5    1    3    3    0  502 -0.13077704115E+02 -0.25336033642E+02  0.60756597812E+01  0.29528707852E+02  0.47000000000E+01 0.  1.
        -11    1    1    2    0    0  0.11015159499E+03 -0.47336153570E+02 -0.13383428710E+03  0.17968222427E+03  0.00000000000E+00 0.  1.
         11    1    1    2    0    0 -0.19206523623E+01  0.11080103612E+02  0.78766515403E+01  0.13729502578E+02  0.00000000000E+00 0. -1.
<mgrwt>
<rscale>  0 0.16334660E+03</rscale>
<asrwt>0</asrwt>
<pdfrwt beam="1">  1        3 0.10411132E-01 0.16927645E+03</pdfrwt>
<pdfrwt beam="2">  1       -3 0.57033705E-01 0.16927645E+03</pdfrwt>
<totfact> 0.50408400E+02</totfact>
</mgrwt>
</event>
<event>
 7    1  0.7800420E-006  0.1620108E+03  0.7546771E-02  0.1193884E+00
          1   -1    0    0  501    0  0.00000000000E+00  0.00000000000E+00  0.11137138752E+03  0.11137138752E+03  0.00000000000E+00 0. -1.
         -1   -1    0    0    0  501 -0.00000000000E+00 -0.00000000000E+00 -0.21588080202E+03  0.21588080202E+03  0.00000000000E+00 0.  1.
         23    2    1    2    0    0  0.47846084594E+02  0.91176708895E+02 -0.98610760151E+02  0.18966177872E+03  0.12508024717E+03 0.  0.
          5    1    3    3  502    0 -0.39259879786E+02  0.24595505294E+02 -0.77848212456E+01  0.47211973939E+02  0.47000000000E+01 0. -1.
         -5    1    3    3    0  502  0.87105964380E+02  0.66581203601E+02 -0.90825938906E+02  0.14244980478E+03  0.47000000000E+01 0. -1.
        -11    1    1    2    0    0 -0.23895375633E+02 -0.39209154566E+02 -0.48094356281E+02  0.66493713120E+02  0.00000000000E+00 0.  1.
         11    1    1    2    0    0 -0.23950708961E+02 -0.51967554328E+02  0.42195701927E+02  0.71096697699E+02  0.00000000000E+00 0. -1.
<mgrwt>
<rscale>  0 0.15549098E+03</rscale>
<asrwt>0</asrwt>
<pdfrwt beam="1">  1        1 0.17134060E-01 0.16201083E+03</pdfrwt>
<pdfrwt beam="2">  1       -1 0.33212431E-01 0.16201083E+03</pdfrwt>
<totfact> 0.26155750E+03</totfact>
</mgrwt>
</event>
<event>
 7    1  0.7800420E-006  0.1253841E+03  0.7546771E-02  0.1250154E+00
          2   -1    0    0  501    0  0.00000000000E+00  0.00000000000E+00  0.42930929857E+03  0.42930929857E+03  0.00000000000E+00 0.  1.
         -2   -1    0    0    0  501 -0.00000000000E+00 -0.00000000000E+00 -0.28608868114E+02  0.28608868114E+02  0.00000000000E+00 0. -1.
         23    2    1    2    0    0  0.48334391256E+01  0.85494871269E+01  0.27813543061E+03  0.30509095209E+03  0.12499886168E+03 0.  0.
          5    1    3    3  502    0 -0.54262415302E+02  0.30134169349E+02  0.13389511496E+03  0.14765659378E+03  0.47000000000E+01 0. -1.
         -5    1    3    3    0  502  0.59095854427E+02 -0.21584682222E+02  0.14424031565E+03  0.15743435831E+03  0.47000000000E+01 0. -1.
        -11    1    1    2    0    0 -0.34446617624E+02  0.19341602689E+02  0.24065925715E+02  0.46258359686E+02  0.00000000000E+00 0. -1.
         11    1    1    2    0    0  0.29613178499E+02 -0.27891089816E+02  0.98499074123E+02  0.10656885490E+03  0.00000000000E+00 0.  1.
<mgrwt>
<rscale>  0 0.11582129E+03</rscale>
<asrwt>0</asrwt>
<pdfrwt beam="1">  1        2 0.66047580E-01 0.12538410E+03</pdfrwt>
<pdfrwt beam="2">  1       -2 0.44013646E-02 0.12538410E+03</pdfrwt>
<totfact> 0.16424063E+04</totfact>
</mgrwt>
</event>
<event>
 7    1  0.7800420E-006  0.1288121E+03  0.7546771E-02  0.1243927E+00
          2   -1    0    0  501    0  0.00000000000E+00  0.00000000000E+00  0.31834414429E+02  0.31834414429E+02  0.00000000000E+00 0. -1.
         -2   -1    0    0    0  501 -0.00000000000E+00 -0.00000000000E+00 -0.43048470202E+03  0.43048470202E+03  0.00000000000E+00 0.  1.
         23    2    1    2    0    0 -0.28801429630E+02 -0.11774596073E+02 -0.16069362109E+03  0.20594898617E+03  0.12499752630E+03 0.  0.
          5    1    3    3  502    0 -0.42386800844E+02  0.40292039922E+01 -0.17504640342E+03  0.18021156656E+03  0.47000000000E+01 0. -1.
         -5    1    3    3    0  502  0.13585371215E+02 -0.15803800065E+02  0.14352782330E+02  0.25737419609E+02  0.47000000000E+01 0. -1.
        -11    1    1    2    0    0  0.52556866492E+02 -0.12817866627E+02 -0.94441345383E+02  0.10883790534E+03  0.00000000000E+00 0. -1.
         11    1    1    2    0    0 -0.23755436862E+02  0.24592462700E+02 -0.14351532112E+03  0.14753222495E+03  0.00000000000E+00 0.  1.
<mgrwt>
<rscale>  0 0.11949812E+03</rscale>
<asrwt>0</asrwt>
<pdfrwt beam="1">  1        2 0.48976026E-02 0.12881205E+03</pdfrwt>
<pdfrwt beam="2">  1       -2 0.66228410E-01 0.12881205E+03</pdfrwt>
<totfact> 0.32991428E+03</totfact>
</mgrwt>
</event>
<event>
 7    1  0.7800420E-006  0.1451360E+03  0.7546771E-02  0.1216598E+00
          1   -1    0    0  501    0  0.00000000000E+00  0.00000000000E+00  0.16557965194E+04  0.16557965194E+04  0.00000000000E+00 0. -1.
         -1   -1    0    0    0  501 -0.00000000000E+00 -0.00000000000E+00 -0.12278481928E+02  0.12278481928E+02  0.00000000000E+00 0.  1.
         23    2    1    2    0    0  0.16305535986E+02 -0.71936743455E+02  0.12207926305E+04  0.12293897251E+04  0.12499473565E+03 0.  0.
          5    1    3    3  502    0  0.47986582517E+02 -0.25192330681E+02  0.20745936315E+03  0.21447340858E+03  0.47000000000E+01 0. -1.
         -5    1    3    3    0  502 -0.31681046531E+02 -0.46744412774E+02  0.10133332674E+04  0.10149163165E+04  0.47000000000E+01 0. -1.
        -11    1    1    2    0    0 -0.46352336597E+02  0.49946071495E+02  0.35422308599E+03  0.36071754020E+03  0.00000000000E+00 0.  1.
         11    1    1    2    0    0  0.30046800611E+02  0.21990671960E+02  0.68502321005E+02  0.77967736040E+02  0.00000000000E+00 0. -1.
<mgrwt>
<rscale>  0 0.13759772E+03</rscale>
<asrwt>0</asrwt>
<pdfrwt beam="1">  1        1 0.25473775E+00 0.14513597E+03</pdfrwt>
<pdfrwt beam="2">  1       -1 0.18889985E-02 0.14513597E+03</pdfrwt>
<totfact> 0.41676210E+03</totfact>
</mgrwt>
</event>
<event>
 7    1  0.7800420E-006  0.2829179E+03  0.7546771E-02  0.1096018E+00
         -3   -1    0    0    0  501 -0.00000000000E+00  0.00000000000E+00  0.15928603828E+04  0.15928603828E+04  0.00000000000E+00 0.  1.
          3   -1    0    0  501    0  0.00000000000E+00 -0.00000000000E+00 -0.55761895335E+02  0.55761895335E+02  0.00000000000E+00 0. -1.
         23    2    1    2    0    0  0.19480736039E+03  0.16269233033E+03  0.47416905783E+03  0.55215832038E+03  0.12499525329E+03 0.  0.
          5    1    3    3  502    0  0.20278453156E+03  0.16692069403E+03  0.47406245948E+03  0.54197914150E+03  0.47000000000E+01 0.  1.
         -5    1    3    3    0  502 -0.79771711691E+01 -0.42283636953E+01  0.10659835252E+00  0.10179178877E+02  0.47000000000E+01 0.  1.
        -11    1    1    2    0    0 -0.87375193531E+02 -0.12244147090E+03  0.50812487483E+03  0.52992190619E+03  0.00000000000E+00 0. -1.
         11    1    1    2    0    0 -0.10743216686E+03 -0.40250859438E+02  0.55480455485E+03  0.56654205161E+03  0.00000000000E+00 0.  1.
<mgrwt>
<rscale>  0 0.27939798E+03</rscale>
<asrwt>0</asrwt>
<pdfrwt beam="2">  1        3 0.85787543E-02 0.28291786E+03</pdfrwt>
<pdfrwt beam="1">  1       -3 0.24505541E+00 0.28291786E+03</pdfrwt>
<totfact> 0.20676247E+01</totfact>
</mgrwt>
</event>
<event>
 7    1  0.7800420E-006  0.1520555E+03  0.7546771E-02  0.1204470E+00
          1   -1    0    0  501    0  0.00000000000E+00  0.00000000000E+00  0.10335054932E+04  0.10335054932E+04  0.00000000000E+00 0. -1.
         -1   -1    0    0    0  501 -0.00000000000E+00 -0.00000000000E+00 -0.23350609240E+02  0.23350609240E+02  0.00000000000E+00 0.  1.
         23    2    1    2    0    0 -0.53846782995E+01 -0.92917370484E+02  0.74814486967E+03  0.76344064806E+03  0.12024244096E+03 0.  0.
          5    1    3    3  502    0 -0.34790512581E+02 -0.89105482796E+00  0.68798928492E+02  0.77243487143E+02  0.47000000000E+01 0. -1.
         -5    1    3    3    0  502  0.29405834282E+02 -0.92026315656E+02  0.67934594118E+03  0.68619716092E+03  0.47000000000E+01 0.  1.
        -11    1    1    2    0    0  0.30400434332E+02  0.64310815506E+02  0.23814416611E+03  0.24854116611E+03  0.00000000000E+00 0. -1.
         11    1    1    2    0    0 -0.25015756033E+02  0.28606554978E+02  0.23865848172E+02  0.44874288257E+02  0.00000000000E+00 0.  1.
<mgrwt>
<rscale>  0 0.14679303E+03</rscale>
<asrwt>0</asrwt>
<pdfrwt beam="1">  1        1 0.15900081E+00 0.15205551E+03</pdfrwt>
<pdfrwt beam="2">  1       -1 0.35924022E-02 0.15205551E+03</pdfrwt>
<totfact> 0.42836845E+03</totfact>
</mgrwt>
</event>
<event>
 7    1  0.7800420E-006  0.1314411E+03  0.7546771E-02  0.1238768E+00
         -2   -1    0    0    0  501 -0.00000000000E+00  0.00000000000E+00  0.33189047915E+02  0.33189047915E+02  0.00000000000E+00 0. -1.
          2   -1    0    0  501    0  0.00000000000E+00 -0.00000000000E+00 -0.54048127269E+03  0.54048127269E+03  0.00000000000E+00 0.  1.
         23    2    1    2    0    0  0.40636412610E+02  0.34955972041E+00 -0.42354227568E+03  0.44346907307E+03  0.12500127702E+03 0.  0.
          5    1    3    3  502    0  0.22464575524E+02  0.55914288071E+02 -0.12055868447E+03  0.13486122929E+03  0.47000000000E+01 0.  1.
         -5    1    3    3    0  502  0.18171837085E+02 -0.55564728351E+02 -0.30298359121E+03  0.30860784378E+03  0.47000000000E+01 0.  1.
        -11    1    1    2    0    0 -0.56120966466E+01 -0.39370143904E+02 -0.12399459215E+02  0.41656337436E+02  0.00000000000E+00 0.  1.
         11    1    1    2    0    0 -0.35024315963E+02  0.39020584183E+02 -0.71350489876E+02  0.88544910098E+02  0.00000000000E+00 0. -1.
<mgrwt>
<rscale>  0 0.12266267E+03</rscale>
<asrwt>0</asrwt>
<pdfrwt beam="2">  1        2 0.83150967E-01 0.13144109E+03</pdfrwt>
<pdfrwt beam="1">  1       -2 0.51060072E-02 0.13144109E+03</pdfrwt>
<totfact> 0.10270366E+04</totfact>
</mgrwt>
</event>
<event>
 7    1  0.7800420E-006  0.1184011E+03  0.7546771E-02  0.1258663E+00
         -1   -1    0    0    0  501 -0.00000000000E+00  0.00000000000E+00  0.85754701093E+02  0.85754701093E+02  0.00000000000E+00 0.  1.
          1   -1    0    0  501    0  0.00000000000E+00 -0.00000000000E+00 -0.21272025073E+03  0.21272025073E+03  0.00000000000E+00 0. -1.
         23    2    1    2    0    0 -0.75783744396E+01  0.99070225370E+01 -0.16180149569E+03  0.20049577202E+03  0.11774230225E+03 0.  0.
          5    1    3    3  502    0 -0.38346806798E+02 -0.42095288348E+02 -0.89102260565E+02  0.10584797462E+03  0.47000000000E+01 0. -1.
         -5    1    3    3    0  502  0.30768432358E+02  0.52002310885E+02 -0.72699235121E+02  0.94647797408E+02  0.47000000000E+01 0.  1.
        -11    1    1    2    0    0  0.18154138381E+02 -0.29928481608E+02  0.56614846257E+02  0.66562208260E+02  0.00000000000E+00 0.  1.
         11    1    1    2    0    0 -0.10575763941E+02  0.20021459071E+02 -0.21778900204E+02  0.31416971534E+02  0.00000000000E+00 0. -1.
<mgrwt>
<rscale>  0 0.11103598E+03</rscale>
<asrwt>0</asrwt>
<pdfrwt beam="2">  1        1 0.32726192E-01 0.11840114E+03</pdfrwt>
<pdfrwt beam="1">  1       -1 0.13193031E-01 0.11840114E+03</pdfrwt>
<totfact> 0.50699195E+03</totfact>
</mgrwt>
</event>
<event>
 7    1  0.7800420E-006  0.1335341E+03  0.7546771E-02  0.1234246E+00
         -1   -1    0    0    0  501 -0.00000000000E+00  0.00000000000E+00  0.26240903660E+02  0.26240903660E+02  0.00000000000E+00 0.  1.
          1   -1    0    0  501    0  0.00000000000E+00 -0.00000000000E+00 -0.62463061658E+03  0.62463061658E+03  0.00000000000E+00 0. -1.
         23    2    1    2    0    0 -0.34856147650E+02 -0.31477524512E+02 -0.45079494415E+03  0.47015683644E+03  0.12500233439E+03 0.  0.
          5    1    3    3  502    0 -0.29271323363E+01 -0.15408462558E+02  0.14867887092E+01  0.16440479397E+02  0.47000000000E+01 0.  1.
         -5    1    3    3    0  502 -0.31929015314E+02 -0.16069061954E+02 -0.45228173286E+03  0.45371635704E+03  0.47000000000E+01 0.  1.
        -11    1    1    2    0    0  0.52281097424E+01  0.17276289745E+02  0.93776114144E+01  0.20340671441E+02  0.00000000000E+00 0.  1.
         11    1    1    2    0    0  0.29628037908E+02  0.14201234768E+02 -0.15697238019E+03  0.16037401236E+03  0.00000000000E+00 0. -1.
<mgrwt>
<rscale>  0 0.12552807E+03</rscale>
<asrwt>0</asrwt>
<pdfrwt beam="2">  1        1 0.96097017E-01 0.13353415E+03</pdfrwt>
<pdfrwt beam="1">  1       -1 0.40370622E-02 0.13353415E+03</pdfrwt>
<totfact> 0.77322168E+03</totfact>
</mgrwt>
</event>
<event>
 7    1  0.7800420E-006  0.1411327E+03  0.7546771E-02  0.1220767E+00
         -2   -1    0    0    0  501 -0.00000000000E+00  0.00000000000E+00  0.15155986301E+02  0.15155986301E+02  0.00000000000E+00 0.  1.
          2   -1    0    0  501    0  0.00000000000E+00 -0.00000000000E+00 -0.11053734595E+04  0.11053734595E+04  0.00000000000E+00 0. -1.
         23    2    1    2    0    0 -0.24401708104E+02  0.60780995734E+02 -0.54897872010E+03  0.56682985234E+03  0.12501469348E+03 0.  0.
          5    1    3    3  502    0 -0.11779955228E+02  0.29849303334E+02 -0.52362444964E+03  0.52462787051E+03  0.47000000000E+01 0. -1.
         -5    1    3    3    0  502 -0.12621752876E+02  0.30931692400E+02 -0.25354270461E+02  0.42201981838E+02  0.47000000000E+01 0. -1.
        -11    1    1    2    0    0  0.22883034391E+02 -0.86210607486E+02 -0.45971979903E+03  0.46829285252E+03  0.00000000000E+00 0. -1.
         11    1    1    2    0    0  0.15186737124E+01  0.25429611752E+02 -0.81518954054E+02  0.85406740915E+02  0.00000000000E+00 0.  1.
<mgrwt>
<rscale>  0 0.13461329E+03</rscale>
<asrwt>0</asrwt>
<pdfrwt beam="2">  1        2 0.17005753E+00 0.14113273E+03</pdfrwt>
<pdfrwt beam="1">  1       -2 0.23316892E-02 0.14113273E+03</pdfrwt>
<totfact> 0.13477362E+04</totfact>
</mgrwt>
</event>
<event>
 7    1  0.7800420E-006  0.1998934E+03  0.7546771E-02  0.1154065E+00
          3   -1    0    0  501    0  0.00000000000E+00  0.00000000000E+00  0.28681131146E+03  0.28681131146E+03  0.00000000000E+00 0. -1.
         -3   -1    0    0    0  501 -0.00000000000E+00 -0.00000000000E+00 -0.14415152178E+03  0.14415152178E+03  0.00000000000E+00 0.  1.
         23    2    1    2    0    0 -0.14043503439E+03 -0.67852014435E+02  0.15004857147E+03  0.24994387533E+03  0.12502588641E+03 0.  0.
          5    1    3    3  502    0 -0.71817346136E+02  0.29484366223E+02  0.38843933154E+02  0.86936759777E+02  0.47000000000E+01 0. -1.
         -5    1    3    3    0  502 -0.68617688250E+02 -0.97336380658E+02  0.11120463831E+03  0.16300711556E+03  0.47000000000E+01 0. -1.
        -11    1    1    2    0    0  0.68055318516E+00  0.18096348059E+02  0.23320847966E+02  0.29526308871E+02  0.00000000000E+00 0.  1.
         11    1    1    2    0    0  0.13975448120E+03  0.49755666376E+02 -0.30709629755E+02  0.15149264904E+03  0.00000000000E+00 0. -1.
<mgrwt>
<rscale>  0 0.19495722E+03</rscale>
<asrwt>0</asrwt>
<pdfrwt beam="1">  1        3 0.44124817E-01 0.19989339E+03</pdfrwt>
<pdfrwt beam="2">  1       -3 0.22177157E-01 0.19989339E+03</pdfrwt>
<totfact> 0.23359511E+02</totfact>
</mgrwt>
</event>
<event>
 6    1  0.7800420E-006  0.1967758E+03  0.7546771E-02  0.1167654E+00
         -2   -1    0    0    0  501 -0.00000000000E+00  0.00000000000E+00  0.66340668104E+02  0.66340668104E+02  0.00000000000E+00 0.  1.
          2   -1    0    0  501    0  0.00000000000E+00 -0.00000000000E+00 -0.52463180982E+03  0.52463180982E+03  0.00000000000E+00 0. -1.
          5    1    1    2  502    0 -0.27410138101E+02 -0.12951200748E+03 -0.17052263230E+03  0.21592761260E+03  0.47000000000E+01 0. -1.
         -5    1    1    2    0  502  0.60840080901E+01  0.23955335569E+02 -0.21935862975E+03  0.22079667502E+03  0.47000000000E+01 0.  1.
        -11    1    1    2    0    0  0.17158951461E+01  0.11292196584E+03 -0.70599416719E+02  0.13318630675E+03  0.00000000000E+00 0.  1.
         11    1    1    2    0    0  0.19610234865E+02 -0.73652939275E+01  0.21895370561E+01  0.21061883549E+02  0.00000000000E+00 0. -1.
<mgrwt>
<rscale>  0 0.18015390E+03</rscale>
<asrwt>0</asrwt>
<pdfrwt beam="2">  1        2 0.80712588E-01 0.19677577E+03</pdfrwt>
<pdfrwt beam="1">  1       -2 0.10206256E-01 0.19677577E+03</pdfrwt>
<totfact> 0.37285812E+03</totfact>
</mgrwt>
</event>
<event>
 7    1  0.7800420E-006  0.1437607E+03  0.7546771E-02  0.1217792E+00
          2   -1    0    0  501    0  0.00000000000E+00  0.00000000000E+00  0.26153142572E+04  0.26153142572E+04  0.00000000000E+00 0. -1.
         -2   -1    0    0    0  501 -0.00000000000E+00 -0.00000000000E+00 -0.20149818685E+02  0.20149818685E+02  0.00000000000E+00 0.  1.
         23    2    1    2    0    0 -0.15267726270E+02 -0.88420292812E+02  0.24211274061E+04  0.24253917340E+04  0.11232050202E+03 0.  0.
          5    1    3    3  502    0 -0.45794721754E+02 -0.98555661295E+02  0.20317259912E+04  0.20346358319E+04  0.47000000000E+01 0. -1.
         -5    1    3    3    0  502  0.30526995484E+02  0.10135368483E+02  0.38940141487E+03  0.39075590213E+03  0.47000000000E+01 0.  1.
        -11    1    1    2    0    0 -0.30855545791E+02  0.41301789810E+02  0.81821292435E+02  0.96708978090E+02  0.00000000000E+00 0. -1.
         11    1    1    2    0    0  0.46123272060E+02  0.47118503002E+02  0.92215740014E+02  0.11336336382E+03  0.00000000000E+00 0.  1.
<mgrwt>
<rscale>  0 0.13673450E+03</rscale>
<asrwt>0</asrwt>
<pdfrwt beam="1">  1        2 0.40235577E+00 0.14376073E+03</pdfrwt>
<pdfrwt beam="2">  1       -2 0.30999742E-02 0.14376073E+03</pdfrwt>
<totfact> 0.14262308E+03</totfact>
</mgrwt>
</event>
<event>
 7    1  0.7800420E-006  0.1931123E+03  0.7546771E-02  0.1160285E+00
         -1   -1    0    0    0  501 -0.00000000000E+00  0.00000000000E+00  0.61217034907E+03  0.61217034907E+03  0.00000000000E+00 0.  1.
          1   -1    0    0  501    0  0.00000000000E+00 -0.00000000000E+00 -0.78001404188E+02  0.78001404188E+02  0.00000000000E+00 0. -1.
         23    2    1    2    0    0 -0.11281150979E+03  0.94542413368E+02  0.89432387804E+02  0.21281571468E+03  0.12501068658E+03 0.  0.
          5    1    3    3  502    0 -0.28319193291E+01  0.82153571752E+02  0.37828795741E+02  0.90610909420E+02  0.47000000000E+01 0.  1.
         -5    1    3    3    0  502 -0.10997959046E+03  0.12388841616E+02  0.51603592063E+02  0.12220480526E+03  0.47000000000E+01 0.  1.
        -11    1    1    2    0    0  0.85996579178E+02 -0.10654501573E+03  0.40772975494E+03  0.43010557433E+03  0.00000000000E+00 0.  1.
         11    1    1    2    0    0  0.26814930612E+02  0.12002602360E+02  0.37006802140E+02  0.47250464249E+02  0.00000000000E+00 0. -1.
<mgrwt>
<rscale>  0 0.18799183E+03</rscale>
<asrwt>0</asrwt>
<pdfrwt beam="2">  1        1 0.12000216E-01 0.19311234E+03</pdfrwt>
<pdfrwt beam="1">  1       -1 0.94180051E-01 0.19311234E+03</pdfrwt>
<totfact> 0.57722954E+02</totfact>
</mgrwt>
</event>
<event>
 7    1  0.7800420E-006  0.5708219E+03  0.7546771E-02  0.9971377E-01
         -2   -1    0    0    0  501 -0.00000000000E+00  0.00000000000E+00  0.43875007364E+03  0.43875007364E+03  0.00000000000E+00 0.  1.
          2   -1    0    0  501    0  0.00000000000E+00 -0.00000000000E+00 -0.77794343953E+03  0.77794343953E+03  0.00000000000E+00 0. -1.
         23    2    1    2    0    0 -0.30659854320E+03 -0.46508557445E+03 -0.31434985270E+03  0.65165440553E+03  0.12462092962E+03 0.  0.
          5    1    3    3  502    0 -0.29283739592E+03 -0.43790711623E+03 -0.32504721621E+03  0.61902678912E+03  0.47000000000E+01 0.  1.
         -5    1    3    3    0  502 -0.13761147281E+02 -0.27178458227E+02  0.10697363511E+02  0.32627616404E+02  0.47000000000E+01 0.  1.
        -11    1    1    2    0    0  0.27730776144E+01  0.40969515820E+02 -0.13422117072E+02  0.43201208463E+02  0.00000000000E+00 0. -1.
         11    1    1    2    0    0  0.30382546559E+03  0.42411605863E+03 -0.11421396114E+02  0.52183789918E+03  0.00000000000E+00 0.  1.
<mgrwt>
<rscale>  0 0.56923297E+03</rscale>
<asrwt>0</asrwt>
<pdfrwt beam="2">  1        2 0.11968361E+00 0.57082189E+03</pdfrwt>
<pdfrwt beam="1">  1       -2 0.67500012E-01 0.57082189E+03</pdfrwt>
<totfact> 0.73922255E+01</totfact>
</mgrwt>
</event>
<event>
 7    1  0.7800420E-006  0.1361042E+03  0.7546771E-02  0.1230961E+00
         -2   -1    0    0    0  501 -0.00000000000E+00  0.00000000000E+00  0.17849108695E+02  0.17849108695E+02  0.00000000000E+00 0.  1.
          2   -1    0    0  501    0  0.00000000000E+00 -0.00000000000E+00 -0.88842931631E+03  0.88842931631E+03  0.00000000000E+00 0. -1.
         23    2    1    2    0    0  0.35972586067E+02 -0.40060181387E+02 -0.61407556545E+03  0.62897787172E+03  0.12500207180E+03 0.  0.
          5    1    3    3  502    0 -0.27694181726E+02  0.22204362660E+02 -0.81938759182E+02  0.89420644590E+02  0.47000000000E+01 0.  1.
         -5    1    3    3    0  502  0.63666767793E+02 -0.62264544047E+02 -0.53213680626E+03  0.53955722713E+03  0.47000000000E+01 0.  1.
        -11    1    1    2    0    0  0.13459207481E+01  0.21376941368E+02 -0.45299158324E+01  0.21893041414E+02  0.00000000000E+00 0.  1.
         11    1    1    2    0    0 -0.37318506815E+02  0.18683240019E+02 -0.25197472633E+03  0.25540751187E+03  0.00000000000E+00 0. -1.
<mgrwt>
<rscale>  0 0.12766558E+03</rscale>
<asrwt>0</asrwt>
<pdfrwt beam="2">  1        2 0.13668140E+00 0.13610424E+03</pdfrwt>
<pdfrwt beam="1">  1       -2 0.27460174E-02 0.13610424E+03</pdfrwt>
<totfact> 0.14288844E+04</totfact>
</mgrwt>
</event>
<event>
 7    1  0.7800420E-006  0.1609932E+03  0.7546771E-02  0.1196327E+00
         -3   -1    0    0    0  501 -0.00000000000E+00  0.00000000000E+00  0.26350868645E+03  0.26350868645E+03  0.00000000000E+00 0.  1.
          3   -1    0    0  501    0  0.00000000000E+00 -0.00000000000E+00 -0.95786943796E+02  0.95786943796E+02  0.00000000000E+00 0. -1.
         23    2    1    2    0    0  0.38451002924E+02 -0.93894797946E+02  0.22566930436E+02  0.16256713841E+03  0.12499638169E+03 0.  0.
          5    1    3    3  502    0  0.20865214331E+02 -0.37759202442E+02  0.73009809255E+02  0.84933131260E+02  0.47000000000E+01 0. -1.
         -5    1    3    3    0  502  0.17585788593E+02 -0.56135595503E+02 -0.50442878819E+02  0.77634007152E+02  0.47000000000E+01 0. -1.
        -11    1    1    2    0    0  0.96765085201E+01  0.64585091188E+02  0.11639387838E+03  0.13346311755E+03  0.00000000000E+00 0.  1.
         11    1    1    2    0    0 -0.48127511445E+02  0.29309706758E+02  0.28760933830E+02  0.63265374281E+02  0.00000000000E+00 0. -1.
<mgrwt>
<rscale>  0 0.15342421E+03</rscale>
<asrwt>0</asrwt>
<pdfrwt beam="2">  1        3 0.14736453E-01 0.16099319E+03</pdfrwt>
<pdfrwt beam="1">  1       -3 0.40539797E-01 0.16099319E+03</pdfrwt>
<totfact> 0.54974849E+02</totfact>
</mgrwt>
</event>
<event>
 7    1  0.7800420E-006  0.2138571E+03  0.7546771E-02  0.1142951E+00
          1   -1    0    0  501    0  0.00000000000E+00  0.00000000000E+00  0.26811801511E+03  0.26811801511E+03  0.00000000000E+00 0. -1.
         -1   -1    0    0    0  501 -0.00000000000E+00 -0.00000000000E+00 -0.15393537639E+03  0.15393537639E+03  0.00000000000E+00 0.  1.
         23    2    1    2    0    0  0.56193176574E+02  0.16416805496E+03  0.54904618097E+02  0.22079257507E+03  0.12500408296E+03 0.  0.
          5    1    3    3  502    0  0.80596329879E+02  0.67256979340E+02  0.59287602841E+02  0.12064982184E+03  0.47000000000E+01 0. -1.
         -5    1    3    3    0  502 -0.24403153305E+02  0.96911075623E+02 -0.43829847446E+01  0.10014275323E+03  0.47000000000E+01 0. -1.
        -11    1    1    2    0    0 -0.29031235586E+02 -0.16205516946E+03  0.45924993801E+02  0.17092043659E+03  0.00000000000E+00 0. -1.
         11    1    1    2    0    0 -0.27161940988E+02 -0.21128854980E+01  0.13353026820E+02  0.30340379836E+02  0.00000000000E+00 0.  1.
<mgrwt>
<rscale>  0 0.20826017E+03</rscale>
<asrwt>0</asrwt>
<pdfrwt beam="1">  1        1 0.41248925E-01 0.21385706E+03</pdfrwt>
<pdfrwt beam="2">  1       -1 0.23682366E-01 0.21385706E+03</pdfrwt>
<totfact> 0.15318522E+03</totfact>
</mgrwt>
</event>
<event>
 7    1  0.7800420E-006  0.1480741E+03  0.7546771E-02  0.1212579E+00
         -1   -1    0    0    0  501 -0.00000000000E+00  0.00000000000E+00  0.13135834402E+03  0.13135834402E+03  0.00000000000E+00 0.  1.
          1   -1    0    0  501    0  0.00000000000E+00 -0.00000000000E+00 -0.20509979809E+03  0.20509979809E+03  0.00000000000E+00 0. -1.
         23    2    1    2    0    0 -0.78044250744E+02  0.14470003978E+02 -0.13601540833E+03  0.20106253548E+03  0.12500266310E+03 0.  0.
          5    1    3    3  502    0 -0.49150862224E+02 -0.48280276033E+02 -0.10384832100E+03  0.12471309509E+03  0.47000000000E+01 0. -1.
         -5    1    3    3    0  502 -0.28893388520E+02  0.62750280010E+02 -0.32167087329E+02  0.76349440396E+02  0.47000000000E+01 0. -1.
        -11    1    1    2    0    0  0.15462783525E+01  0.18078924224E+02  0.47645616215E+02  0.50983754495E+02  0.00000000000E+00 0.  1.
         11    1    1    2    0    0  0.76497972392E+02 -0.32548928202E+02  0.14628338043E+02  0.84411852136E+02  0.00000000000E+00 0. -1.
<mgrwt>
<rscale>  0 0.14055867E+03</rscale>
<asrwt>0</asrwt>
<pdfrwt beam="2">  1        1 0.31553815E-01 0.14807414E+03</pdfrwt>
<pdfrwt beam="1">  1       -1 0.20208976E-01 0.14807414E+03</pdfrwt>
<totfact> 0.27397403E+03</totfact>
</mgrwt>
</event>
<event>
 7    1  0.7800420E-006  0.1887997E+03  0.7546771E-02  0.1162349E+00
         -2   -1    0    0    0  501 -0.00000000000E+00  0.00000000000E+00  0.27721505155E+02  0.27721505155E+02  0.00000000000E+00 0.  1.
          2   -1    0    0  501    0  0.00000000000E+00 -0.00000000000E+00 -0.12061435546E+04  0.12061435546E+04  0.00000000000E+00 0. -1.
         23    2    1    2    0    0 -0.13798442623E+03  0.31311207719E+02 -0.61291459086E+03  0.64133425862E+03  0.12500096789E+03 0.  0.
          5    1    3    3  502    0 -0.44611117812E+02 -0.22325556475E+02 -0.39557367605E+03  0.39873450501E+03  0.47000000000E+01 0. -1.
         -5    1    3    3    0  502 -0.93373308413E+02  0.53636764194E+02 -0.21734091482E+03  0.24259975361E+03  0.47000000000E+01 0. -1.
        -11    1    1    2    0    0  0.10301128826E+03  0.26046473043E+02 -0.40092607504E+03  0.41476675604E+03  0.00000000000E+00 0.  1.
         11    1    1    2    0    0  0.34973137961E+02 -0.57357680762E+02 -0.16458138355E+03  0.17776404511E+03  0.00000000000E+00 0. -1.
<mgrwt>
<rscale>  0 0.18575211E+03</rscale>
<asrwt>0</asrwt>
<pdfrwt beam="2">  1        2 0.18556054E+00 0.18879972E+03</pdfrwt>
<pdfrwt beam="1">  1       -2 0.42648471E-02 0.18879972E+03</pdfrwt>
<totfact> 0.48963868E+03</totfact>
</mgrwt>
</event>
<event>
 7    1  0.7800420E-006  0.2239492E+03  0.7546771E-02  0.1134444E+00
         -1   -1    0    0    0  501 -0.00000000000E+00  0.00000000000E+00  0.83058183032E+03  0.83058183032E+03  0.00000000000E+00 0.  1.
          1   -1    0    0  501    0  0.00000000000E+00 -0.00000000000E+00 -0.55654523699E+02  0.55654523699E+02  0.00000000000E+00 0. -1.
         23    2    1    2    0    0  0.12526691365E+03 -0.13723987432E+03  0.38671744228E+03  0.44688209474E+03  0.12500657455E+03 0.  0.
          5    1    3    3  502    0  0.10469609597E+03 -0.36498360513E+02  0.13386506285E+03  0.17388314433E+03  0.47000000000E+01 0. -1.
         -5    1    3    3    0  502  0.20570817687E+02 -0.10074151381E+03  0.25285237942E+03  0.27299895041E+03  0.47000000000E+01 0. -1.
        -11    1    1    2    0    0 -0.49594998711E+02  0.97074007181E+02  0.14437154670E+03  0.18090375967E+03  0.00000000000E+00 0. -1.
         11    1    1    2    0    0 -0.75671914942E+02  0.40165867137E+02  0.24383831765E+03  0.25845049961E+03  0.00000000000E+00 0.  1.
<mgrwt>
<rscale>  0 0.21924871E+03</rscale>
<asrwt>0</asrwt>
<pdfrwt beam="2">  1        1 0.85622350E-02 0.22394916E+03</pdfrwt>
<pdfrwt beam="1">  1       -1 0.12778181E+00 0.22394916E+03</pdfrwt>
<totfact> 0.45031831E+02</totfact>
</mgrwt>
</event>
<event>
 7    1  0.7800420E-006  0.1548643E+03  0.7546771E-02  0.1203032E+00
          1   -1    0    0  501    0  0.00000000000E+00  0.00000000000E+00  0.49979986517E+03  0.49979986517E+03  0.00000000000E+00 0. -1.
         -1   -1    0    0    0  501 -0.00000000000E+00 -0.00000000000E+00 -0.76656584487E+02  0.76656584487E+02  0.00000000000E+00 0.  1.
         23    2    1    2    0    0  0.64182565870E+02  0.65107876760E+02  0.41980140825E+03  0.44745522170E+03  0.12499806271E+03 0.  0.
          5    1    3    3  502    0 -0.24158976917E+02  0.61375340812E+02  0.19059749433E+03  0.20174261689E+03  0.47000000000E+01 0. -1.
         -5    1    3    3    0  502  0.88341542788E+02  0.37325359476E+01  0.22920391392E+03  0.24571260481E+03  0.47000000000E+01 0. -1.
        -11    1    1    2    0    0 -0.24652401934E+02 -0.63091423686E+02 -0.32927032765E+02  0.75315723130E+02  0.00000000000E+00 0.  1.
         11    1    1    2    0    0 -0.39530163937E+02 -0.20164530735E+01  0.36268905197E+02  0.53685504822E+02  0.00000000000E+00 0. -1.
<mgrwt>
<rscale>  0 0.14793656E+03</rscale>
<asrwt>0</asrwt>
<pdfrwt beam="1">  1        1 0.76892285E-01 0.15486431E+03</pdfrwt>
<pdfrwt beam="2">  1       -1 0.11793321E-01 0.15486431E+03</pdfrwt>
<totfact> 0.20954392E+03</totfact>
</mgrwt>
</event>
<event>
 7    1  0.7800420E-006  0.1638351E+03  0.7546771E-02  0.1191189E+00
          1   -1    0    0  501    0  0.00000000000E+00  0.00000000000E+00  0.19301529451E+04  0.19301529451E+04  0.00000000000E+00 0. -1.
         -1   -1    0    0    0  501 -0.00000000000E+00 -0.00000000000E+00 -0.12790704436E+02  0.12790704436E+02  0.00000000000E+00 0.  1.
         23    2    1    2    0    0  0.66766029990E+02 -0.82003751944E+02  0.12610226811E+04  0.12716210719E+04  0.12513844364E+03 0.  0.
          5    1    3    3  502    0  0.78333062223E+02 -0.18380996833E+02  0.97575699453E+03  0.97908004375E+03  0.47000000000E+01 0.  1.
         -5    1    3    3    0  502 -0.11567032233E+02 -0.63622755111E+02  0.28526568661E+03  0.29254102817E+03  0.47000000000E+01 0.  1.
        -11    1    1    2    0    0  0.13953330629E+02  0.34890947968E+02  0.93378097103E+02  0.10065556470E+03  0.00000000000E+00 0.  1.
         11    1    1    2    0    0 -0.80719360619E+02  0.47112803976E+02  0.56296146241E+03  0.57066701292E+03  0.00000000000E+00 0. -1.
<mgrwt>
<rscale>  0 0.15781240E+03</rscale>
<asrwt>0</asrwt>
<pdfrwt beam="1">  1        1 0.29694638E+00 0.16383512E+03</pdfrwt>
<pdfrwt beam="2">  1       -1 0.19678022E-02 0.16383512E+03</pdfrwt>
<totfact> 0.26269781E+03</totfact>
</mgrwt>
</event>
<event>
 7    1  0.7800420E-006  0.1256797E+03  0.7546771E-02  0.1250304E+00
          2   -1    0    0  501    0  0.00000000000E+00  0.00000000000E+00  0.99917645051E+02  0.99917645051E+02  0.00000000000E+00 0. -1.
         -2   -1    0    0    0  501 -0.00000000000E+00 -0.00000000000E+00 -0.12826024181E+03  0.12826024181E+03  0.00000000000E+00 0.  1.
         23    2    1    2    0    0  0.32708005637E+01  0.12628956920E+02  0.17409085943E+02  0.12687967285E+03  0.12500074568E+03 0.  0.
          5    1    3    3  502    0 -0.17660235704E+02  0.39669653061E+02 -0.40434873252E+02  0.59520032544E+02  0.47000000000E+01 0. -1.
         -5    1    3    3    0  502  0.20931036268E+02 -0.27040696141E+02  0.57843959195E+02  0.67359640308E+02  0.47000000000E+01 0. -1.
        -11    1    1    2    0    0  0.15831814561E+02 -0.47399021266E+02 -0.31855494422E+02  0.59262855940E+02  0.00000000000E+00 0.  1.
         11    1    1    2    0    0 -0.19102615125E+02  0.34770064346E+02 -0.13896188279E+02  0.42035358068E+02  0.00000000000E+00 0. -1.
<mgrwt>
<rscale>  0 0.11573479E+03</rscale>
<asrwt>0</asrwt>
<pdfrwt beam="1">  1        2 0.15371946E-01 0.12567965E+03</pdfrwt>
<pdfrwt beam="2">  1       -2 0.19732345E-01 0.12567965E+03</pdfrwt>
<totfact> 0.76451036E+03</totfact>
</mgrwt>
</event>
<event>
 7    1  0.7800420E-006  0.1310160E+03  0.7546771E-02  0.1237835E+00
         -1   -1    0    0    0  501 -0.00000000000E+00  0.00000000000E+00  0.10473089908E+03  0.10473089908E+03  0.00000000000E+00 0.  1.
          1   -1    0    0  501    0  0.00000000000E+00 -0.00000000000E+00 -0.13310446397E+03  0.13310446397E+03  0.00000000000E+00 0. -1.
         23    2    1    2    0    0  0.19972564682E+02  0.33768738213E+02  0.13418169596E+01  0.13102283214E+03  0.12500380414E+03 0.  0.
          5    1    3    3  502    0  0.10136418778E+02 -0.47604925240E+02 -0.51417634264E+00  0.48901229739E+02  0.47000000000E+01 0. -1.
         -5    1    3    3    0  502  0.98361459047E+01  0.81373663452E+02  0.18559933022E+01  0.82121602402E+02  0.47000000000E+01 0. -1.
        -11    1    1    2    0    0 -0.19444609421E+02  0.29187773292E+02  0.41623572387E+01  0.35317759882E+02  0.00000000000E+00 0. -1.
         11    1    1    2    0    0 -0.52795526128E+00 -0.62956511505E+02 -0.33877739095E+02  0.71494771024E+02  0.00000000000E+00 0.  1.
<mgrwt>
<rscale>  0 0.12324679E+03</rscale>
<asrwt>0</asrwt>
<pdfrwt beam="2">  1        1 0.20477610E-01 0.13101596E+03</pdfrwt>
<pdfrwt beam="1">  1       -1 0.16112446E-01 0.13101596E+03</pdfrwt>
<totfact> 0.67149074E+03</totfact>
</mgrwt>
</event>
<event>
 7    1  0.7800420E-006  0.2501743E+03  0.7546771E-02  0.1115699E+00
          3   -1    0    0  501    0  0.00000000000E+00  0.00000000000E+00  0.87071537737E+03  0.87071537737E+03  0.00000000000E+00 0. -1.
         -3   -1    0    0    0  501 -0.00000000000E+00 -0.00000000000E+00 -0.68322696128E+02  0.68322696128E+02  0.00000000000E+00 0.  1.
         23    2    1    2    0    0  0.17145387443E+03 -0.13254252307E+03  0.46393798531E+03  0.52709168052E+03  0.12499293572E+03 0.  0.
          5    1    3    3  502    0  0.27209157984E+02 -0.12409754688E+02  0.20505645073E+03  0.20727898657E+03  0.47000000000E+01 0. -1.
         -5    1    3    3    0  502  0.14424471644E+03 -0.12013276838E+03  0.25888153458E+03  0.31981269394E+03  0.47000000000E+01 0. -1.
        -11    1    1    2    0    0 -0.80627890466E+02  0.24920539678E+02  0.18686447528E+03  0.20503712381E+03  0.00000000000E+00 0. -1.
         11    1    1    2    0    0 -0.90825983961E+02  0.10762198339E+03  0.15159022065E+03  0.20690926917E+03  0.00000000000E+00 0.  1.
<mgrwt>
<rscale>  0 0.24624845E+03</rscale>
<asrwt>0</asrwt>
<pdfrwt beam="1">  1        3 0.13395620E+00 0.25017431E+03</pdfrwt>
<pdfrwt beam="2">  1       -3 0.10511185E-01 0.25017431E+03</pdfrwt>
<totfact> 0.76749136E+01</totfact>
</mgrwt>
</event>
<event>
 7    1  0.7800420E-006  0.1377593E+03  0.7546771E-02  0.1227953E+00
         -2   -1    0    0    0  501 -0.00000000000E+00  0.00000000000E+00  0.70869848736E+02  0.70869848736E+02  0.00000000000E+00 0.  1.
          2   -1    0    0  501    0  0.00000000000E+00 -0.00000000000E+00 -0.23017121810E+03  0.23017121810E+03  0.00000000000E+00 0. -1.
         23    2    1    2    0    0 -0.42456231279E+02  0.39374190403E+02 -0.12904861812E+03  0.18876223902E+03  0.12499911438E+03 0.  0.
          5    1    3    3  502    0 -0.53437523815E+02 -0.32881027718E+02 -0.74070013948E+02  0.97186356560E+02  0.47000000000E+01 0.  1.
         -5    1    3    3    0  502  0.10981292535E+02  0.72255218120E+02 -0.54978604173E+02  0.91575882459E+02  0.47000000000E+01 0.  1.
        -11    1    1    2    0    0  0.20229664686E+02 -0.11252783692E+00  0.30504077311E+02  0.36602605487E+02  0.00000000000E+00 0.  1.
         11    1    1    2    0    0  0.22226566593E+02 -0.39261662566E+02 -0.60756828551E+02  0.75676222326E+02  0.00000000000E+00 0. -1.
<mgrwt>
<rscale>  0 0.12966527E+03</rscale>
<asrwt>0</asrwt>
<pdfrwt beam="2">  1        2 0.35410956E-01 0.13775934E+03</pdfrwt>
<pdfrwt beam="1">  1       -2 0.10903054E-01 0.13775934E+03</pdfrwt>
<totfact> 0.80033298E+03</totfact>
</mgrwt>
</event>
<event>
 6    1  0.7800420E-006  0.1485085E+03  0.7546771E-02  0.1265923E+00
         -2   -1    0    0    0  501 -0.00000000000E+00  0.00000000000E+00  0.16663017072E+03  0.16663017072E+03  0.00000000000E+00 0. -1.
          2   -1    0    0  501    0  0.00000000000E+00 -0.00000000000E+00 -0.63932143680E+02  0.63932143680E+02  0.00000000000E+00 0.  1.
          5    1    1    2  502    0 -0.58998084851E+02 -0.29101302812E+02  0.25029035400E+02  0.70542203357E+02  0.47000000000E+01 0.  1.
         -5    1    1    2    0  502  0.71705073523E+02  0.38574540925E+02  0.11218900825E+02  0.82325977141E+02  0.47000000000E+01 0. -1.
        -11    1    1    2    0    0 -0.15898222967E+02 -0.19518623905E+02  0.27235555348E+02  0.37087809962E+02  0.00000000000E+00 0. -1.
         11    1    1    2    0    0  0.31912342946E+01  0.10045385792E+02  0.39214535468E+02  0.40606323941E+02  0.00000000000E+00 0.  1.
<mgrwt>
<rscale>  0 0.10715894E+03</rscale>
<asrwt>0</asrwt>
<pdfrwt beam="2">  1        2 0.98357145E-02 0.14850848E+03</pdfrwt>
<pdfrwt beam="1">  1       -2 0.25635411E-01 0.14850848E+03</pdfrwt>
<totfact> 0.84331706E+03</totfact>
</mgrwt>
</event>
<event>
 7    1  0.7800420E-006  0.1282119E+03  0.7546771E-02  0.1244638E+00
         -1   -1    0    0    0  501 -0.00000000000E+00  0.00000000000E+00  0.24338357543E+02  0.24338357543E+02  0.00000000000E+00 0.  1.
          1   -1    0    0  501    0  0.00000000000E+00 -0.00000000000E+00 -0.54808000497E+03  0.54808000497E+03  0.00000000000E+00 0. -1.
         23    2    1    2    0    0  0.11717657179E+01  0.28539668606E+02 -0.36906036703E+03  0.39069660019E+03  0.12498957226E+03 0.  0.
          5    1    3    3  502    0  0.74760217074E+01 -0.10299044038E+02  0.50629736172E+01  0.14480501045E+02  0.47000000000E+01 0. -1.
         -5    1    3    3    0  502 -0.63042559895E+01  0.38838712644E+02 -0.37412334064E+03  0.37621609915E+03  0.47000000000E+01 0. -1.
        -11    1    1    2    0    0 -0.18160930054E+02 -0.55888340971E+02 -0.12413012294E+03  0.13733758938E+03  0.00000000000E+00 0.  1.
         11    1    1    2    0    0  0.16989164336E+02  0.27348672365E+02 -0.30551157461E+02  0.44384172936E+02  0.00000000000E+00 0. -1.
<mgrwt>
<rscale>  0 0.11907084E+03</rscale>
<asrwt>0</asrwt>
<pdfrwt beam="2">  1        1 0.84320007E-01 0.12821185E+03</pdfrwt>
<pdfrwt beam="1">  1       -1 0.37443624E-02 0.12821185E+03</pdfrwt>
<totfact> 0.10273638E+04</totfact>
</mgrwt>
</event>
<event>
 7    1  0.7800420E-006  0.1705522E+03  0.7546771E-02  0.1183679E+00
         -2   -1    0    0    0  501 -0.00000000000E+00  0.00000000000E+00  0.37625791213E+02  0.37625791213E+02  0.00000000000E+00 0. -1.
          2   -1    0    0  501    0  0.00000000000E+00 -0.00000000000E+00 -0.68561274456E+03  0.68561274456E+03  0.00000000000E+00 0.  1.
         23    2    1    2    0    0  0.21128909228E+02 -0.11409198144E+03 -0.39581651038E+03  0.43099740491E+03  0.12499856848E+03 0.  0.
          5    1    3    3  502    0 -0.19354604998E+02 -0.34884482475E+02 -0.28960060117E+03  0.29237326493E+03  0.47000000000E+01 0. -1.
         -5    1    3    3    0  502  0.40483514226E+02 -0.79207498963E+02 -0.10621590921E+03  0.13862413998E+03  0.47000000000E+01 0. -1.
        -11    1    1    2    0    0 -0.39492230361E+02  0.22282115691E+02 -0.13406400901E+03  0.14152486514E+03  0.00000000000E+00 0.  1.
         11    1    1    2    0    0  0.18363321133E+02  0.91809865748E+02 -0.11810643396E+03  0.15071626572E+03  0.00000000000E+00 0. -1.
<mgrwt>
<rscale>  0 0.16452703E+03</rscale>
<asrwt>0</asrwt>
<pdfrwt beam="2">  1        2 0.10547888E+00 0.17055220E+03</pdfrwt>
<pdfrwt beam="1">  1       -2 0.57885834E-02 0.17055220E+03</pdfrwt>
<totfact> 0.65652370E+03</totfact>
</mgrwt>
</event>
<event>
 7    1  0.7800420E-006  0.1492653E+03  0.7546771E-02  0.1210221E+00
         -1   -1    0    0    0  501 -0.00000000000E+00  0.00000000000E+00  0.19895534681E+03  0.19895534681E+03  0.00000000000E+00 0.  1.
          1   -1    0    0  501    0  0.00000000000E+00 -0.00000000000E+00 -0.12205050229E+03  0.12205050229E+03  0.00000000000E+00 0. -1.
         23    2    1    2    0    0  0.68368219920E+02 -0.44507698355E+02 -0.36209147427E+02  0.15359439899E+03  0.12499995335E+03 0.  0.
          5    1    3    3  502    0  0.48533700172E+02 -0.60506060264E+02  0.29376300213E+02  0.83075630574E+02  0.47000000000E+01 0.  1.
         -5    1    3    3    0  502  0.19834519748E+02  0.15998361909E+02 -0.65585447640E+02  0.70518768420E+02  0.47000000000E+01 0.  1.
        -11    1    1    2    0    0 -0.68281613482E+02  0.25358908450E+02  0.12514338811E+03  0.14479751574E+03  0.00000000000E+00 0.  1.
         11    1    1    2    0    0 -0.86606438048E-01  0.19148789904E+02 -0.12029396168E+02  0.22613934369E+02  0.00000000000E+00 0. -1.
<mgrwt>
<rscale>  0 0.14233548E+03</rscale>
<asrwt>0</asrwt>
<pdfrwt beam="2">  1        1 0.18777000E-01 0.14926532E+03</pdfrwt>
<pdfrwt beam="1">  1       -1 0.30608515E-01 0.14926532E+03</pdfrwt>
<totfact> 0.26615386E+03</totfact>
</mgrwt>
</event>
<event>
 7    1  0.7800420E-006  0.1463554E+03  0.7546771E-02  0.1214884E+00
         -1   -1    0    0    0  501 -0.00000000000E+00  0.00000000000E+00  0.14791246498E+03  0.14791246498E+03  0.00000000000E+00 0.  1.
          1   -1    0    0  501    0  0.00000000000E+00 -0.00000000000E+00 -0.13338084193E+03  0.13338084193E+03  0.00000000000E+00 0. -1.
         23    2    1    2    0    0  0.52807398066E+01 -0.75951169185E+02 -0.38608826201E+02  0.15136229014E+03  0.12499374026E+03 0.  0.
          5    1    3    3  502    0  0.24587666972E+02 -0.81883292595E+02 -0.72122454889E+02  0.11195162112E+03  0.47000000000E+01 0.  1.
         -5    1    3    3    0  502 -0.19306927166E+02  0.59321234095E+01  0.33513628688E+02  0.39410669019E+02  0.47000000000E+01 0.  1.
        -11    1    1    2    0    0  0.20909484694E+02  0.39565638180E+02  0.69115750348E+02  0.82338528168E+02  0.00000000000E+00 0.  1.
         11    1    1    2    0    0 -0.26190224500E+02  0.36385531006E+02 -0.15975301099E+02  0.47592488600E+02  0.00000000000E+00 0. -1.
<mgrwt>
<rscale>  0 0.13885055E+03</rscale>
<asrwt>0</asrwt>
<pdfrwt beam="2">  1        1 0.20520130E-01 0.14635539E+03</pdfrwt>
<pdfrwt beam="1">  1       -1 0.22755764E-01 0.14635539E+03</pdfrwt>
<totfact> 0.38807093E+03</totfact>
</mgrwt>
</event>
<event>
 7    1  0.7800420E-006  0.1371295E+03  0.7546771E-02  0.1228682E+00
          2   -1    0    0  501    0  0.00000000000E+00  0.00000000000E+00  0.82632186009E+02  0.82632186009E+02  0.00000000000E+00 0.  1.
         -2   -1    0    0    0  501 -0.00000000000E+00 -0.00000000000E+00 -0.18195273705E+03  0.18195273705E+03  0.00000000000E+00 0. -1.
         23    2    1    2    0    0  0.24893994813E+01 -0.56328556453E+02 -0.51361016363E+02  0.14643237890E+03  0.12500153682E+03 0.  0.
          5    1    3    3  502    0 -0.47108587833E+02 -0.41511077884E+02 -0.67206846550E+02  0.92093641789E+02  0.47000000000E+01 0. -1.
         -5    1    3    3    0  502  0.49597987314E+02 -0.14817478568E+02  0.15845830187E+02  0.54338737113E+02  0.47000000000E+01 0. -1.
        -11    1    1    2    0    0 -0.14233703540E+02 -0.81488559052E+01  0.18561745345E+02  0.24769750893E+02  0.00000000000E+00 0.  1.
         11    1    1    2    0    0  0.11744304059E+02  0.64477412358E+02 -0.66521280026E+02  0.93382793267E+02  0.00000000000E+00 0. -1.
<mgrwt>
<rscale>  0 0.12917693E+03</rscale>
<asrwt>0</asrwt>
<pdfrwt beam="1">  1        2 0.12712644E-01 0.13712946E+03</pdfrwt>
<pdfrwt beam="2">  1       -2 0.27992729E-01 0.13712946E+03</pdfrwt>
<totfact> 0.52567491E+03</totfact>
</mgrwt>
</event>
<event>
 7    1  0.7800420E-006  0.1435655E+03  0.7546771E-02  0.1217753E+00
         -1   -1    0    0    0  501 -0.00000000000E+00  0.00000000000E+00  0.28084165130E+02  0.28084165130E+02  0.00000000000E+00 0.  1.
          1   -1    0    0  501    0  0.00000000000E+00 -0.00000000000E+00 -0.63079340007E+03  0.63079340007E+03  0.00000000000E+00 0. -1.
         23    2    1    2    0    0 -0.53006729608E+02  0.46638926402E+02 -0.38898627528E+03  0.41463401543E+03  0.12500456614E+03 0.  0.
          5    1    3    3  502    0 -0.61089518210E+01  0.76481780386E+02 -0.29929886520E+03  0.30901243136E+03  0.47000000000E+01 0. -1.
         -5    1    3    3    0  502 -0.46897777787E+02 -0.29842853984E+02 -0.89687410081E+02  0.10562158407E+03  0.47000000000E+01 0. -1.
        -11    1    1    2    0    0  0.52988626099E+01  0.14318268470E+02  0.16751521866E+01  0.15358935242E+02  0.00000000000E+00 0.  1.
         11    1    1    2    0    0  0.47707866998E+02 -0.60957194872E+02 -0.21539811185E+03  0.22888461453E+03  0.00000000000E+00 0. -1.
<mgrwt>
<rscale>  0 0.13676212E+03</rscale>
<asrwt>0</asrwt>
<pdfrwt beam="2">  1        1 0.97045133E-01 0.14356547E+03</pdfrwt>
<pdfrwt beam="1">  1       -1 0.43206411E-02 0.14356547E+03</pdfrwt>
<totfact> 0.69320018E+03</totfact>
</mgrwt>
</event>
<event>
 7    1  0.7800420E-006  0.1246029E+03  0.7546771E-02  0.1243185E+00
         -2   -1    0    0    0  501 -0.00000000000E+00  0.00000000000E+00  0.12817603565E+03  0.12817603565E+03  0.00000000000E+00 0.  1.
          2   -1    0    0  501    0  0.00000000000E+00 -0.00000000000E+00 -0.10470877538E+03  0.10470877538E+03  0.00000000000E+00 0. -1.
         23    2    1    2    0    0  0.38944878804E+02 -0.41693690899E+02  0.92144326263E+01  0.12494315172E+03  0.11077372409E+03 0.  0.
          5    1    3    3  502    0  0.14453799076E+02 -0.41408428936E+02 -0.46383079339E+02  0.64008205284E+02  0.47000000000E+01 0. -1.
         -5    1    3    3    0  502  0.24491079728E+02 -0.28526196238E+00  0.55597511966E+02  0.60934946438E+02  0.47000000000E+01 0.  1.
        -11    1    1    2    0    0 -0.37147396229E+02  0.63013970703E+02 -0.11944629655E+02  0.74117229630E+02  0.00000000000E+00 0. -1.
         11    1    1    2    0    0 -0.17974825755E+01 -0.21320279805E+02  0.26197457296E+02  0.33824429682E+02  0.00000000000E+00 0.  1.
<mgrwt>
<rscale>  0 0.11994677E+03</rscale>
<asrwt>0</asrwt>
<pdfrwt beam="2">  1        2 0.16109042E-01 0.12460291E+03</pdfrwt>
<pdfrwt beam="1">  1       -2 0.19719390E-01 0.12460291E+03</pdfrwt>
<totfact> 0.72435750E+03</totfact>
</mgrwt>
</event>
<event>
 7    1  0.7800420E-006  0.2358583E+03  0.7546771E-02  0.1125389E+00
         -1   -1    0    0    0  501 -0.00000000000E+00  0.00000000000E+00  0.23481323743E+03  0.23481323743E+03  0.00000000000E+00 0.  1.
          1   -1    0    0  501    0  0.00000000000E+00 -0.00000000000E+00 -0.23286287891E+03  0.23286287891E+03  0.00000000000E+00 0. -1.
         23    2    1    2    0    0 -0.14279033142E+03 -0.14005712122E+03 -0.51218892615E+02  0.24135561307E+03  0.12499632413E+03 0.  0.
          5    1    3    3  502    0 -0.12833165621E+03 -0.13709218622E+03 -0.83487721161E+02  0.20556159927E+03  0.47000000000E+01 0. -1.
         -5    1    3    3    0  502 -0.14458675208E+02 -0.29649350047E+01  0.32268828546E+02  0.35794013802E+02  0.47000000000E+01 0. -1.
        -11    1    1    2    0    0  0.99751823439E+02  0.35869149065E+02  0.13716033444E+02  0.10688850129E+03  0.00000000000E+00 0. -1.
         11    1    1    2    0    0  0.43038507982E+02  0.10418797216E+03  0.39453217692E+02  0.11943200198E+03  0.00000000000E+00 0.  1.
<mgrwt>
<rscale>  0 0.23178609E+03</rscale>
<asrwt>0</asrwt>
<pdfrwt beam="2">  1        1 0.35825058E-01 0.23585834E+03</pdfrwt>
<pdfrwt beam="1">  1       -1 0.36125114E-01 0.23585834E+03</pdfrwt>
<totfact> 0.89462423E+02</totfact>
</mgrwt>
</event>
<event>
 7    1  0.7800420E-006  0.1333133E+03  0.7546771E-02  0.1235266E+00
          1   -1    0    0  501    0  0.00000000000E+00  0.00000000000E+00  0.16867855939E+03  0.16867855939E+03  0.00000000000E+00 0. -1.
         -1   -1    0    0    0  501 -0.00000000000E+00 -0.00000000000E+00 -0.10355899982E+03  0.10355899982E+03  0.00000000000E+00 0.  1.
         23    2    1    2    0    0  0.46295402546E+02  0.17558026710E+01  0.96889823931E+02  0.16480313879E+03  0.12500435766E+03 0.  0.
          5    1    3    3  502    0  0.13903949242E+02 -0.12555939320E+02 -0.28497545995E+02  0.34426320518E+02  0.47000000000E+01 0. -1.
         -5    1    3    3    0  502  0.32391453305E+02  0.14311741991E+02  0.12538736993E+03  0.13037681827E+03  0.47000000000E+01 0. -1.
        -11    1    1    2    0    0  0.22016867349E+02 -0.10473762770E+02 -0.29849483464E+02  0.38541326099E+02  0.00000000000E+00 0.  1.
         11    1    1    2    0    0 -0.68312269895E+02  0.87179600995E+01 -0.19207808950E+01  0.68893094325E+02  0.00000000000E+00 0. -1.
<mgrwt>
<rscale>  0 0.12487432E+03</rscale>
<asrwt>0</asrwt>
<pdfrwt beam="1">  1        1 0.25950548E-01 0.13331330E+03</pdfrwt>
<pdfrwt beam="2">  1       -1 0.15932154E-01 0.13331330E+03</pdfrwt>
<totfact> 0.50775292E+03</totfact>
</mgrwt>
</event>
<event>
 7    1  0.7800420E-006  0.2277840E+03  0.7546771E-02  0.1131340E+00
          2   -1    0    0  501    0  0.00000000000E+00  0.00000000000E+00  0.57372547732E+03  0.57372547732E+03  0.00000000000E+00 0. -1.
         -2   -1    0    0    0  501 -0.00000000000E+00 -0.00000000000E+00 -0.84878927175E+02  0.84878927175E+02  0.00000000000E+00 0.  1.
         23    2    1    2    0    0  0.18837444217E+03  0.27846184111E+02  0.28968892349E+03  0.36851759481E+03  0.12500081942E+03 0.  0.
          5    1    3    3  502    0  0.14150555071E+03 -0.87431243567E+01  0.11095036082E+03  0.18008979891E+03  0.47000000000E+01 0. -1.
         -5    1    3    3    0  502  0.46868891459E+02  0.36589308468E+02  0.17873856268E+03  0.18842779590E+03  0.47000000000E+01 0. -1.
        -11    1    1    2    0    0 -0.12009814999E+03 -0.40139232012E+02  0.17626174726E+03  0.21703208777E+03  0.00000000000E+00 0.  1.
         11    1    1    2    0    0 -0.68276292182E+02  0.12293047901E+02  0.22895879394E+02  0.73054721915E+02  0.00000000000E+00 0. -1.
<mgrwt>
<rscale>  0 0.22344521E+03</rscale>
<asrwt>0</asrwt>
<pdfrwt beam="1">  1        2 0.88265456E-01 0.22778399E+03</pdfrwt>
<pdfrwt beam="2">  1       -2 0.13058297E-01 0.22778399E+03</pdfrwt>
<totfact> 0.22763263E+03</totfact>
</mgrwt>
</event>
<event>
 7    1  0.7800420E-006  0.1963327E+03  0.7546771E-02  0.1157642E+00
          1   -1    0    0  501    0  0.00000000000E+00  0.00000000000E+00  0.17918297600E+03  0.17918297600E+03  0.00000000000E+00 0. -1.
         -1   -1    0    0    0  501 -0.00000000000E+00 -0.00000000000E+00 -0.23017515551E+03  0.23017515551E+03  0.00000000000E+00 0.  1.
         23    2    1    2    0    0 -0.10384762128E+03 -0.11016505637E+03  0.55531046187E+02  0.20403486590E+03  0.12500344524E+03 0.  0.
          5    1    3    3  502    0 -0.17191402124E+02 -0.96612385014E+02  0.61654079975E+02  0.11598626135E+03  0.47000000000E+01 0.  1.
         -5    1    3    3    0  502 -0.86656219160E+02 -0.13552671357E+02 -0.61230337876E+01  0.88048604548E+02  0.47000000000E+01 0.  1.
        -11    1    1    2    0    0  0.19042552480E+02  0.84087917652E+02 -0.60899232776E+02  0.10555620897E+03  0.00000000000E+00 0.  1.
         11    1    1    2    0    0  0.84805068805E+02  0.26077138720E+02 -0.45623992929E+02  0.99767056635E+02  0.00000000000E+00 0. -1.
<mgrwt>
<rscale>  0 0.19091134E+03</rscale>
<asrwt>0</asrwt>
<pdfrwt beam="1">  1        1 0.27566612E-01 0.19633270E+03</pdfrwt>
<pdfrwt beam="2">  1       -1 0.35411562E-01 0.19633270E+03</pdfrwt>
<totfact> 0.12848953E+03</totfact>
</mgrwt>
</event>
<event>
 7    1  0.7800420E-006  0.1270580E+03  0.7546771E-02  0.1246494E+00
          1   -1    0    0  501    0  0.00000000000E+00  0.00000000000E+00  0.36933689644E+03  0.36933689644E+03  0.00000000000E+00 0. -1.
         -1   -1    0    0    0  501 -0.00000000000E+00 -0.00000000000E+00 -0.96038578787E+02  0.96038578787E+02  0.00000000000E+00 0.  1.
         23    2    1    2    0    0  0.18898854701E+02 -0.17001934949E+02  0.33112709676E+03  0.35466730664E+03  0.12448900228E+03 0.  0.
          5    1    3    3  502    0  0.13511879082E+02  0.53621493722E+02  0.12872489031E+03  0.14017853919E+03  0.47000000000E+01 0.  1.
         -5    1    3    3    0  502  0.53869756194E+01 -0.70623428671E+02  0.20240220645E+03  0.21448876745E+03  0.47000000000E+01 0.  1.
        -11    1    1    2    0    0  0.28066499559E+02  0.28419658301E+02 -0.69701100218E+01  0.40546119532E+02  0.00000000000E+00 0. -1.
         11    1    1    2    0    0 -0.46965354260E+02 -0.11417723352E+02 -0.50858669083E+02  0.70162049059E+02  0.00000000000E+00 0.  1.
<mgrwt>
<rscale>  0 0.11796395E+03</rscale>
<asrwt>0</asrwt>
<pdfrwt beam="1">  1        1 0.56821061E-01 0.12705803E+03</pdfrwt>
<pdfrwt beam="2">  1       -1 0.14775166E-01 0.12705803E+03</pdfrwt>
<totfact> 0.21575938E+03</totfact>
</mgrwt>
</event>
<event>
 7    1  0.7800420E-006  0.1549425E+03  0.7546771E-02  0.1202014E+00
          1   -1    0    0  501    0  0.00000000000E+00  0.00000000000E+00  0.13075480280E+04  0.13075480280E+04  0.00000000000E+00 0. -1.
         -1   -1    0    0    0  501 -0.00000000000E+00 -0.00000000000E+00 -0.20013671148E+02  0.20013671148E+02  0.00000000000E+00 0.  1.
         23    2    1    2    0    0 -0.25393811750E+02  0.87955663716E+02  0.99215743516E+03  0.10041830335E+04  0.12500457651E+03 0.  0.
          5    1    3    3  502    0 -0.69273335461E+02  0.76769261167E+02  0.54732502989E+03  0.55702701264E+03  0.47000000000E+01 0. -1.
         -5    1    3    3    0  502  0.43879523710E+02  0.11186402549E+02  0.44483240526E+03  0.44715602084E+03  0.47000000000E+01 0. -1.
        -11    1    1    2    0    0 -0.14489494640E+02 -0.89822866201E+02  0.18911585706E+03  0.20986400392E+03  0.00000000000E+00 0.  1.
         11    1    1    2    0    0  0.39883306391E+02  0.18672024844E+01  0.10626106459E+03  0.11351466170E+03  0.00000000000E+00 0. -1.
<mgrwt>
<rscale>  0 0.14875310E+03</rscale>
<asrwt>0</asrwt>
<pdfrwt beam="1">  1        1 0.20116117E+00 0.15494253E+03</pdfrwt>
<pdfrwt beam="2">  1       -1 0.30790274E-02 0.15494253E+03</pdfrwt>
<totfact> 0.34661925E+03</totfact>
</mgrwt>
</event>
<event>
 7    1  0.7800420E-006  0.1304826E+03  0.7546771E-02  0.1240894E+00
          1   -1    0    0  501    0  0.00000000000E+00  0.00000000000E+00  0.78654847789E+03  0.78654847789E+03  0.00000000000E+00 0. -1.
         -1   -1    0    0    0  501 -0.00000000000E+00 -0.00000000000E+00 -0.20806249764E+02  0.20806249764E+02  0.00000000000E+00 0.  1.
         23    2    1    2    0    0  0.32692519654E+02 -0.18185004832E+02  0.60814126518E+03  0.62198192510E+03  0.12500488590E+03 0.  0.
          5    1    3    3  502    0 -0.48077914598E+01 -0.62242831995E+02  0.43224390504E+03  0.43675412813E+03  0.47000000000E+01 0.  1.
         -5    1    3    3    0  502  0.37500311114E+02  0.44057827163E+02  0.17589736014E+03  0.18522779697E+03  0.47000000000E+01 0.  1.
        -11    1    1    2    0    0 -0.30314925431E+02  0.43024038430E+02  0.42644298990E+02  0.67739197095E+02  0.00000000000E+00 0.  1.
         11    1    1    2    0    0 -0.23775942235E+01 -0.24839033598E+02  0.11495666395E+03  0.11763360545E+03  0.00000000000E+00 0. -1.
<mgrwt>
<rscale>  0 0.12134523E+03</rscale>
<asrwt>0</asrwt>
<pdfrwt beam="1">  1        1 0.12100744E+00 0.13048263E+03</pdfrwt>
<pdfrwt beam="2">  1       -1 0.32009621E-02 0.13048263E+03</pdfrwt>
<totfact> 0.77967091E+03</totfact>
</mgrwt>
</event>
<event>
 7    1  0.7800420E-006  0.2013227E+03  0.7546771E-02  0.1152954E+00
          1   -1    0    0  501    0  0.00000000000E+00  0.00000000000E+00  0.49321708913E+03  0.49321708913E+03  0.00000000000E+00 0. -1.
         -1   -1    0    0    0  501 -0.00000000000E+00 -0.00000000000E+00 -0.76581659321E+02  0.76581659321E+02  0.00000000000E+00 0.  1.
         23    2    1    2    0    0  0.78748773243E+02 -0.13676736352E+03  0.26695793140E+03  0.33436112637E+03  0.12499657868E+03 0.  0.
          5    1    3    3  502    0  0.15686285491E+02  0.13821966746E+01  0.12613457700E+03  0.12720059566E+03  0.47000000000E+01 0. -1.
         -5    1    3    3    0  502  0.63062487753E+02 -0.13814956019E+03  0.14082335440E+03  0.20716053072E+03  0.47000000000E+01 0. -1.
        -11    1    1    2    0    0 -0.83851303104E+02  0.58806903520E+02  0.71445820635E+02  0.12487513051E+03  0.00000000000E+00 0.  1.
         11    1    1    2    0    0  0.51025298606E+01  0.77960459998E+02  0.78231677774E+02  0.11056249157E+03  0.00000000000E+00 0. -1.
<mgrwt>
<rscale>  0 0.19623616E+03</rscale>
<asrwt>0</asrwt>
<pdfrwt beam="1">  1        1 0.75879550E-01 0.20132269E+03</pdfrwt>
<pdfrwt beam="2">  1       -1 0.11781794E-01 0.20132269E+03</pdfrwt>
<totfact> 0.21499123E+03</totfact>
</mgrwt>
</event>
<event>
 7    1  0.7800420E-006  0.1307688E+03  0.7546771E-02  0.1239149E+00
         -2   -1    0    0    0  501 -0.00000000000E+00  0.00000000000E+00  0.26547377702E+02  0.26547377702E+02  0.00000000000E+00 0.  1.
          2   -1    0    0  501    0  0.00000000000E+00 -0.00000000000E+00 -0.53294179449E+03  0.53294179449E+03  0.00000000000E+00 0. -1.
         23    2    1    2    0    0  0.32076850483E+02  0.21003050837E+02 -0.34979419729E+03  0.37343871260E+03  0.12502175462E+03 0.  0.
          5    1    3    3  502    0  0.21358067741E+01  0.59990481588E+02 -0.28855222870E+03  0.29476753254E+03  0.47000000000E+01 0. -1.
         -5    1    3    3    0  502  0.29941043709E+02 -0.38987430750E+02 -0.61241968585E+02  0.78671180054E+02  0.47000000000E+01 0. -1.
        -11    1    1    2    0    0 -0.50415340224E+01  0.19937623266E+02  0.13956146733E+01  0.20612462908E+02  0.00000000000E+00 0.  1.
         11    1    1    2    0    0 -0.27035316460E+02 -0.40940674104E+02 -0.15799583418E+03  0.16543799669E+03  0.00000000000E+00 0. -1.
<mgrwt>
<rscale>  0 0.12242519E+03</rscale>
<asrwt>0</asrwt>
<pdfrwt beam="2">  1        2 0.81991045E-01 0.13076885E+03</pdfrwt>
<pdfrwt beam="1">  1       -2 0.40842120E-02 0.13076885E+03</pdfrwt>
<totfact> 0.14555968E+04</totfact>
</mgrwt>
</event>
<event>
 7    1  0.7800420E-006  0.1318120E+03  0.7546771E-02  0.1238427E+00
          2   -1    0    0  501    0  0.00000000000E+00  0.00000000000E+00  0.34435339702E+03  0.34435339702E+03  0.00000000000E+00 0. -1.
         -2   -1    0    0    0  501 -0.00000000000E+00 -0.00000000000E+00 -0.39658224119E+02  0.39658224119E+02  0.00000000000E+00 0.  1.
         23    2    1    2    0    0 -0.11408178490E+02 -0.40239286030E+02  0.20018055958E+03  0.23968034811E+03  0.12500026463E+03 0.  0.
          5    1    3    3  502    0 -0.63621421177E+02 -0.33900576150E+02  0.15157157834E+03  0.16790761643E+03  0.47000000000E+01 0. -1.
         -5    1    3    3    0  502  0.52213242686E+02 -0.63387098799E+01  0.48608981246E+02  0.71772731678E+02  0.47000000000E+01 0. -1.
        -11    1    1    2    0    0 -0.25746273003E+02 -0.98681111983E+01  0.64695533307E+02  0.70326113372E+02  0.00000000000E+00 0. -1.
         11    1    1    2    0    0  0.37154451493E+02  0.50107397228E+02  0.39819080007E+02  0.74005159653E+02  0.00000000000E+00 0.  1.
<mgrwt>
<rscale>  0 0.12287562E+03</rscale>
<asrwt>0</asrwt>
<pdfrwt beam="1">  1        2 0.52977444E-01 0.13181204E+03</pdfrwt>
<pdfrwt beam="2">  1       -2 0.61012655E-02 0.13181204E+03</pdfrwt>
<totfact> 0.12770778E+04</totfact>
</mgrwt>
</event>
<event>
 7    1  0.7800420E-006  0.2502806E+03  0.7546771E-02  0.1115516E+00
          2   -1    0    0  501    0  0.00000000000E+00  0.00000000000E+00  0.38185359565E+04  0.38185359565E+04  0.00000000000E+00 0. -1.
         -2   -1    0    0    0  501 -0.00000000000E+00 -0.00000000000E+00 -0.31364234065E+02  0.31364234065E+02  0.00000000000E+00 0.  1.
         23    2    1    2    0    0 -0.11692348726E+03 -0.18260541059E+03  0.32922788844E+04  0.33017784078E+04  0.12499825393E+03 0.  0.
          5    1    3    3  502    0 -0.73035226865E+02 -0.16621100788E+03  0.30201958930E+04  0.30256512631E+04  0.47000000000E+01 0.  1.
         -5    1    3    3    0  502 -0.43888260391E+02 -0.16394402708E+02  0.27208299137E+03  0.27612714469E+03  0.47000000000E+01 0.  1.
        -11    1    1    2    0    0  0.50339658013E+02  0.24645750572E+02  0.68156086623E+02  0.88242542654E+02  0.00000000000E+00 0.  1.
         11    1    1    2    0    0  0.66583829243E+02  0.15795966002E+03  0.42673675141E+03  0.45987924014E+03  0.00000000000E+00 0. -1.
<mgrwt>
<rscale>  0 0.24653310E+03</rscale>
<asrwt>0</asrwt>
<pdfrwt beam="1">  1        2 0.58746670E+00 0.25028065E+03</pdfrwt>
<pdfrwt beam="2">  1       -2 0.48252698E-02 0.25028065E+03</pdfrwt>
<totfact> 0.12739392E+02</totfact>
</mgrwt>
</event>
<event>
 6    1  0.7800420E-006  0.2098556E+03  0.7546771E-02  0.1172998E+00
         -2   -1    0    0    0  501 -0.00000000000E+00  0.00000000000E+00  0.73090559847E+03  0.73090559847E+03  0.00000000000E+00 0.  1.
          2   -1    0    0  501    0  0.00000000000E+00 -0.00000000000E+00 -0.34441652357E+02  0.34441652357E+02  0.00000000000E+00 0. -1.
          5    1    1    2  502    0 -0.73003566637E+02  0.12507268362E+02  0.61782222723E+02  0.96566482530E+02  0.47000000000E+01 0. -1.
         -5    1    1    2    0  502  0.10931690453E+03  0.10860889585E+02  0.33064778951E+03  0.34845113753E+03  0.47000000000E+01 0.  1.
        -11    1    1    2    0    0  0.20605962685E+02  0.20436694412E+02  0.84445608533E+02  0.89293476678E+02  0.00000000000E+00 0.  1.
         11    1    1    2    0    0 -0.56919300576E+02 -0.43804852358E+02  0.21958832535E+03  0.23103615409E+03  0.00000000000E+00 0. -1.
<mgrwt>
<rscale>  0 0.17473472E+03</rscale>
<asrwt>0</asrwt>
<pdfrwt beam="2">  1        2 0.52987163E-02 0.20985559E+03</pdfrwt>
<pdfrwt beam="1">  1       -2 0.11244700E+00 0.20985559E+03</pdfrwt>
<totfact> 0.93603115E+02</totfact>
</mgrwt>
</event>
<event>
 7    1  0.7800420E-006  0.1279188E+03  0.7546771E-02  0.1245093E+00
         -1   -1    0    0    0  501 -0.00000000000E+00  0.00000000000E+00  0.20247452514E+02  0.20247452514E+02  0.00000000000E+00 0.  1.
          1   -1    0    0  501    0  0.00000000000E+00 -0.00000000000E+00 -0.72963809469E+03  0.72963809469E+03  0.00000000000E+00 0. -1.
         23    2    1    2    0    0 -0.77460114459E+01  0.26059598368E+02 -0.54619880891E+03  0.56097803264E+03  0.12499644349E+03 0.  0.
          5    1    3    3  502    0  0.17403101631E+02 -0.21865900468E+02 -0.27655945768E+02  0.39597056532E+02  0.47000000000E+01 0. -1.
         -5    1    3    3    0  502 -0.25149113077E+02  0.47925498836E+02 -0.51854286314E+03  0.52138097610E+03  0.47000000000E+01 0. -1.
        -11    1    1    2    0    0  0.46538459054E+02  0.30551875302E+01 -0.81590339458E+02  0.93979496886E+02  0.00000000000E+00 0.  1.
         11    1    1    2    0    0 -0.38792447608E+02 -0.29114785898E+02 -0.81601493809E+02  0.94928017683E+02  0.00000000000E+00 0. -1.
<mgrwt>
<rscale>  0 0.11879787E+03</rscale>
<asrwt>0</asrwt>
<pdfrwt beam="2">  1        1 0.11225202E+00 0.12791878E+03</pdfrwt>
<pdfrwt beam="1">  1       -1 0.31149926E-02 0.12791878E+03</pdfrwt>
<totfact> 0.90479230E+03</totfact>
</mgrwt>
</event>
<event>
 7    1  0.7800420E-006  0.1339769E+03  0.7546771E-02  0.1231235E+00
         -2   -1    0    0    0  501 -0.00000000000E+00  0.00000000000E+00  0.56291270802E+03  0.56291270802E+03  0.00000000000E+00 0.  1.
          2   -1    0    0  501    0  0.00000000000E+00 -0.00000000000E+00 -0.26754410008E+02  0.26754410008E+02  0.00000000000E+00 0. -1.
         23    2    1    2    0    0 -0.44238100170E+02  0.19181575197E+02  0.26055288649E+03  0.29298055133E+03  0.12499941785E+03 0.  0.
          5    1    3    3  502    0 -0.65580265334E+02 -0.22107038130E+02  0.22144978765E+03  0.23205945528E+03  0.47000000000E+01 0.  1.
         -5    1    3    3    0  502  0.21342165164E+02  0.41288613327E+02  0.39103098845E+02  0.60921096047E+02  0.47000000000E+01 0.  1.
        -11    1    1    2    0    0 -0.49303392439E+01 -0.50085628020E+02  0.15206971300E+03  0.16018138466E+03  0.00000000000E+00 0. -1.
         11    1    1    2    0    0  0.49168439414E+02  0.30904052823E+02  0.12353569851E+03  0.13650518204E+03  0.00000000000E+00 0.  1.
<mgrwt>
<rscale>  0 0.12748566E+03</rscale>
<asrwt>0</asrwt>
<pdfrwt beam="2">  1        2 0.41160635E-02 0.13397685E+03</pdfrwt>
<pdfrwt beam="1">  1       -2 0.86601946E-01 0.13397685E+03</pdfrwt>
<totfact> 0.23289377E+03</totfact>
</mgrwt>
</event>
<event>
 7    1  0.7800420E-006  0.1325882E+03  0.7546771E-02  0.1236635E+00
         -2   -1    0    0    0  501 -0.00000000000E+00  0.00000000000E+00  0.92249468106E+02  0.92249468106E+02  0.00000000000E+00 0.  1.
          2   -1    0    0  501    0  0.00000000000E+00 -0.00000000000E+00 -0.14851008192E+03  0.14851008192E+03  0.00000000000E+00 0. -1.
         23    2    1    2    0    0 -0.44159288317E+02 -0.21524992888E+01 -0.34649928277E+02  0.13704103436E+03  0.12499980629E+03 0.  0.
          5    1    3    3  502    0 -0.73023860955E+02 -0.30192226385E+02  0.63333898678E+01  0.79411942616E+02  0.47000000000E+01 0.  1.
         -5    1    3    3    0  502  0.28864572639E+02  0.28039727096E+02 -0.40983318145E+02  0.57629091745E+02  0.47000000000E+01 0.  1.
        -11    1    1    2    0    0  0.46639909848E+02  0.32215284555E+02  0.12641845966E+02  0.58076863027E+02  0.00000000000E+00 0.  1.
         11    1    1    2    0    0 -0.24806215313E+01 -0.30062785266E+02 -0.34252531505E+02  0.45641652639E+02  0.00000000000E+00 0. -1.
<mgrwt>
<rscale>  0 0.12400330E+03</rscale>
<asrwt>0</asrwt>
<pdfrwt beam="2">  1        2 0.22847705E-01 0.13258819E+03</pdfrwt>
<pdfrwt beam="1">  1       -2 0.14192226E-01 0.13258819E+03</pdfrwt>
<totfact> 0.84318343E+03</totfact>
</mgrwt>
</event>
<event>
 7    1  0.7800420E-006  0.1304494E+03  0.7546771E-02  0.1240568E+00
          2   -1    0    0  501    0  0.00000000000E+00  0.00000000000E+00  0.16505719639E+04  0.16505719639E+04  0.00000000000E+00 0. -1.
         -2   -1    0    0    0  501 -0.00000000000E+00 -0.00000000000E+00 -0.11556937907E+02  0.11556937907E+02  0.00000000000E+00 0.  1.
         23    2    1    2    0    0 -0.27922248087E+02 -0.24697919055E+02  0.13610594532E+04  0.13672965640E+04  0.12500967850E+03 0.  0.
          5    1    3    3  502    0 -0.59949536600E+02 -0.58020948661E+02  0.92670056681E+03  0.93046032046E+03  0.47000000000E+01 0. -1.
         -5    1    3    3    0  502  0.32027288513E+02  0.33323029606E+02  0.43435888637E+03  0.43683624355E+03  0.47000000000E+01 0. -1.
        -11    1    1    2    0    0 -0.16147214662E+02 -0.10704368925E+02  0.11677830921E+02  0.22620517025E+02  0.00000000000E+00 0.  1.
         11    1    1    2    0    0  0.44069462750E+02  0.35402287980E+02  0.26627774187E+03  0.27221182075E+03  0.00000000000E+00 0. -1.
<mgrwt>
<rscale>  0 0.12154639E+03</rscale>
<asrwt>0</asrwt>
<pdfrwt beam="1">  1        2 0.25393396E+00 0.13044945E+03</pdfrwt>
<pdfrwt beam="2">  1       -2 0.17779918E-02 0.13044945E+03</pdfrwt>
<totfact> 0.10175602E+04</totfact>
</mgrwt>
</event>
<event>
 7    1  0.7800420E-006  0.1411905E+03  0.7546771E-02  0.1222145E+00
         -1   -1    0    0    0  501 -0.00000000000E+00  0.00000000000E+00  0.47568404671E+02  0.47568404671E+02  0.00000000000E+00 0.  1.
          1   -1    0    0  501    0  0.00000000000E+00 -0.00000000000E+00 -0.34085463486E+03  0.34085463486E+03  0.00000000000E+00 0. -1.
         23    2    1    2    0    0 -0.64260238551E+02  0.13430463608E+02 -0.16894278274E+03  0.22017364716E+03  0.12500006181E+03 0.  0.
          5    1    3    3  502    0 -0.33090235183E+02  0.13427547854E+02 -0.18238296752E+03  0.18590562000E+03  0.47000000000E+01 0.  1.
         -5    1    3    3    0  502 -0.31170003368E+02  0.29157546316E-02  0.13440184783E+02  0.34268027160E+02  0.47000000000E+01 0.  1.
        -11    1    1    2    0    0  0.80897722554E+02  0.74817287994E+01 -0.11310482958E+03  0.13925918373E+03  0.00000000000E+00 0. -1.
         11    1    1    2    0    0 -0.16637484003E+02 -0.20912192408E+02 -0.11238617877E+02  0.28990208641E+02  0.00000000000E+00 0.  1.
<mgrwt>
<rscale>  0 0.13364496E+03</rscale>
<asrwt>0</asrwt>
<pdfrwt beam="2">  1        1 0.52439176E-01 0.14119055E+03</pdfrwt>
<pdfrwt beam="1">  1       -1 0.73182160E-02 0.14119055E+03</pdfrwt>
<totfact> 0.70260958E+03</totfact>
</mgrwt>
</event>
<event>
 7    1  0.7800420E-006  0.1272608E+03  0.7546771E-02  0.1246727E+00
          3   -1    0    0  501    0  0.00000000000E+00  0.00000000000E+00  0.55193083108E+03  0.55193083108E+03  0.00000000000E+00 0. -1.
         -3   -1    0    0    0  501 -0.00000000000E+00 -0.00000000000E+00 -0.22839773950E+02  0.22839773950E+02  0.00000000000E+00 0.  1.
         23    2    1    2    0    0 -0.21607224467E+02  0.10136678153E+02  0.35552404215E+03  0.37761443666E+03  0.12500277531E+03 0.  0.
          5    1    3    3  502    0  0.49586025013E+02  0.10336485069E+02  0.98352441858E+02  0.11072899178E+03  0.47000000000E+01 0.  1.
         -5    1    3    3    0  502 -0.71193249480E+02 -0.19980691563E+00  0.25717160029E+03  0.26688544488E+03  0.47000000000E+01 0.  1.
        -11    1    1    2    0    0 -0.15721484674E+02 -0.11679013364E+02 -0.29561116183E-01  0.19584823394E+02  0.00000000000E+00 0.  1.
         11    1    1    2    0    0  0.37328709141E+02  0.15423352104E+01  0.17359657610E+03  0.17757134498E+03  0.00000000000E+00 0. -1.
<mgrwt>
<rscale>  0 0.11782605E+03</rscale>
<asrwt>0</asrwt>
<pdfrwt beam="1">  1        3 0.84912425E-01 0.12726083E+03</pdfrwt>
<pdfrwt beam="2">  1       -3 0.35138118E-02 0.12726083E+03</pdfrwt>
<totfact> 0.11886249E+03</totfact>
</mgrwt>
</event>
<event>
 7    1  0.7800420E-006  0.1413596E+03  0.7546771E-02  0.1222411E+00
         -2   -1    0    0    0  501 -0.00000000000E+00  0.00000000000E+00  0.82794528440E+01  0.82794528440E+01  0.00000000000E+00 0.  1.
          2   -1    0    0  501    0  0.00000000000E+00 -0.00000000000E+00 -0.27023300287E+04  0.27023300287E+04  0.00000000000E+00 0. -1.
         23    2    1    2    0    0  0.49700606729E+02  0.43441831251E+02 -0.21729491447E+04  0.21775423126E+04  0.12500077801E+03 0.  0.
          5    1    3    3  502    0  0.91499815033E+02  0.35694847702E+02 -0.15735500423E+04  0.15766192197E+04  0.47000000000E+01 0.  1.
         -5    1    3    3    0  502 -0.41799208304E+02  0.77469835488E+01 -0.59939910243E+03  0.60092309288E+03  0.47000000000E+01 0.  1.
        -11    1    1    2    0    0 -0.76358563706E+02 -0.30498996634E+02 -0.40320711852E+03  0.41150552788E+03  0.00000000000E+00 0.  1.
         11    1    1    2    0    0  0.26657956977E+02 -0.12942834617E+02 -0.11789431260E+03  0.12156164108E+03  0.00000000000E+00 0. -1.
<mgrwt>
<rscale>  0 0.13345971E+03</rscale>
<asrwt>0</asrwt>
<pdfrwt beam="2">  1        2 0.41574302E+00 0.14135960E+03</pdfrwt>
<pdfrwt beam="1">  1       -2 0.12737622E-02 0.14135960E+03</pdfrwt>
<totfact> 0.46608374E+03</totfact>
</mgrwt>
</event>
<event>
 7    1  0.7800420E-006  0.1249281E+03  0.7546771E-02  0.1242912E+00
          2   -1    0    0  501    0  0.00000000000E+00  0.00000000000E+00  0.17946353343E+03  0.17946353343E+03  0.00000000000E+00 0. -1.
         -2   -1    0    0    0  501 -0.00000000000E+00 -0.00000000000E+00 -0.37420391593E+03  0.37420391593E+03  0.00000000000E+00 0.  1.
         23    2    1    2    0    0  0.47860076013E+02  0.16139142511E+02  0.14858723762E+03  0.19412677479E+03  0.11426276169E+03 0.  0.
          5    1    3    3  502    0 -0.50063685989E+01 -0.33081871678E+02  0.10343475704E+03  0.10881320197E+03  0.47000000000E+01 0. -1.
         -5    1    3    3    0  502  0.52866444612E+02  0.49221014189E+02  0.45152480585E+02  0.85313572816E+02  0.47000000000E+01 0.  1.
        -11    1    1    2    0    0 -0.60942684871E+02 -0.24141355040E+02 -0.33637486666E+03  0.34270230052E+03  0.00000000000E+00 0.  1.
         11    1    1    2    0    0  0.13082608859E+02  0.80022125288E+01 -0.69527534661E+01  0.16838374050E+02  0.00000000000E+00 0. -1.
<mgrwt>
<rscale>  0 0.12011231E+03</rscale>
<asrwt>0</asrwt>
<pdfrwt beam="1">  1        2 0.27609775E-01 0.12492813E+03</pdfrwt>
<pdfrwt beam="2">  1       -2 0.57569832E-01 0.12492813E+03</pdfrwt>
<totfact> 0.55102131E+02</totfact>
</mgrwt>
</event>
<event>
 7    1  0.7800420E-006  0.1332475E+03  0.7546771E-02  0.1236343E+00
         -1   -1    0    0    0  501 -0.00000000000E+00  0.00000000000E+00  0.41248766169E+02  0.41248766169E+02  0.00000000000E+00 0.  1.
          1   -1    0    0  501    0  0.00000000000E+00 -0.00000000000E+00 -0.34101456550E+03  0.34101456550E+03  0.00000000000E+00 0. -1.
         23    2    1    2    0    0 -0.15187109214E+02  0.43618011384E+02 -0.20225087056E+03  0.24219888124E+03  0.12498681622E+03 0.  0.
          5    1    3    3  502    0  0.54310841262E+02  0.10421104196E+02 -0.95930055561E+02  0.11082839190E+03  0.47000000000E+01 0.  1.
         -5    1    3    3    0  502 -0.69497950476E+02  0.33196907188E+02 -0.10632081500E+03  0.13137048934E+03  0.47000000000E+01 0.  1.
        -11    1    1    2    0    0  0.49674424078E+02 -0.20990050104E+02 -0.32181242864E+02  0.62799386965E+02  0.00000000000E+00 0.  1.
         11    1    1    2    0    0 -0.34487314864E+02 -0.22627961280E+02 -0.65333685902E+02  0.77265063462E+02  0.00000000000E+00 0. -1.
<mgrwt>
<rscale>  0 0.12418871E+03</rscale>
<asrwt>0</asrwt>
<pdfrwt beam="2">  1        1 0.52463782E-01 0.13324745E+03</pdfrwt>
<pdfrwt beam="1">  1       -1 0.63459637E-02 0.13324745E+03</pdfrwt>
<totfact> 0.86601902E+03</totfact>
</mgrwt>
</event>
<event>
 7    1  0.7800420E-006  0.1259430E+03  0.7546771E-02  0.1247992E+00
         -1   -1    0    0    0  501 -0.00000000000E+00  0.00000000000E+00  0.20043937698E+03  0.20043937698E+03  0.00000000000E+00 0.  1.
          1   -1    0    0  501    0  0.00000000000E+00 -0.00000000000E+00 -0.79217160547E+02  0.79217160547E+02  0.00000000000E+00 0. -1.
         23    2    1    2    0    0 -0.12498198450E+02 -0.90696447213E+01 -0.35045948902E+00  0.12594349062E+03  0.12499270614E+03 0.  0.
          5    1    3    3  502    0 -0.11472771421E+02 -0.60854374017E+02  0.26372425796E+02  0.67472025044E+02  0.47000000000E+01 0. -1.
         -5    1    3    3    0  502 -0.10254270294E+01  0.51784729296E+02 -0.26722885285E+02  0.58471465578E+02  0.47000000000E+01 0. -1.
        -11    1    1    2    0    0  0.30555871097E+02 -0.42232836103E+01  0.12695887783E+03  0.13065241691E+03  0.00000000000E+00 0. -1.
         11    1    1    2    0    0 -0.18057672647E+02  0.13292928332E+02 -0.53862019092E+01  0.23060630001E+02  0.00000000000E+00 0.  1.
<mgrwt>
<rscale>  0 0.11708058E+03</rscale>
<asrwt>0</asrwt>
<pdfrwt beam="2">  1        1 0.12187256E-01 0.12594300E+03</pdfrwt>
<pdfrwt beam="1">  1       -1 0.30836827E-01 0.12594300E+03</pdfrwt>
<totfact> 0.45561260E+03</totfact>
</mgrwt>
</event>
<event>
 7    1  0.7800420E-006  0.1626688E+03  0.7546771E-02  0.1195488E+00
         -2   -1    0    0    0  501 -0.00000000000E+00  0.00000000000E+00  0.24914093749E+02  0.24914093749E+02  0.00000000000E+00 0.  1.
          2   -1    0    0  501    0  0.00000000000E+00 -0.00000000000E+00 -0.13419348707E+04  0.13419348707E+04  0.00000000000E+00 0. -1.
         23    2    1    2    0    0  0.68129271041E+02  0.78706500134E+02 -0.11096314344E+04  0.11214914458E+04  0.12499932775E+03 0.  0.
          5    1    3    3  502    0  0.31341479141E+01  0.23560153691E+02 -0.79831845151E+03  0.79868601074E+03  0.47000000000E+01 0.  1.
         -5    1    3    3    0  502  0.64995123127E+02  0.55146346443E+02 -0.31131298291E+03  0.32280543503E+03  0.47000000000E+01 0.  1.
        -11    1    1    2    0    0 -0.36337781202E+02 -0.62637780131E+02 -0.60959670786E+02  0.94657315115E+02  0.00000000000E+00 0.  1.
         11    1    1    2    0    0 -0.31791489839E+02 -0.16068720003E+02 -0.14642967179E+03  0.15070020361E+03  0.00000000000E+00 0. -1.
<mgrwt>
<rscale>  0 0.15413016E+03</rscale>
<asrwt>0</asrwt>
<pdfrwt beam="2">  1        2 0.20645155E+00 0.16266881E+03</pdfrwt>
<pdfrwt beam="1">  1       -2 0.38329369E-02 0.16266881E+03</pdfrwt>
<totfact> 0.48204422E+03</totfact>
</mgrwt>
</event>
<event>
 7    1  0.7800420E-006  0.1331338E+03  0.7546771E-02  0.1235494E+00
          1   -1    0    0  501    0  0.00000000000E+00  0.00000000000E+00  0.14974015626E+03  0.14974015626E+03  0.00000000000E+00 0. -1.
         -1   -1    0    0    0  501 -0.00000000000E+00 -0.00000000000E+00 -0.10902921755E+03  0.10902921755E+03  0.00000000000E+00 0.  1.
         23    2    1    2    0    0 -0.15930336436E+02 -0.42965502122E+02  0.72235479215E+02  0.15146804477E+03  0.12499917654E+03 0.  0.
          5    1    3    3  502    0 -0.51145202536E+02  0.20579030680E+02  0.11169398923E+02  0.56446201984E+02  0.47000000000E+01 0.  1.
         -5    1    3    3    0  502  0.35214866100E+02 -0.63544532802E+02  0.61066080292E+02  0.95021842781E+02  0.47000000000E+01 0.  1.
        -11    1    1    2    0    0 -0.30668777262E+02  0.33955988965E+02  0.68511214877E+01  0.46265764351E+02  0.00000000000E+00 0.  1.
         11    1    1    2    0    0  0.46599113698E+02  0.90095131574E+01 -0.38375661994E+02  0.61035564700E+02  0.00000000000E+00 0. -1.
<mgrwt>
<rscale>  0 0.12472888E+03</rscale>
<asrwt>0</asrwt>
<pdfrwt beam="1">  1        1 0.23036947E-01 0.13313378E+03</pdfrwt>
<pdfrwt beam="2">  1       -1 0.16773726E-01 0.13313378E+03</pdfrwt>
<totfact> 0.54366163E+03</totfact>
</mgrwt>
</event>
<event>
 7    1  0.7800420E-006  0.1500944E+03  0.7546771E-02  0.1208395E+00
         -1   -1    0    0    0  501 -0.00000000000E+00  0.00000000000E+00  0.95558691360E+02  0.95558691360E+02  0.00000000000E+00 0.  1.
          1   -1    0    0  501    0  0.00000000000E+00 -0.00000000000E+00 -0.24145759925E+03  0.24145759925E+03  0.00000000000E+00 0. -1.
         23    2    1    2    0    0 -0.36006800990E+02 -0.74890058647E+02 -0.14799402068E+03  0.21078555713E+03  0.12499324116E+03 0.  0.
          5    1    3    3  502    0  0.28597556544E+02 -0.16536533489E+02  0.59259083077E+01  0.33889283990E+02  0.47000000000E+01 0. -1.
         -5    1    3    3    0  502 -0.64604357534E+02 -0.58353525158E+02 -0.15391992899E+03  0.17689627314E+03  0.47000000000E+01 0. -1.
        -11    1    1    2    0    0  0.57697367338E+01  0.66787239406E+02  0.39222628211E+02  0.77667494960E+02  0.00000000000E+00 0.  1.
         11    1    1    2    0    0  0.30237064256E+02  0.81028192405E+01 -0.37127515426E+02  0.48563238526E+02  0.00000000000E+00 0. -1.
<mgrwt>
<rscale>  0 0.14373073E+03</rscale>
<asrwt>0</asrwt>
<pdfrwt beam="2">  1        1 0.37147322E-01 0.15009437E+03</pdfrwt>
<pdfrwt beam="1">  1       -1 0.14701337E-01 0.15009437E+03</pdfrwt>
<totfact> 0.37105803E+03</totfact>
</mgrwt>
</event>
<event>
 7    1  0.7800420E-006  0.2694773E+03  0.7546771E-02  0.1103615E+00
         -2   -1    0    0    0  501 -0.00000000000E+00  0.00000000000E+00  0.56221178986E+02  0.56221178986E+02  0.00000000000E+00 0.  1.
          2   -1    0    0  501    0  0.00000000000E+00 -0.00000000000E+00 -0.12878721351E+04  0.12878721351E+04  0.00000000000E+00 0. -1.
         23    2    1    2    0    0  0.22936703607E+03 -0.66212629530E+02 -0.77807071592E+03  0.82341486019E+03  0.12499857385E+03 0.  0.
          5    1    3    3  502    0  0.19185620630E+02 -0.15378892989E+02 -0.27082873043E+03  0.27198325245E+03  0.47000000000E+01 0. -1.
         -5    1    3    3    0  502  0.21018141544E+03 -0.50833736541E+02 -0.50724198549E+03  0.55143160774E+03  0.47000000000E+01 0. -1.
        -11    1    1    2    0    0 -0.98234121917E+02  0.69113841989E+02 -0.16910033128E+03  0.20741646005E+03  0.00000000000E+00 0.  1.
         11    1    1    2    0    0 -0.13113291416E+03 -0.29012124586E+01 -0.28447990894E+03  0.31326199386E+03  0.00000000000E+00 0. -1.
<mgrwt>
<rscale>  0 0.26595903E+03</rscale>
<asrwt>0</asrwt>
<pdfrwt beam="2">  1        2 0.19813420E+00 0.26947726E+03</pdfrwt>
<pdfrwt beam="1">  1       -2 0.86494113E-02 0.26947726E+03</pdfrwt>
<totfact> 0.14909124E+03</totfact>
</mgrwt>
</event>
<event>
 7    1  0.7800420E-006  0.1173753E+03  0.7546771E-02  0.1258697E+00
          1   -1    0    0  501    0  0.00000000000E+00  0.00000000000E+00  0.12228842326E+04  0.12228842326E+04  0.00000000000E+00 0. -1.
         -1   -1    0    0    0  501 -0.00000000000E+00 -0.00000000000E+00 -0.92366148951E+02  0.92366148951E+02  0.00000000000E+00 0.  1.
         23    2    1    2    0    0 -0.86429419137E+01 -0.23353149440E+02  0.11953590861E+04  0.12011079485E+04  0.11470348305E+03 0.  0.
          5    1    3    3  502    0 -0.52389991754E+02 -0.44142405818E+02  0.68333352659E+03  0.68677511733E+03  0.47000000000E+01 0. -1.
         -5    1    3    3    0  502  0.43747049840E+02  0.20789256378E+02  0.51202555954E+03  0.51433283112E+03  0.47000000000E+01 0.  1.
        -11    1    1    2    0    0 -0.59443003652E+01 -0.31693942523E+02 -0.70501348196E+01  0.33008258064E+02  0.00000000000E+00 0. -1.
         11    1    1    2    0    0  0.14587242279E+02  0.55047091963E+02 -0.57790867667E+02  0.81134175023E+02  0.00000000000E+00 0.  1.
<mgrwt>
<rscale>  0 0.11101753E+03</rscale>
<asrwt>0</asrwt>
<pdfrwt beam="1">  1        1 0.18813602E+00 0.11737529E+03</pdfrwt>
<pdfrwt beam="2">  1       -1 0.14210178E-01 0.11737529E+03</pdfrwt>
<totfact> 0.39922441E+02</totfact>
</mgrwt>
</event>
<event>
 7    1  0.7800420E-006  0.1339943E+03  0.7546771E-02  0.1235747E+00
          1   -1    0    0  501    0  0.00000000000E+00  0.00000000000E+00  0.38219625779E+03  0.38219625779E+03  0.00000000000E+00 0.  1.
         -1   -1    0    0    0  501 -0.00000000000E+00 -0.00000000000E+00 -0.39561141567E+02  0.39561141567E+02  0.00000000000E+00 0. -1.
         23    2    1    2    0    0 -0.36042846361E+02 -0.32091475739E+02  0.25785674243E+03  0.29059349655E+03  0.12500212410E+03 0.  0.
          5    1    3    3  502    0 -0.18268473832E+02  0.35702177589E+02  0.25277311568E+02  0.47638378445E+02  0.47000000000E+01 0.  1.
         -5    1    3    3    0  502 -0.17774372529E+02 -0.67793653328E+02  0.23257943086E+03  0.24295511810E+03  0.47000000000E+01 0.  1.
        -11    1    1    2    0    0  0.61491985159E+02  0.39775058720E+02  0.66311083410E+02  0.98795138130E+02  0.00000000000E+00 0.  1.
         11    1    1    2    0    0 -0.25449138799E+02 -0.76835829811E+01  0.18467290384E+02  0.32368764684E+02  0.00000000000E+00 0. -1.
<mgrwt>
<rscale>  0 0.12456753E+03</rscale>
<asrwt>0</asrwt>
<pdfrwt beam="1">  1        1 0.58799422E-01 0.13399433E+03</pdfrwt>
<pdfrwt beam="2">  1       -1 0.60863297E-02 0.13399433E+03</pdfrwt>
<totfact> 0.79961462E+03</totfact>
</mgrwt>
</event>
<event>
 7    1  0.7800420E-006  0.2135391E+03  0.7546771E-02  0.1141826E+00
         -2   -1    0    0    0  501 -0.00000000000E+00  0.00000000000E+00  0.87643591120E+02  0.87643591120E+02  0.00000000000E+00 0.  1.
          2   -1    0    0  501    0  0.00000000000E+00 -0.00000000000E+00 -0.48592335923E+03  0.48592335923E+03  0.00000000000E+00 0. -1.
         23    2    1    2    0    0 -0.31558767835E+02 -0.17023508042E+03 -0.22323917863E+03  0.30892502630E+03  0.12499201001E+03 0.  0.
          5    1    3    3  502    0  0.79662308777E+01  0.18464281946E+02 -0.19945984352E+02  0.28711022865E+02  0.47000000000E+01 0.  1.
         -5    1    3    3    0  502 -0.39524998712E+02 -0.18869936237E+03 -0.20329319428E+03  0.28021400344E+03  0.47000000000E+01 0.  1.
        -11    1    1    2    0    0  0.40869590728E+02  0.48294642366E+02 -0.18347628022E+02  0.65873601553E+02  0.00000000000E+00 0.  1.
         11    1    1    2    0    0 -0.93108228935E+01  0.12194043806E+03 -0.15669296146E+03  0.19876832249E+03  0.00000000000E+00 0. -1.
<mgrwt>
<rscale>  0 0.20967166E+03</rscale>
<asrwt>0</asrwt>
<pdfrwt beam="2">  1        2 0.74757440E-01 0.21353909E+03</pdfrwt>
<pdfrwt beam="1">  1       -2 0.13483629E-01 0.21353909E+03</pdfrwt>
<totfact> 0.26015907E+03</totfact>
</mgrwt>
</event>
<event>
 7    1  0.7800420E-006  0.1403939E+03  0.7546771E-02  0.1224474E+00
          1   -1    0    0  501    0  0.00000000000E+00  0.00000000000E+00  0.55528383533E+02  0.55528383533E+02  0.00000000000E+00 0. -1.
         -1   -1    0    0    0  501 -0.00000000000E+00 -0.00000000000E+00 -0.28452321634E+03  0.28452321634E+03  0.00000000000E+00 0.  1.
         23    2    1    2    0    0 -0.48603403255E+02  0.41520313562E+02 -0.11200412881E+03  0.17959778379E+03  0.12499684726E+03 0.  0.
          5    1    3    3  502    0  0.40753504430E+02  0.20172421298E+02 -0.21388123461E+02  0.50470947381E+02  0.47000000000E+01 0.  1.
         -5    1    3    3    0  502 -0.89356907685E+02  0.21347892264E+02 -0.90616005350E+02  0.12912683641E+03  0.47000000000E+01 0.  1.
        -11    1    1    2    0    0  0.64868371853E+02 -0.31836673675E+02 -0.43013239672E+02  0.84092914355E+02  0.00000000000E+00 0.  1.
         11    1    1    2    0    0 -0.16264968598E+02 -0.96836398868E+01 -0.73977464321E+02  0.76360901726E+02  0.00000000000E+00 0. -1.
<mgrwt>
<rscale>  0 0.13203019E+03</rscale>
<asrwt>0</asrwt>
<pdfrwt beam="1">  1        1 0.85428282E-02 0.14039387E+03</pdfrwt>
<pdfrwt beam="2">  1       -1 0.43772803E-01 0.14039387E+03</pdfrwt>
<totfact> 0.40053681E+03</totfact>
</mgrwt>
</event>
<event>
 6    1  0.7800420E-006  0.1632247E+03  0.7546771E-02  0.1230160E+00
         -2   -1    0    0    0  501 -0.00000000000E+00  0.00000000000E+00  0.11463456978E+03  0.11463456978E+03  0.00000000000E+00 0.  1.
          2   -1    0    0  501    0  0.00000000000E+00 -0.00000000000E+00 -0.17826011141E+03  0.17826011141E+03  0.00000000000E+00 0. -1.
          5    1    1    2  502    0  0.87736867230E+02  0.11009870594E+02 -0.11354157984E+03  0.14398873384E+03  0.47000000000E+01 0. -1.
         -5    1    1    2    0  502 -0.53809480740E+02  0.27304471636E+02 -0.11451583008E+02  0.61597265704E+02  0.47000000000E+01 0.  1.
        -11    1    1    2    0    0 -0.11973291729E+02 -0.10266826487E+00  0.27115805889E+00  0.11976801839E+02  0.00000000000E+00 0. -1.
         11    1    1    2    0    0 -0.21954094762E+02 -0.38211673966E+02  0.61096463159E+02  0.75331879802E+02  0.00000000000E+00 0.  1.
<mgrwt>
<rscale>  0 0.12819413E+03</rscale>
<asrwt>0</asrwt>
<pdfrwt beam="2">  1        2 0.27424632E-01 0.16322473E+03</pdfrwt>
<pdfrwt beam="1">  1       -2 0.17636088E-01 0.16322473E+03</pdfrwt>
<totfact> 0.48847304E+03</totfact>
</mgrwt>
</event>
<event>
 7    1  0.7800420E-006  0.1425036E+03  0.7546771E-02  0.1237378E+00
          2   -1    0    0  501    0  0.00000000000E+00  0.00000000000E+00  0.35035354663E+03  0.35035354663E+03  0.00000000000E+00 0. -1.
         -2   -1    0    0    0  501 -0.00000000000E+00 -0.00000000000E+00 -0.36028450401E+02  0.36028450401E+02  0.00000000000E+00 0.  1.
         23    2    1    2    0    0  0.63153937677E+02  0.26368410636E+02  0.17727166083E+03  0.22744780571E+03  0.12499419854E+03 0.  0.
          5    1    3    3  502    0  0.18865307695E+02  0.26808588765E+02  0.17981181645E+03  0.18283593629E+03  0.47000000000E+01 0. -1.
         -5    1    3    3    0  502  0.44288629982E+02 -0.44017812878E+00 -0.25401556233E+01  0.44611869419E+02  0.47000000000E+01 0. -1.
        -11    1    1    2    0    0 -0.55608463862E+02 -0.13890213894E+02  0.13128689325E+03  0.14325322906E+03  0.00000000000E+00 0. -1.
         11    1    1    2    0    0 -0.75454738149E+01 -0.12478196742E+02  0.57665421493E+01  0.15680962260E+02  0.00000000000E+00 0.  1.
<mgrwt>
<rscale>  0 0.12353393E+03</rscale>
<asrwt>0</asrwt>
<pdfrwt beam="1">  1        2 0.53900543E-01 0.14250355E+03</pdfrwt>
<pdfrwt beam="2">  1       -2 0.55428388E-02 0.14250355E+03</pdfrwt>
<totfact> 0.14590056E+04</totfact>
</mgrwt>
</event>
<event>
 7    1  0.7800420E-006  0.1608951E+03  0.7546771E-02  0.1195324E+00
         -2   -1    0    0    0  501 -0.00000000000E+00  0.00000000000E+00  0.39560718109E+02  0.39560718109E+02  0.00000000000E+00 0.  1.
          2   -1    0    0  501    0  0.00000000000E+00 -0.00000000000E+00 -0.64953990731E+03  0.64953990731E+03  0.00000000000E+00 0. -1.
         23    2    1    2    0    0 -0.98448840873E+02 -0.23904830383E+02 -0.45661570870E+03  0.48413338876E+03  0.12499446988E+03 0.  0.
          5    1    3    3  502    0 -0.96641694350E+01  0.43076486775E+02 -0.19182796650E+03  0.19689854904E+03  0.47000000000E+01 0. -1.
         -5    1    3    3    0  502 -0.88784671438E+02 -0.66981317158E+02 -0.26478774220E+03  0.28723483972E+03  0.47000000000E+01 0. -1.
        -11    1    1    2    0    0  0.11113795871E+03  0.19593536379E+02 -0.15471240488E+03  0.19149799153E+03  0.00000000000E+00 0. -1.
         11    1    1    2    0    0 -0.12689117834E+02  0.43112940040E+01  0.13489243803E+01  0.13469245130E+02  0.00000000000E+00 0.  1.
<mgrwt>
<rscale>  0 0.15426869E+03</rscale>
<asrwt>0</asrwt>
<pdfrwt beam="2">  1        2 0.99929207E-01 0.16089510E+03</pdfrwt>
<pdfrwt beam="1">  1       -2 0.60862649E-02 0.16089510E+03</pdfrwt>
<totfact> 0.64649451E+03</totfact>
</mgrwt>
</event>
<event>
 7    1  0.7800420E-006  0.1301910E+03  0.7546771E-02  0.1231690E+00
          2   -1    0    0  501    0  0.00000000000E+00  0.00000000000E+00  0.10519191305E+04  0.10519191305E+04  0.00000000000E+00 0. -1.
         -2   -1    0    0    0  501 -0.00000000000E+00 -0.00000000000E+00 -0.17209076324E+02  0.17209076324E+02  0.00000000000E+00 0.  1.
         23    2    1    2    0    0  0.19025872381E+02  0.30988487876E+02  0.74155261569E+03  0.75289440241E+03  0.12500971620E+03 0.  0.
          5    1    3    3  502    0 -0.32302668296E+02  0.12194961916E+02  0.61926090542E+02  0.71057090884E+02  0.47000000000E+01 0.  1.
         -5    1    3    3    0  502  0.51328540677E+02  0.18793525960E+02  0.67962652515E+03  0.68183731153E+03  0.47000000000E+01 0.  1.
        -11    1    1    2    0    0  0.34567456158E+02 -0.50735966562E+02  0.15756442157E+03  0.16910231894E+03  0.00000000000E+00 0.  1.
         11    1    1    2    0    0 -0.53593328540E+02  0.19747478686E+02  0.13559301689E+03  0.14713148544E+03  0.00000000000E+00 0. -1.
<mgrwt>
<rscale>  0 0.12718729E+03</rscale>
<asrwt>0</asrwt>
<pdfrwt beam="1">  1        2 0.16183366E+00 0.13019101E+03</pdfrwt>
<pdfrwt beam="2">  1       -2 0.26475510E-02 0.13019101E+03</pdfrwt>
<totfact> 0.11961844E+04</totfact>
</mgrwt>
</event>
<event>
 7    1  0.7800420E-006  0.1474114E+03  0.7546771E-02  0.1213523E+00
         -2   -1    0    0    0  501 -0.00000000000E+00  0.00000000000E+00  0.14104914046E+02  0.14104914046E+02  0.00000000000E+00 0.  1.
          2   -1    0    0  501    0  0.00000000000E+00 -0.00000000000E+00 -0.12848224972E+04  0.12848224972E+04  0.00000000000E+00 0. -1.
         23    2    1    2    0    0 -0.78039211775E+02  0.38205850521E+01 -0.78672319434E+03  0.80041459234E+03  0.12500167869E+03 0.  0.
          5    1    3    3  502    0 -0.49195230122E+02 -0.59637856745E+02 -0.42788588910E+03  0.43483935967E+03  0.47000000000E+01 0. -1.
         -5    1    3    3    0  502 -0.28843981653E+02  0.63458441797E+02 -0.35883730523E+03  0.36557523267E+03  0.47000000000E+01 0. -1.
        -11    1    1    2    0    0  0.19318858328E+02 -0.37344185237E+02 -0.97965862756E+02  0.10660730146E+03  0.00000000000E+00 0.  1.
         11    1    1    2    0    0  0.58720353447E+02  0.33523600185E+02 -0.38602852609E+03  0.39190551749E+03  0.00000000000E+00 0. -1.
<mgrwt>
<rscale>  0 0.13985575E+03</rscale>
<asrwt>0</asrwt>
<pdfrwt beam="2">  1        2 0.19766500E+00 0.14741145E+03</pdfrwt>
<pdfrwt beam="1">  1       -2 0.21699868E-02 0.14741145E+03</pdfrwt>
<totfact> 0.11921553E+04</totfact>
</mgrwt>
</event>
<event>
 7    1  0.7800420E-006  0.1380324E+03  0.7546771E-02  0.1226598E+00
          1   -1    0    0  501    0  0.00000000000E+00  0.00000000000E+00  0.97022906924E+03  0.97022906924E+03  0.00000000000E+00 0. -1.
         -1   -1    0    0    0  501 -0.00000000000E+00 -0.00000000000E+00 -0.16758840126E+02  0.16758840126E+02  0.00000000000E+00 0.  1.
         23    2    1    2    0    0 -0.58012983611E+02 -0.79200197686E+01  0.63642287648E+03  0.65121964792E+03  0.12499887663E+03 0.  0.
          5    1    3    3  502    0 -0.48179559845E+02  0.50373796836E+02  0.45546429161E+03  0.46079127631E+03  0.47000000000E+01 0. -1.
         -5    1    3    3    0  502 -0.98334237656E+01 -0.58293816605E+02  0.18095858487E+03  0.19042837161E+03  0.47000000000E+01 0. -1.
        -11    1    1    2    0    0 -0.88188791196E+01  0.36544174927E+02  0.11905587197E+03  0.12485011014E+03  0.00000000000E+00 0. -1.
         11    1    1    2    0    0  0.66831862730E+02 -0.28624155158E+02  0.19799148067E+03  0.21091815131E+03  0.00000000000E+00 0.  1.
<mgrwt>
<rscale>  0 0.13057966E+03</rscale>
<asrwt>0</asrwt>
<pdfrwt beam="1">  1        1 0.14926597E+00 0.13803243E+03</pdfrwt>
<pdfrwt beam="2">  1       -1 0.25782839E-02 0.13803243E+03</pdfrwt>
<totfact> 0.77031921E+03</totfact>
</mgrwt>
</event>
<event>
 7    1  0.7800420E-006  0.1284991E+03  0.7546771E-02  0.1243820E+00
          1   -1    0    0  501    0  0.00000000000E+00  0.00000000000E+00  0.31499462994E+03  0.31499462994E+03  0.00000000000E+00 0. -1.
         -1   -1    0    0    0  501 -0.00000000000E+00 -0.00000000000E+00 -0.41120185523E+02  0.41120185523E+02  0.00000000000E+00 0.  1.
         23    2    1    2    0    0  0.24062154743E+02 -0.17567304384E+02  0.18365928462E+03  0.22414897658E+03  0.12499773358E+03 0.  0.
          5    1    3    3  502    0  0.53958400214E+01 -0.40800891266E+02  0.36004689229E+01  0.41579817149E+02  0.47000000000E+01 0.  1.
         -5    1    3    3    0  502  0.18666314722E+02  0.23233586882E+02  0.18005881569E+03  0.18256915943E+03  0.47000000000E+01 0.  1.
        -11    1    1    2    0    0 -0.12577368058E+02 -0.31132825742E+02  0.61490513127E+01  0.34135814887E+02  0.00000000000E+00 0.  1.
         11    1    1    2    0    0 -0.11484786685E+02  0.48700130126E+02  0.84066108483E+02  0.97830023996E+02  0.00000000000E+00 0. -1.
<mgrwt>
<rscale>  0 0.11956291E+03</rscale>
<asrwt>0</asrwt>
<pdfrwt beam="1">  1        1 0.48460711E-01 0.12849915E+03</pdfrwt>
<pdfrwt beam="2">  1       -1 0.63261826E-02 0.12849915E+03</pdfrwt>
<totfact> 0.95754392E+03</totfact>
</mgrwt>
</event>
<event>
 7    1  0.7800420E-006  0.1288257E+03  0.7546771E-02  0.1301769E+00
         -2   -1    0    0    0  501 -0.00000000000E+00  0.00000000000E+00  0.66546181942E+01  0.66546181942E+01  0.00000000000E+00 0.  1.
          2   -1    0    0  501    0  0.00000000000E+00 -0.00000000000E+00 -0.10694997162E+04  0.10694997162E+04  0.00000000000E+00 0. -1.
         23    2    1    2    0    0  0.53950248303E+00 -0.30519088973E+02 -0.96129522505E+03  0.96988894619E+03  0.12515731061E+03 0.  0.
          5    1    3    3  502    0  0.41751479088E+02 -0.18846692514E+02 -0.83830407311E+03  0.83956786075E+03  0.47000000000E+01 0. -1.
         -5    1    3    3    0  502 -0.41211976605E+02 -0.11672396459E+02 -0.12299115194E+03  0.13032108544E+03  0.47000000000E+01 0.  1.
        -11    1    1    2    0    0  0.31135625104E+01  0.10613556471E+02 -0.34943463818E+02  0.36652251173E+02  0.00000000000E+00 0.  1.
         11    1    1    2    0    0 -0.36530649934E+01  0.19905532501E+02 -0.66606409151E+02  0.69613137036E+02  0.00000000000E+00 0. -1.
<mgrwt>
<rscale>  0 0.90448773E+02</rscale>
<asrwt>0</asrwt>
<pdfrwt beam="2">  1        2 0.16453834E+00 0.12882569E+03</pdfrwt>
<pdfrwt beam="1">  1       -2 0.10237879E-02 0.12882569E+03</pdfrwt>
<totfact> 0.46034130E+04</totfact>
</mgrwt>
</event>
<event>
 7    1  0.7800420E-006  0.1153285E+03  0.7546771E-02  0.1259702E+00
         -2   -1    0    0    0  501 -0.00000000000E+00  0.00000000000E+00  0.17463925988E+03  0.17463925988E+03  0.00000000000E+00 0.  1.
          2   -1    0    0  501    0  0.00000000000E+00 -0.00000000000E+00 -0.81433576523E+02  0.81433576523E+02  0.00000000000E+00 0. -1.
         23    2    1    2    0    0 -0.29312857240E+02 -0.54870955263E+01 -0.82804758102E+01  0.11562543014E+03  0.11140611293E+03 0.  0.
          5    1    3    3  502    0 -0.27046654155E+02 -0.86429023954E+00 -0.58657015290E+02  0.64768850085E+02  0.47000000000E+01 0. -1.
         -5    1    3    3    0  502 -0.22662030845E+01 -0.46228052868E+01  0.50376539480E+02  0.50856580057E+02  0.47000000000E+01 0.  1.
        -11    1    1    2    0    0  0.14939531326E+02 -0.42019069636E+02  0.65081249267E+02  0.78894618419E+02  0.00000000000E+00 0.  1.
         11    1    1    2    0    0  0.14373325914E+02  0.47506165162E+02  0.36404909900E+02  0.61552787842E+02  0.00000000000E+00 0. -1.
<mgrwt>
<rscale>  0 0.11046984E+03</rscale>
<asrwt>0</asrwt>
<pdfrwt beam="2">  1        2 0.12528243E-01 0.11532855E+03</pdfrwt>
<pdfrwt beam="1">  1       -2 0.26867578E-01 0.11532855E+03</pdfrwt>
<totfact> 0.56803940E+03</totfact>
</mgrwt>
</event>
<event>
 7    1  0.7800420E-006  0.2363524E+03  0.7546771E-02  0.1126350E+00
         -2   -1    0    0    0  501 -0.00000000000E+00  0.00000000000E+00  0.47071895312E+02  0.47071895312E+02  0.00000000000E+00 0.  1.
          2   -1    0    0  501    0  0.00000000000E+00 -0.00000000000E+00 -0.10805631135E+04  0.10805631135E+04  0.00000000000E+00 0. -1.
         23    2    1    2    0    0  0.17960990844E+03 -0.89331482582E+02 -0.50119809540E+03  0.55413172713E+03  0.12499042839E+03 0.  0.
          5    1    3    3  502    0  0.12251429941E+03 -0.82726919281E+02 -0.46017811216E+03  0.48336268127E+03  0.47000000000E+01 0. -1.
         -5    1    3    3    0  502  0.57095609032E+02 -0.66045633010E+01 -0.41019983240E+02  0.70769045861E+02  0.47000000000E+01 0. -1.
        -11    1    1    2    0    0 -0.45111911690E+02 -0.99799543766E+01 -0.10894034765E+03  0.11833293460E+03  0.00000000000E+00 0. -1.
         11    1    1    2    0    0 -0.13449799675E+03  0.99311436959E+02 -0.42335277516E+03  0.45517034710E+03  0.00000000000E+00 0.  1.
<mgrwt>
<rscale>  0 0.23041190E+03</rscale>
<asrwt>0</asrwt>
<pdfrwt beam="2">  1        2 0.16624050E+00 0.23635236E+03</pdfrwt>
<pdfrwt beam="1">  1       -2 0.72418291E-02 0.23635236E+03</pdfrwt>
<totfact> 0.25866895E+03</totfact>
</mgrwt>
</event>
<event>
 7    1  0.7800420E-006  0.1527733E+03  0.7546771E-02  0.1205478E+00
          2   -1    0    0  501    0  0.00000000000E+00  0.00000000000E+00  0.46694076751E+03  0.46694076751E+03  0.00000000000E+00 0. -1.
         -2   -1    0    0    0  501 -0.00000000000E+00 -0.00000000000E+00 -0.42143147592E+02  0.42143147592E+02  0.00000000000E+00 0.  1.
         23    2    1    2    0    0 -0.20680738936E+02 -0.85363151034E+02  0.24445224582E+03  0.28826479815E+03  0.12500053138E+03 0.  0.
          5    1    3    3  502    0 -0.10530313471E+02 -0.69234750790E+01 -0.13115013464E+02  0.18786047672E+02  0.47000000000E+01 0.  1.
         -5    1    3    3    0  502 -0.10150425465E+02 -0.78439675955E+02  0.25756725929E+03  0.26947875048E+03  0.47000000000E+01 0.  1.
        -11    1    1    2    0    0  0.13365687013E+01  0.35674818587E+02  0.15969873590E+03  0.16364035366E+03  0.00000000000E+00 0. -1.
         11    1    1    2    0    0  0.19344170235E+02  0.49688332446E+02  0.20646638194E+02  0.57178763296E+02  0.00000000000E+00 0.  1.
<mgrwt>
<rscale>  0 0.14599825E+03</rscale>
<asrwt>0</asrwt>
<pdfrwt beam="1">  1        2 0.71837038E-01 0.15277334E+03</pdfrwt>
<pdfrwt beam="2">  1       -2 0.64835615E-02 0.15277334E+03</pdfrwt>
<totfact> 0.84864267E+03</totfact>
</mgrwt>
</event>
<event>
 7    1  0.7800420E-006  0.1253921E+03  0.7546771E-02  0.1250404E+00
          1   -1    0    0  501    0  0.00000000000E+00  0.00000000000E+00  0.75229199477E+03  0.75229199477E+03  0.00000000000E+00 0. -1.
         -1   -1    0    0    0  501 -0.00000000000E+00 -0.00000000000E+00 -0.16519735770E+02  0.16519735770E+02  0.00000000000E+00 0.  1.
         23    2    1    2    0    0  0.42557447300E+00 -0.98860600774E+01  0.51592639644E+03  0.53094559239E+03  0.12500104095E+03 0.  0.
          5    1    3    3  502    0 -0.59423419008E+02 -0.18832969545E+02  0.21232644576E+03  0.22133782559E+03  0.47000000000E+01 0. -1.
         -5    1    3    3    0  502  0.59848993481E+02  0.89469094678E+01  0.30359995068E+03  0.30960776680E+03  0.47000000000E+01 0. -1.
        -11    1    1    2    0    0 -0.10963533798E+02  0.44583722365E+02  0.70135114505E+02  0.83826258773E+02  0.00000000000E+00 0.  1.
         11    1    1    2    0    0  0.10537959325E+02 -0.34697662287E+02  0.14971074805E+03  0.15403987937E+03  0.00000000000E+00 0. -1.
<mgrwt>
<rscale>  0 0.11567695E+03</rscale>
<asrwt>0</asrwt>
<pdfrwt beam="1">  1        1 0.11573720E+00 0.12539209E+03</pdfrwt>
<pdfrwt beam="2">  1       -1 0.25414984E-02 0.12539209E+03</pdfrwt>
<totfact> 0.11611175E+04</totfact>
</mgrwt>
</event>
<event>
 7    1  0.7800420E-006  0.1507436E+03  0.7546771E-02  0.1205664E+00
          1   -1    0    0  501    0  0.00000000000E+00  0.00000000000E+00  0.22603115129E+03  0.22603115129E+03  0.00000000000E+00 0. -1.
         -1   -1    0    0    0  501 -0.00000000000E+00 -0.00000000000E+00 -0.15355451845E+03  0.15355451845E+03  0.00000000000E+00 0.  1.
         23    2    1    2    0    0  0.39341745636E+02  0.85554895554E+02  0.16100258514E+03  0.22055719925E+03  0.11771249984E+03 0.  0.
          5    1    3    3  502    0  0.56462551613E+02  0.75721048982E+02  0.17286909462E+03  0.19704697630E+03  0.47000000000E+01 0. -1.
         -5    1    3    3    0  502 -0.17120805977E+02  0.98338465715E+01 -0.11866509488E+02  0.23510222949E+02  0.47000000000E+01 0.  1.
        -11    1    1    2    0    0  0.74356915328E+01  0.16315684130E+02 -0.33450811173E+01  0.18239534668E+02  0.00000000000E+00 0. -1.
         11    1    1    2    0    0 -0.46777437169E+02 -0.10187057968E+03 -0.85180871182E+02  0.14078893582E+03  0.00000000000E+00 0.  1.
<mgrwt>
<rscale>  0 0.14585243E+03</rscale>
<asrwt>0</asrwt>
<pdfrwt beam="1">  1        1 0.34774023E-01 0.15074364E+03</pdfrwt>
<pdfrwt beam="2">  1       -1 0.23623772E-01 0.15074364E+03</pdfrwt>
<totfact> 0.18855681E+03</totfact>
</mgrwt>
</event>
<event>
 7    1  0.7800420E-006  0.1368989E+03  0.7546771E-02  0.1228806E+00
          1   -1    0    0  501    0  0.00000000000E+00  0.00000000000E+00  0.91634096386E+02  0.91634096386E+02  0.00000000000E+00 0. -1.
         -1   -1    0    0    0  501 -0.00000000000E+00 -0.00000000000E+00 -0.16406248967E+03  0.16406248967E+03  0.00000000000E+00 0.  1.
         23    2    1    2    0    0  0.55899031464E+02  0.39614839805E+00 -0.43572428521E+02  0.14366577741E+03  0.12496575699E+03 0.  0.
          5    1    3    3  502    0  0.18964541795E+02  0.48381908536E+02  0.19873712044E+02  0.55834732466E+02  0.47000000000E+01 0.  1.
         -5    1    3    3    0  502  0.36934489669E+02 -0.47985760138E+02 -0.63446140565E+02  0.87831044943E+02  0.47000000000E+01 0.  1.
        -11    1    1    2    0    0 -0.26130013650E+02 -0.28359818728E+02 -0.52267646947E+02  0.64953551473E+02  0.00000000000E+00 0.  1.
         11    1    1    2    0    0 -0.29769017815E+02  0.27963670329E+02  0.23411682187E+02  0.47077257171E+02  0.00000000000E+00 0. -1.
<mgrwt>
<rscale>  0 0.12909448E+03</rscale>
<asrwt>0</asrwt>
<pdfrwt beam="1">  1        1 0.14097554E-01 0.13689886E+03</pdfrwt>
<pdfrwt beam="2">  1       -1 0.25240383E-01 0.13689886E+03</pdfrwt>
<totfact> 0.52863280E+03</totfact>
</mgrwt>
</event>
<event>
 7    1  0.7800420E-006  0.1340338E+03  0.7546771E-02  0.1237768E+00
         -2   -1    0    0    0  501 -0.00000000000E+00  0.00000000000E+00  0.42829607522E+02  0.42829607522E+02  0.00000000000E+00 0.  1.
          2   -1    0    0  501    0  0.00000000000E+00 -0.00000000000E+00 -0.66185634259E+03  0.66185634259E+03  0.00000000000E+00 0. -1.
         23    2    1    2    0    0 -0.46226797375E+02  0.14166140650E+02 -0.58913058190E+03  0.60418531254E+03  0.12500981171E+03 0.  0.
          5    1    3    3  502    0 -0.49696588490E+02  0.27875899020E+02 -0.58621955039E+03  0.58900107633E+03  0.47000000000E+01 0. -1.
         -5    1    3    3    0  502  0.34697911152E+01 -0.13709758370E+02 -0.29110315073E+01  0.15184236213E+02  0.47000000000E+01 0. -1.
        -11    1    1    2    0    0  0.28946803718E+02 -0.21487283856E+02  0.24081460257E+02  0.43353633540E+02  0.00000000000E+00 0.  1.
         11    1    1    2    0    0  0.17279993657E+02  0.73211432059E+01 -0.53977613429E+02  0.57147004035E+02  0.00000000000E+00 0. -1.
<mgrwt>
<rscale>  0 0.12328864E+03</rscale>
<asrwt>0</asrwt>
<pdfrwt beam="2">  1        2 0.10182404E+00 0.13403376E+03</pdfrwt>
<pdfrwt beam="1">  1       -2 0.65891709E-02 0.13403376E+03</pdfrwt>
<totfact> 0.55530484E+03</totfact>
</mgrwt>
</event>
<event>
 7    1  0.7800420E-006  0.1704643E+03  0.7546771E-02  0.1183955E+00
          1   -1    0    0  501    0  0.00000000000E+00  0.00000000000E+00  0.51033523755E+03  0.51033523755E+03  0.00000000000E+00 0. -1.
         -1   -1    0    0    0  501 -0.00000000000E+00 -0.00000000000E+00 -0.49624848162E+02  0.49624848162E+02  0.00000000000E+00 0.  1.
         23    2    1    2    0    0  0.11548870582E+03  0.10808357290E+02  0.26702959345E+03  0.31680103707E+03  0.12491449696E+03 0.  0.
          5    1    3    3  502    0 -0.21487924703E+02  0.23753092279E+02  0.42470086411E+02  0.53401671702E+02  0.47000000000E+01 0.  1.
         -5    1    3    3    0  502  0.13697663052E+03 -0.12944734989E+02  0.22455950704E+03  0.26339936536E+03  0.47000000000E+01 0.  1.
        -11    1    1    2    0    0 -0.93337543615E+02 -0.30158079821E+02  0.18959289845E+03  0.21346398752E+03  0.00000000000E+00 0. -1.
         11    1    1    2    0    0 -0.22151162204E+02  0.19349722531E+02  0.40878974876E+01  0.29695061120E+02  0.00000000000E+00 0.  1.
<mgrwt>
<rscale>  0 0.16427340E+03</rscale>
<asrwt>0</asrwt>
<pdfrwt beam="1">  1        1 0.78513110E-01 0.17046435E+03</pdfrwt>
<pdfrwt beam="2">  1       -1 0.76345924E-02 0.17046435E+03</pdfrwt>
<totfact> 0.39771322E+03</totfact>
</mgrwt>
</event>
<event>
 7    1  0.7800420E-006  0.1260470E+03  0.7546771E-02  0.1249210E+00
          2   -1    0    0  501    0  0.00000000000E+00  0.00000000000E+00  0.13810828465E+03  0.13810828465E+03  0.00000000000E+00 0. -1.
         -2   -1    0    0    0  501 -0.00000000000E+00 -0.00000000000E+00 -0.92936280602E+02  0.92936280602E+02  0.00000000000E+00 0.  1.
         23    2    1    2    0    0 -0.13684145178E+02 -0.83947718335E+01  0.57690959687E+02  0.13862215682E+03  0.12502050835E+03 0.  0.
          5    1    3    3  502    0  0.55086594144E+02 -0.12755978144E+02  0.21784818554E+02  0.60777595808E+02  0.47000000000E+01 0. -1.
         -5    1    3    3    0  502 -0.68770739322E+02  0.43612063109E+01  0.35906141133E+02  0.77844561008E+02  0.47000000000E+01 0. -1.
        -11    1    1    2    0    0  0.86966553785E+01 -0.29008723639E+02  0.24955157866E+02  0.39241531138E+02  0.00000000000E+00 0. -1.
         11    1    1    2    0    0  0.49874897997E+01  0.37403495472E+02 -0.37474113501E+02  0.53180877303E+02  0.00000000000E+00 0.  1.
<mgrwt>
<rscale>  0 0.11636932E+03</rscale>
<asrwt>0</asrwt>
<pdfrwt beam="1">  1        2 0.21247428E-01 0.12604704E+03</pdfrwt>
<pdfrwt beam="2">  1       -2 0.14297889E-01 0.12604704E+03</pdfrwt>
<totfact> 0.89983110E+03</totfact>
</mgrwt>
</event>
<event>
 7    1  0.7800420E-006  0.1393012E+03  0.7546771E-02  0.1230097E+00
          3   -1    0    0  501    0  0.00000000000E+00  0.00000000000E+00  0.22782873560E+02  0.22782873560E+02  0.00000000000E+00 0. -1.
         -3   -1    0    0    0  501 -0.00000000000E+00 -0.00000000000E+00 -0.63617988929E+03  0.63617988929E+03  0.00000000000E+00 0.  1.
         23    2    1    2    0    0 -0.55301119459E+02 -0.26862567768E+02 -0.32090972784E+03  0.34983980531E+03  0.12500009841E+03 0.  0.
          5    1    3    3  502    0 -0.84166793764E+02  0.66102358601E+00 -0.28039472792E+03  0.29279306613E+03  0.47000000000E+01 0. -1.
         -5    1    3    3    0  502  0.28865674304E+02 -0.27523591354E+02 -0.40514999912E+02  0.57046739187E+02  0.47000000000E+01 0. -1.
        -11    1    1    2    0    0  0.50812256245E+02 -0.15287841410E+02 -0.20714624077E+03  0.21383444191E+03  0.00000000000E+00 0.  1.
         11    1    1    2    0    0  0.44888632144E+01  0.42150409179E+02 -0.85341047126E+02  0.95288515632E+02  0.00000000000E+00 0. -1.
<mgrwt>
<rscale>  0 0.12823621E+03</rscale>
<asrwt>0</asrwt>
<pdfrwt beam="1">  1        3 0.35050578E-02 0.13930124E+03</pdfrwt>
<pdfrwt beam="2">  1       -3 0.97873819E-01 0.13930124E+03</pdfrwt>
<totfact> 0.88125434E+02</totfact>
</mgrwt>
</event>
<event>
 6    1  0.7800420E-006  0.2597685E+03  0.7546771E-02  0.1122159E+00
          2   -1    0    0  501    0  0.00000000000E+00  0.00000000000E+00  0.15293090654E+04  0.15293090654E+04  0.00000000000E+00 0. -1.
         -2   -1    0    0    0  501 -0.00000000000E+00 -0.00000000000E+00 -0.34259376372E+02  0.34259376372E+02  0.00000000000E+00 0.  1.
          5    1    1    2  502    0 -0.19293764262E+03  0.26574025891E+02  0.91015120763E+03  0.93076765283E+03  0.47000000000E+01 0. -1.
         -5    1    1    2    0  502  0.54316011517E+02  0.27541967056E+02  0.18728404103E+03  0.19699287063E+03  0.47000000000E+01 0.  1.
        -11    1    1    2    0    0  0.21978269293E+02  0.26096699946E+02  0.11124733148E+03  0.11636172408E+03  0.00000000000E+00 0. -1.
         11    1    1    2    0    0  0.11664336181E+03 -0.80212692893E+02  0.28636710885E+03  0.31944619420E+03  0.00000000000E+00 0.  1.
<mgrwt>
<rscale>  0 0.23648122E+03</rscale>
<asrwt>0</asrwt>
<pdfrwt beam="1">  1        2 0.23527827E+00 0.25976850E+03</pdfrwt>
<pdfrwt beam="2">  1       -2 0.52706745E-02 0.25976850E+03</pdfrwt>
<totfact> 0.23773513E+03</totfact>
</mgrwt>
</event>
<event>
 7    1  0.7800420E-006  0.1375776E+03  0.7546771E-02  0.1228026E+00
         -1   -1    0    0    0  501 -0.00000000000E+00  0.00000000000E+00  0.65912076252E+02  0.65912076252E+02  0.00000000000E+00 0.  1.
          1   -1    0    0  501    0  0.00000000000E+00 -0.00000000000E+00 -0.30421532402E+03  0.30421532402E+03  0.00000000000E+00 0. -1.
         23    2    1    2    0    0  0.35535751352E+02  0.45155848596E+02 -0.22105608610E+03  0.26037164522E+03  0.12500304053E+03 0.  0.
          5    1    3    3  502    0  0.81900284991E+01  0.73206000127E+02 -0.20480637423E+03  0.21770148357E+03  0.47000000000E+01 0.  1.
         -5    1    3    3    0  502  0.27345722853E+02 -0.28050151531E+02 -0.16249711872E+02  0.42670161649E+02  0.47000000000E+01 0.  1.
        -11    1    1    2    0    0 -0.66583800004E+02 -0.33971639858E+02 -0.64226992132E+01  0.75024834574E+02  0.00000000000E+00 0.  1.
         11    1    1    2    0    0  0.31048048652E+02 -0.11184208738E+02 -0.10824462452E+02  0.34730920483E+02  0.00000000000E+00 0. -1.
<mgrwt>
<rscale>  0 0.12961650E+03</rscale>
<asrwt>0</asrwt>
<pdfrwt beam="2">  1        1 0.46802356E-01 0.13757762E+03</pdfrwt>
<pdfrwt beam="1">  1       -1 0.10140320E-01 0.13757762E+03</pdfrwt>
<totfact> 0.49290966E+03</totfact>
</mgrwt>
</event>
<event>
 7    1  0.7800420E-006  0.2189820E+03  0.7546771E-02  0.1138135E+00
          2   -1    0    0  501    0  0.00000000000E+00  0.00000000000E+00  0.83951519973E+03  0.83951519973E+03  0.00000000000E+00 0. -1.
         -2   -1    0    0    0  501 -0.00000000000E+00 -0.00000000000E+00 -0.57281948468E+02  0.57281948468E+02  0.00000000000E+00 0.  1.
         23    2    1    2    0    0 -0.17874067147E+03  0.19498737259E+02  0.53476665566E+03  0.57786545678E+03  0.12499872697E+03 0.  0.
          5    1    3    3  502    0 -0.11927860283E+03  0.12601670874E+02  0.16951030504E+03  0.20770657360E+03  0.47000000000E+01 0. -1.
         -5    1    3    3    0  502 -0.59462068647E+02  0.68970663854E+01  0.36525635062E+03  0.37015888318E+03  0.47000000000E+01 0. -1.
        -11    1    1    2    0    0  0.13584373528E+03  0.11920617755E+02  0.12323905502E+03  0.18380284607E+03  0.00000000000E+00 0.  1.
         11    1    1    2    0    0  0.42896936191E+02 -0.31419355014E+02  0.12422754058E+03  0.13512884534E+03  0.00000000000E+00 0. -1.
<mgrwt>
<rscale>  0 0.21439185E+03</rscale>
<asrwt>0</asrwt>
<pdfrwt beam="1">  1        2 0.12915618E+00 0.21898199E+03</pdfrwt>
<pdfrwt beam="2">  1       -2 0.88126081E-02 0.21898199E+03</pdfrwt>
<totfact> 0.26895990E+03</totfact>
</mgrwt>
</event>
<event>
 6    1  0.7800420E-006  0.1861626E+03  0.7546771E-02  0.1234345E+00
         -1   -1    0    0    0  501 -0.00000000000E+00  0.00000000000E+00  0.16652307270E+02  0.16652307270E+02  0.00000000000E+00 0.  1.
          1   -1    0    0  501    0  0.00000000000E+00 -0.00000000000E+00 -0.88822902703E+03  0.88822902703E+03  0.00000000000E+00 0. -1.
          5    1    1    2  502    0 -0.63928642685E+02  0.16709437766E+02 -0.78419626356E+03  0.78698916539E+03  0.47000000000E+01 0. -1.
         -5    1    1    2    0  502  0.37966625131E+02 -0.99662706700E+01 -0.34075678268E+02  0.52192269776E+02  0.47000000000E+01 0.  1.
        -11    1    1    2    0    0  0.16844858681E+02  0.93833641590E+01 -0.21389524967E+02  0.28797718056E+02  0.00000000000E+00 0. -1.
         11    1    1    2    0    0  0.91171588721E+01 -0.16126531255E+02 -0.31915252968E+02  0.36902181077E+02  0.00000000000E+00 0.  1.
<mgrwt>
<rscale>  0 0.12546459E+03</rscale>
<asrwt>0</asrwt>
<pdfrwt beam="2">  1        1 0.13665067E+00 0.18616259E+03</pdfrwt>
<pdfrwt beam="1">  1       -1 0.25618924E-02 0.18616259E+03</pdfrwt>
<totfact> 0.91155821E+03</totfact>
</mgrwt>
</event>
<event>
 7    1  0.7800420E-006  0.1568528E+03  0.7546771E-02  0.1201162E+00
          3   -1    0    0  501    0  0.00000000000E+00  0.00000000000E+00  0.26972724536E+03  0.26972724536E+03  0.00000000000E+00 0. -1.
         -3   -1    0    0    0  501 -0.00000000000E+00 -0.00000000000E+00 -0.76461865422E+02  0.76461865422E+02  0.00000000000E+00 0.  1.
         23    2    1    2    0    0  0.87545926228E+02  0.36212518719E+02  0.12113657906E+03  0.19818394248E+03  0.12500867394E+03 0.  0.
          5    1    3    3  502    0  0.99825159721E+02  0.29004837056E+01  0.12727677234E+03  0.16184851589E+03  0.47000000000E+01 0.  1.
         -5    1    3    3    0  502 -0.12279233493E+02  0.33312035014E+02 -0.61401932781E+01  0.36335426589E+02  0.47000000000E+01 0.  1.
        -11    1    1    2    0    0 -0.98288337244E+02 -0.16150176451E+02  0.37219265322E+02  0.10633296360E+03  0.00000000000E+00 0.  1.
         11    1    1    2    0    0  0.10742411015E+02 -0.20062342268E+02  0.34909535547E+02  0.41672204692E+02  0.00000000000E+00 0. -1.
<mgrwt>
<rscale>  0 0.14944054E+03</rscale>
<asrwt>0</asrwt>
<pdfrwt beam="1">  1        3 0.41496499E-01 0.15685281E+03</pdfrwt>
<pdfrwt beam="2">  1       -3 0.11763364E-01 0.15685281E+03</pdfrwt>
<totfact> 0.76744388E+02</totfact>
</mgrwt>
</event>
<event>
 7    1  0.7800420E-006  0.1903620E+03  0.7546771E-02  0.1162670E+00
         -2   -1    0    0    0  501 -0.00000000000E+00  0.00000000000E+00  0.12291707177E+03  0.12291707177E+03  0.00000000000E+00 0.  1.
          2   -1    0    0  501    0  0.00000000000E+00 -0.00000000000E+00 -0.31065998944E+03  0.31065998944E+03  0.00000000000E+00 0. -1.
         23    2    1    2    0    0 -0.14331178845E+03  0.85807839324E+01 -0.18017362225E+03  0.26210725388E+03  0.12500311924E+03 0.  0.
          5    1    3    3  502    0  0.66052369900E+01 -0.29431859028E+02 -0.55721473598E+02  0.63536100773E+02  0.47000000000E+01 0. -1.
         -5    1    3    3    0  502 -0.14991702544E+03  0.38012642960E+02 -0.12445214866E+03  0.19857115310E+03  0.47000000000E+01 0. -1.
        -11    1    1    2    0    0  0.57679922825E+02 -0.30462203998E+02  0.34269412666E+02  0.73683865357E+02  0.00000000000E+00 0.  1.
         11    1    1    2    0    0  0.85631865621E+02  0.21881420066E+02 -0.41838708082E+02  0.97785941974E+02  0.00000000000E+00 0. -1.
<mgrwt>
<rscale>  0 0.18540702E+03</rscale>
<asrwt>0</asrwt>
<pdfrwt beam="2">  1        2 0.47793845E-01 0.19036197E+03</pdfrwt>
<pdfrwt beam="1">  1       -2 0.18910319E-01 0.19036197E+03</pdfrwt>
<totfact> 0.24016682E+03</totfact>
</mgrwt>
</event>
<event>
 7    1  0.7800420E-006  0.1260687E+03  0.7546771E-02  0.1248473E+00
         -2   -1    0    0    0  501 -0.00000000000E+00  0.00000000000E+00  0.27311528236E+02  0.27311528236E+02  0.00000000000E+00 0.  1.
          2   -1    0    0  501    0  0.00000000000E+00 -0.00000000000E+00 -0.46999533592E+03  0.46999533592E+03  0.00000000000E+00 0. -1.
         23    2    1    2    0    0  0.11430093547E+02  0.11634507275E+02 -0.31601314319E+03  0.34023172088E+03  0.12500923337E+03 0.  0.
          5    1    3    3  502    0  0.25820596335E+02 -0.21237574051E+02 -0.14817898359E+02  0.36870012998E+02  0.47000000000E+01 0. -1.
         -5    1    3    3    0  502 -0.14390502788E+02  0.32872081327E+02 -0.30119524483E+03  0.30336170789E+03  0.47000000000E+01 0. -1.
        -11    1    1    2    0    0 -0.27643089117E+02 -0.30454455816E+02 -0.16794453599E+02  0.44425982562E+02  0.00000000000E+00 0.  1.
         11    1    1    2    0    0  0.16212995569E+02  0.18819948541E+02 -0.10987621089E+03  0.11264916071E+03  0.00000000000E+00 0. -1.
<mgrwt>
<rscale>  0 0.11679892E+03</rscale>
<asrwt>0</asrwt>
<pdfrwt beam="2">  1        2 0.72306971E-01 0.12606870E+03</pdfrwt>
<pdfrwt beam="1">  1       -2 0.42017738E-02 0.12606870E+03</pdfrwt>
<totfact> 0.15968324E+04</totfact>
</mgrwt>
</event>
<event>
 7    1  0.7800420E-006  0.1739205E+03  0.7546771E-02  0.1182831E+00
         -2   -1    0    0    0  501 -0.00000000000E+00  0.00000000000E+00  0.26757065515E+02  0.26757065515E+02  0.00000000000E+00 0.  1.
          2   -1    0    0  501    0  0.00000000000E+00 -0.00000000000E+00 -0.13763779144E+04  0.13763779144E+04  0.00000000000E+00 0. -1.
         23    2    1    2    0    0  0.47518885344E+02 -0.11119810197E+03 -0.11182389059E+04  0.11316830843E+04  0.12500116186E+03 0.  0.
          5    1    3    3  502    0  0.15774244428E+02  0.91398468823E+00 -0.14968384384E+02  0.22266672099E+02  0.47000000000E+01 0. -1.
         -5    1    3    3    0  502  0.31744640915E+02 -0.11211208666E+03 -0.11032705215E+04  0.11094164122E+04  0.47000000000E+01 0. -1.
        -11    1    1    2    0    0 -0.27626200119E+02  0.72175111583E+01 -0.92590092199E+02  0.96892850994E+02  0.00000000000E+00 0. -1.
         11    1    1    2    0    0 -0.19892685225E+02  0.10398059081E+03 -0.13879185088E+03  0.17455904463E+03  0.00000000000E+00 0.  1.
<mgrwt>
<rscale>  0 0.16530788E+03</rscale>
<asrwt>0</asrwt>
<pdfrwt beam="2">  1        2 0.21175045E+00 0.17392054E+03</pdfrwt>
<pdfrwt beam="1">  1       -2 0.41164716E-02 0.17392054E+03</pdfrwt>
<totfact> 0.41582501E+03</totfact>
</mgrwt>
</event>
<event>
 7    1  0.7800420E-006  0.1381144E+03  0.7546771E-02  0.1227121E+00
         -3   -1    0    0    0  501 -0.00000000000E+00  0.00000000000E+00  0.41379898992E+03  0.41379898992E+03  0.00000000000E+00 0.  1.
          3   -1    0    0  501    0  0.00000000000E+00 -0.00000000000E+00 -0.36942586709E+02  0.36942586709E+02  0.00000000000E+00 0. -1.
         23    2    1    2    0    0  0.46761479663E+02  0.35520960234E+02  0.20926297132E+03  0.25073207820E+03  0.12500883680E+03 0.  0.
          5    1    3    3  502    0 -0.21523604361E+02 -0.12625927836E+02  0.13947281583E+03  0.14176542581E+03  0.47000000000E+01 0.  1.
         -5    1    3    3    0  502  0.68285084024E+02  0.48146888069E+02  0.69790155489E+02  0.10896665239E+03  0.47000000000E+01 0.  1.
        -11    1    1    2    0    0 -0.46978648429E+02  0.20765632977E+02  0.63504495290E+02  0.81676348126E+02  0.00000000000E+00 0. -1.
         11    1    1    2    0    0  0.21716876646E+00 -0.56286593211E+02  0.10408893660E+03  0.11833315030E+03  0.00000000000E+00 0.  1.
<mgrwt>
<rscale>  0 0.13022567E+03</rscale>
<asrwt>0</asrwt>
<pdfrwt beam="2">  1        3 0.56834752E-02 0.13811439E+03</pdfrwt>
<pdfrwt beam="1">  1       -3 0.63661380E-01 0.13811439E+03</pdfrwt>
<totfact> 0.10446325E+03</totfact>
</mgrwt>
</event>
<event>
 7    1  0.7800420E-006  0.1896103E+03  0.7546771E-02  0.1163745E+00
          1   -1    0    0  501    0  0.00000000000E+00  0.00000000000E+00  0.13630105330E+03  0.13630105330E+03  0.00000000000E+00 0. -1.
         -1   -1    0    0    0  501 -0.00000000000E+00 -0.00000000000E+00 -0.23629777425E+03  0.23629777425E+03  0.00000000000E+00 0.  1.
         23    2    1    2    0    0  0.50653638066E+02  0.13327595331E+03 -0.46212308721E+02  0.19516056898E+03  0.12499519762E+03 0.  0.
          5    1    3    3  502    0 -0.22854708801E+02  0.24930694504E+02  0.28381073461E+02  0.44401042484E+02  0.47000000000E+01 0.  1.
         -5    1    3    3    0  502  0.73508346867E+02  0.10834525881E+03 -0.74593382183E+02  0.15075952650E+03  0.47000000000E+01 0.  1.
        -11    1    1    2    0    0 -0.24068247266E+02 -0.21494362655E+02 -0.53570297112E+02  0.62538507218E+02  0.00000000000E+00 0.  1.
         11    1    1    2    0    0 -0.26585390799E+02 -0.11178159066E+03 -0.21411512252E+00  0.11489975134E+03  0.00000000000E+00 0. -1.
<mgrwt>
<rscale>  0 0.18425794E+03</rscale>
<asrwt>0</asrwt>
<pdfrwt beam="1">  1        1 0.20969393E-01 0.18961031E+03</pdfrwt>
<pdfrwt beam="2">  1       -1 0.36353503E-01 0.18961031E+03</pdfrwt>
<totfact> 0.17363160E+03</totfact>
</mgrwt>
</event>
<event>
 7    1  0.7800420E-006  0.2118779E+03  0.7546771E-02  0.1143689E+00
          4   -1    0    0  501    0  0.00000000000E+00  0.00000000000E+00  0.10943124430E+04  0.10943124430E+04  0.00000000000E+00 0. -1.
         -4   -1    0    0    0  501 -0.00000000000E+00 -0.00000000000E+00 -0.41024940924E+02  0.41024940924E+02  0.00000000000E+00 0.  1.
         23    2    1    2    0    0 -0.11203750005E+03 -0.12928299232E+03  0.70925046393E+03  0.74022191062E+03  0.12500305134E+03 0.  0.
          5    1    3    3  502    0  0.93787740758E+01 -0.14072231959E+02  0.80572831912E+01  0.19313180160E+02  0.47000000000E+01 0.  1.
         -5    1    3    3    0  502 -0.12141627413E+03 -0.11521076036E+03  0.70119318074E+03  0.72090873046E+03  0.47000000000E+01 0.  1.
        -11    1    1    2    0    0  0.83796546369E+02  0.27902235748E+02  0.17431657352E+03  0.19541408278E+03  0.00000000000E+00 0. -1.
         11    1    1    2    0    0  0.28240953686E+02  0.10138075657E+03  0.16972046458E+03  0.19970139049E+03  0.00000000000E+00 0.  1.
<mgrwt>
<rscale>  0 0.20734126E+03</rscale>
<asrwt>0</asrwt>
<pdfrwt beam="1">  1        4 0.16835574E+00 0.21187793E+03</pdfrwt>
<pdfrwt beam="2">  1       -4 0.63115302E-02 0.21187793E+03</pdfrwt>
<totfact> 0.68584205E+01</totfact>
</mgrwt>
</event>
<event>
 7    1  0.7800420E-006  0.1372913E+03  0.7546771E-02  0.1228568E+00
          2   -1    0    0  501    0  0.00000000000E+00  0.00000000000E+00  0.54135240998E+03  0.54135240998E+03  0.00000000000E+00 0. -1.
         -2   -1    0    0    0  501 -0.00000000000E+00 -0.00000000000E+00 -0.43385668948E+02  0.43385668948E+02  0.00000000000E+00 0.  1.
         23    2    1    2    0    0  0.33417953821E+02  0.45906533657E+02  0.44279917746E+03  0.46359467110E+03  0.12499895216E+03 0.  0.
          5    1    3    3  502    0  0.89953164100E-01  0.19715682491E+02  0.15916362457E+01  0.20330753394E+02  0.47000000000E+01 0. -1.
         -5    1    3    3    0  502  0.33328000657E+02  0.26190851167E+02  0.44120754121E+03  0.44326391770E+03  0.47000000000E+01 0. -1.
        -11    1    1    2    0    0 -0.60286303443E+02 -0.19372801293E+02  0.13192239856E+02  0.64682138224E+02  0.00000000000E+00 0. -1.
         11    1    1    2    0    0  0.26868349622E+02 -0.26533732364E+02  0.41975323716E+02  0.56461269607E+02  0.00000000000E+00 0.  1.
<mgrwt>
<rscale>  0 0.12925292E+03</rscale>
<asrwt>0</asrwt>
<pdfrwt beam="1">  1        2 0.83284981E-01 0.13729132E+03</pdfrwt>
<pdfrwt beam="2">  1       -2 0.66747187E-02 0.13729132E+03</pdfrwt>
<totfact> 0.68529933E+03</totfact>
</mgrwt>
</event>
<event>
 7    1  0.7800420E-006  0.1407001E+03  0.7546771E-02  0.1223813E+00
          1   -1    0    0  501    0  0.00000000000E+00  0.00000000000E+00  0.17152598324E+03  0.17152598324E+03  0.00000000000E+00 0. -1.
         -1   -1    0    0    0  501 -0.00000000000E+00 -0.00000000000E+00 -0.13711837879E+03  0.13711837879E+03  0.00000000000E+00 0.  1.
         23    2    1    2    0    0 -0.45811446983E+02  0.45517346398E+02  0.10663312675E+03  0.17654215843E+03  0.12500396987E+03 0.  0.
          5    1    3    3  502    0 -0.57242804949E+02  0.69636776721E+02  0.29783258099E+02  0.95053415791E+02  0.47000000000E+01 0. -1.
         -5    1    3    3    0  502  0.11431357966E+02 -0.24119430323E+02  0.76849868654E+02  0.81488742635E+02  0.47000000000E+01 0. -1.
        -11    1    1    2    0    0  0.34658644789E+02 -0.89183860367E+01  0.13481622508E+02  0.38242821726E+02  0.00000000000E+00 0. -1.
         11    1    1    2    0    0  0.11152802194E+02 -0.36598960362E+02 -0.85707144803E+02  0.93859381878E+02  0.00000000000E+00 0.  1.
<mgrwt>
<rscale>  0 0.13248566E+03</rscale>
<asrwt>0</asrwt>
<pdfrwt beam="1">  1        1 0.26388613E-01 0.14070007E+03</pdfrwt>
<pdfrwt beam="2">  1       -1 0.21095135E-01 0.14070007E+03</pdfrwt>
<totfact> 0.31882017E+03</totfact>
</mgrwt>
</event>
<event>
 7    1  0.7800420E-006  0.2526541E+03  0.7546771E-02  0.1114055E+00
          2   -1    0    0  501    0  0.00000000000E+00  0.00000000000E+00  0.13326659373E+03  0.13326659373E+03  0.00000000000E+00 0. -1.
         -2   -1    0    0    0  501 -0.00000000000E+00 -0.00000000000E+00 -0.72473063271E+03  0.72473063271E+03  0.00000000000E+00 0.  1.
         23    2    1    2    0    0  0.97805570225E+02  0.19658288670E+03 -0.37775397504E+02  0.25546245543E+03  0.12499329808E+03 0.  0.
          5    1    3    3  502    0  0.21695532626E+02  0.17066845999E+03 -0.26785848666E+02  0.17417804413E+03  0.47000000000E+01 0. -1.
         -5    1    3    3    0  502  0.76110037598E+02  0.25914426715E+02 -0.10989548838E+02  0.81284411290E+02  0.47000000000E+01 0. -1.
        -11    1    1    2    0    0 -0.79000179512E+02 -0.94525570449E+02 -0.38745590758E+03  0.40656880371E+03  0.00000000000E+00 0.  1.
         11    1    1    2    0    0 -0.18805390713E+02 -0.10205731625E+03 -0.16623273390E+03  0.19596596730E+03  0.00000000000E+00 0. -1.
<mgrwt>
<rscale>  0 0.24881624E+03</rscale>
<asrwt>0</asrwt>
<pdfrwt beam="1">  1        2 0.20502553E-01 0.25265408E+03</pdfrwt>
<pdfrwt beam="2">  1       -2 0.11149702E+00 0.25265408E+03</pdfrwt>
<totfact> 0.17973843E+02</totfact>
</mgrwt>
</event>
<event>
 7    1  0.7800420E-006  0.1430690E+03  0.7546771E-02  0.1227965E+00
         -1   -1    0    0    0  501 -0.00000000000E+00  0.00000000000E+00  0.35809161194E+02  0.35809161194E+02  0.00000000000E+00 0.  1.
          1   -1    0    0  501    0  0.00000000000E+00 -0.00000000000E+00 -0.67082683598E+03  0.67082683598E+03  0.00000000000E+00 0. -1.
         23    2    1    2    0    0 -0.74370374731E+02  0.31809231775E+02 -0.57602918208E+03  0.59353041225E+03  0.11800827002E+03 0.  0.
          5    1    3    3  502    0 -0.69512787978E+02  0.57612817062E+02 -0.54570851410E+03  0.55314657799E+03  0.47000000000E+01 0. -1.
         -5    1    3    3    0  502 -0.48575867528E+01 -0.25803585287E+02 -0.30320667985E+02  0.40383834263E+02  0.47000000000E+01 0.  1.
        -11    1    1    2    0    0  0.55341289864E+02 -0.30077030826E+02 -0.14423164989E+02  0.64616668402E+02  0.00000000000E+00 0.  1.
         11    1    1    2    0    0  0.19029084868E+02 -0.17322009490E+01 -0.44565327716E+02  0.48488916522E+02  0.00000000000E+00 0. -1.
<mgrwt>
<rscale>  0 0.12965720E+03</rscale>
<asrwt>0</asrwt>
<pdfrwt beam="2">  1        1 0.10320412E+00 0.14306898E+03</pdfrwt>
<pdfrwt beam="1">  1       -1 0.55091020E-02 0.14306898E+03</pdfrwt>
<totfact> 0.44384317E+03</totfact>
</mgrwt>
</event>
<event>
 7    1  0.7800420E-006  0.1390857E+03  0.7546771E-02  0.1227389E+00
          2   -1    0    0  501    0  0.00000000000E+00  0.00000000000E+00  0.22171851578E+03  0.22171851578E+03  0.00000000000E+00 0. -1.
         -2   -1    0    0    0  501 -0.00000000000E+00 -0.00000000000E+00 -0.68672395680E+02  0.68672395680E+02  0.00000000000E+00 0.  1.
         23    2    1    2    0    0  0.46103500901E+02 -0.39921257199E+02  0.71305082740E+02  0.15629853780E+03  0.12500231406E+03 0.  0.
          5    1    3    3  502    0  0.58153383954E+02  0.19414426098E+02  0.73126527381E+02  0.95542215867E+02  0.47000000000E+01 0. -1.
         -5    1    3    3    0  502 -0.12049883052E+02 -0.59335683298E+02 -0.18214446406E+01  0.60756321931E+02  0.47000000000E+01 0. -1.
        -11    1    1    2    0    0  0.23584676176E+02 -0.29305063147E+01  0.25242776670E+02  0.34670197455E+02  0.00000000000E+00 0.  1.
         11    1    1    2    0    0 -0.69688177077E+02  0.42851763514E+02  0.56498260688E+02  0.99422176205E+02  0.00000000000E+00 0. -1.
<mgrwt>
<rscale>  0 0.13004467E+03</rscale>
<asrwt>0</asrwt>
<pdfrwt beam="1">  1        2 0.34110541E-01 0.13908565E+03</pdfrwt>
<pdfrwt beam="2">  1       -2 0.10564984E-01 0.13908565E+03</pdfrwt>
<totfact> 0.87623675E+03</totfact>
</mgrwt>
</event>
<event>
 6    1  0.7800420E-006  0.1318041E+03  0.7546771E-02  0.1245946E+00
          2   -1    0    0  501    0  0.00000000000E+00  0.00000000000E+00  0.64817009600E+03  0.64817009600E+03  0.00000000000E+00 0. -1.
         -2   -1    0    0    0  501 -0.00000000000E+00 -0.00000000000E+00 -0.31501428011E+02  0.31501428011E+02  0.00000000000E+00 0.  1.
          5    1    1    2  502    0 -0.24147755400E+02  0.16594127022E+02  0.54253968023E+03  0.54335059931E+03  0.47000000000E+01 0. -1.
         -5    1    1    2    0  502  0.19452465241E+02 -0.20660754250E+02  0.21571491465E+02  0.35953920706E+02  0.47000000000E+01 0.  1.
        -11    1    1    2    0    0  0.15851343281E+02  0.39654652506E+02  0.10154837333E+02  0.43896210206E+02  0.00000000000E+00 0. -1.
         11    1    1    2    0    0 -0.11156053122E+02 -0.35588025278E+02  0.42402658955E+02  0.56470793787E+02  0.00000000000E+00 0.  1.
<mgrwt>
<rscale>  0 0.11828932E+03</rscale>
<asrwt>0</asrwt>
<pdfrwt beam="1">  1        2 0.99718467E-01 0.13180407E+03</pdfrwt>
<pdfrwt beam="2">  1       -2 0.48463740E-02 0.13180407E+03</pdfrwt>
<totfact> 0.90408892E+03</totfact>
</mgrwt>
</event>
<event>
 7    1  0.7800420E-006  0.1703933E+03  0.7546771E-02  0.1183798E+00
         -1   -1    0    0    0  501 -0.00000000000E+00  0.00000000000E+00  0.13978613696E+03  0.13978613696E+03  0.00000000000E+00 0.  1.
          1   -1    0    0  501    0  0.00000000000E+00 -0.00000000000E+00 -0.27442659055E+03  0.27442659055E+03  0.00000000000E+00 0. -1.
         23    2    1    2    0    0 -0.10267106362E+03 -0.53529257724E+02 -0.19113497322E+03  0.25605945911E+03  0.12500855921E+03 0.  0.
          5    1    3    3  502    0 -0.14009442417E+00 -0.31970787903E+02  0.59014995476E+01  0.32849179632E+02  0.47000000000E+01 0. -1.
         -5    1    3    3    0  502 -0.10253096920E+03 -0.21558469821E+02 -0.19703647277E+03  0.22321027948E+03  0.47000000000E+01 0. -1.
        -11    1    1    2    0    0  0.10038238653E+03  0.37565969418E+02  0.77068092867E+02  0.13201256199E+03  0.00000000000E+00 0.  1.
         11    1    1    2    0    0  0.22886770899E+01  0.15963288306E+02 -0.20573573236E+02  0.26140706419E+02  0.00000000000E+00 0. -1.
<mgrwt>
<rscale>  0 0.16441757E+03</rscale>
<asrwt>0</asrwt>
<pdfrwt beam="2">  1        1 0.42219475E-01 0.17039328E+03</pdfrwt>
<pdfrwt beam="1">  1       -1 0.21505560E-01 0.17039328E+03</pdfrwt>
<totfact> 0.17332395E+03</totfact>
</mgrwt>
</event>
<event>
 7    1  0.7800420E-006  0.1289478E+03  0.7546771E-02  0.1242112E+00
         -2   -1    0    0    0  501 -0.00000000000E+00  0.00000000000E+00  0.12290294864E+03  0.12290294864E+03  0.00000000000E+00 0.  1.
          2   -1    0    0  501    0  0.00000000000E+00 -0.00000000000E+00 -0.14713151121E+03  0.14713151121E+03  0.00000000000E+00 0. -1.
         23    2    1    2    0    0 -0.31312156659E+02 -0.48986379416E+01 -0.84737731417E+02  0.15429843820E+03  0.12499230815E+03 0.  0.
          5    1    3    3  502    0  0.66685731061E+00 -0.41154826144E+02 -0.95895217371E+02  0.10446122308E+03  0.47000000000E+01 0.  1.
         -5    1    3    3    0  502 -0.31979013970E+02  0.36256188202E+02  0.11157485954E+02  0.49837215113E+02  0.47000000000E+01 0.  1.
        -11    1    1    2    0    0  0.39337651494E+02  0.24598226842E+02  0.76262374483E+02  0.89266305797E+02  0.00000000000E+00 0.  1.
         11    1    1    2    0    0 -0.80254948348E+01 -0.19699588901E+02 -0.15753205636E+02  0.26469715865E+02  0.00000000000E+00 0. -1.
<mgrwt>
<rscale>  0 0.12059903E+03</rscale>
<asrwt>0</asrwt>
<pdfrwt beam="2">  1        2 0.22635617E-01 0.12894776E+03</pdfrwt>
<pdfrwt beam="1">  1       -2 0.18908146E-01 0.12894776E+03</pdfrwt>
<totfact> 0.52973629E+03</totfact>
</mgrwt>
</event>
<event>
 7    1  0.7800420E-006  0.2104068E+03  0.7546771E-02  0.1145223E+00
         -1   -1    0    0    0  501 -0.00000000000E+00  0.00000000000E+00  0.65099979362E+02  0.65099979362E+02  0.00000000000E+00 0.  1.
          1   -1    0    0  501    0  0.00000000000E+00 -0.00000000000E+00 -0.62042402883E+03  0.62042402883E+03  0.00000000000E+00 0. -1.
         23    2    1    2    0    0  0.16900875632E+03 -0.89565460997E+01 -0.27819282761E+03  0.34880121064E+03  0.12500742290E+03 0.  0.
          5    1    3    3  502    0  0.17978953953E+03 -0.31526534519E+02 -0.22448085922E+03  0.28936473015E+03  0.47000000000E+01 0.  1.
         -5    1    3    3    0  502 -0.10780783212E+02  0.22569988419E+02 -0.53711968393E+02  0.59436480486E+02  0.47000000000E+01 0.  1.
        -11    1    1    2    0    0 -0.24077306371E+02  0.16385233920E+02 -0.68084446342E+01  0.29908986794E+02  0.00000000000E+00 0.  1.
         11    1    1    2    0    0 -0.14493144994E+03 -0.74286878201E+01 -0.27032277722E+03  0.30681381076E+03  0.00000000000E+00 0. -1.
<mgrwt>
<rscale>  0 0.20544763E+03</rscale>
<asrwt>0</asrwt>
<pdfrwt beam="2">  1        1 0.95449851E-01 0.21040683E+03</pdfrwt>
<pdfrwt beam="1">  1       -1 0.10015381E-01 0.21040683E+03</pdfrwt>
<totfact> 0.20284518E+03</totfact>
</mgrwt>
</event>
<event>
 7    1  0.7800420E-006  0.1435241E+03  0.7546771E-02  0.1218494E+00
         -1   -1    0    0    0  501 -0.00000000000E+00  0.00000000000E+00  0.10755831438E+03  0.10755831438E+03  0.00000000000E+00 0.  1.
          1   -1    0    0  501    0  0.00000000000E+00 -0.00000000000E+00 -0.16261532543E+03  0.16261532543E+03  0.00000000000E+00 0. -1.
         23    2    1    2    0    0  0.14349678992E+02  0.69052094476E+02 -0.54932910632E+02  0.15367753383E+03  0.12500021878E+03 0.  0.
          5    1    3    3  502    0  0.69654311916E+02  0.32436738373E+02 -0.27441630928E+02  0.81725138560E+02  0.47000000000E+01 0.  1.
         -5    1    3    3    0  502 -0.55304632924E+02  0.36615356103E+02 -0.27491279704E+02  0.71952395271E+02  0.47000000000E+01 0.  1.
        -11    1    1    2    0    0  0.12013857922E+02 -0.84183756723E+02 -0.70211515254E+01  0.85326046708E+02  0.00000000000E+00 0. -1.
         11    1    1    2    0    0 -0.26363536914E+02  0.15131662246E+02  0.68970511110E+01  0.31170059271E+02  0.00000000000E+00 0.  1.
<mgrwt>
<rscale>  0 0.13622956E+03</rscale>
<asrwt>0</asrwt>
<pdfrwt beam="2">  1        1 0.25017742E-01 0.14352407E+03</pdfrwt>
<pdfrwt beam="1">  1       -1 0.16547433E-01 0.14352407E+03</pdfrwt>
<totfact> 0.50299871E+03</totfact>
</mgrwt>
</event>
<event>
 7    1  0.7800420E-006  0.1615171E+03  0.7546771E-02  0.1194076E+00
          2   -1    0    0  501    0  0.00000000000E+00  0.00000000000E+00  0.76499760459E+03  0.76499760459E+03  0.00000000000E+00 0. -1.
         -2   -1    0    0    0  501 -0.00000000000E+00 -0.00000000000E+00 -0.32811263064E+02  0.32811263064E+02  0.00000000000E+00 0.  1.
         23    2    1    2    0    0  0.53675077689E+02 -0.87084511235E+02  0.52092892227E+03  0.54539409793E+03  0.12499221553E+03 0.  0.
          5    1    3    3  502    0  0.84767365371E+01 -0.72609588335E+02  0.46979347675E+03  0.47547030209E+03  0.47000000000E+01 0. -1.
         -5    1    3    3    0  502  0.45198341152E+02 -0.14474922899E+02  0.51135445520E+02  0.69923795838E+02  0.47000000000E+01 0. -1.
        -11    1    1    2    0    0  0.22235264386E+02  0.17012184268E+02  0.18017572243E+02  0.33293457396E+02  0.00000000000E+00 0.  1.
         11    1    1    2    0    0 -0.75910342075E+02  0.70072326967E+02  0.19323984702E+03  0.21912131232E+03  0.00000000000E+00 0. -1.
<mgrwt>
<rscale>  0 0.15532674E+03</rscale>
<asrwt>0</asrwt>
<pdfrwt beam="1">  1        2 0.11769193E+00 0.16151712E+03</pdfrwt>
<pdfrwt beam="2">  1       -2 0.50478872E-02 0.16151712E+03</pdfrwt>
<totfact> 0.70568503E+03</totfact>
</mgrwt>
</event>
<event>
 7    1  0.7800420E-006  0.1294153E+03  0.7546771E-02  0.1242534E+00
          2   -1    0    0  501    0  0.00000000000E+00  0.00000000000E+00  0.67139802590E+03  0.67139802590E+03  0.00000000000E+00 0. -1.
         -2   -1    0    0    0  501 -0.00000000000E+00 -0.00000000000E+00 -0.19930106120E+02  0.19930106120E+02  0.00000000000E+00 0.  1.
         23    2    1    2    0    0  0.15358846905E+02  0.29748279301E+02  0.44263950267E+03  0.46117029472E+03  0.12500982803E+03 0.  0.
          5    1    3    3  502    0  0.21036452539E+02 -0.15404755758E+02  0.39211814883E+03  0.39301217726E+03  0.47000000000E+01 0.  1.
         -5    1    3    3    0  502 -0.56776056337E+01  0.45153035059E+02  0.50521353845E+02  0.68158117456E+02  0.47000000000E+01 0.  1.
        -11    1    1    2    0    0  0.24335747776E+02 -0.46417873837E+02  0.13309628283E+03  0.14304358824E+03  0.00000000000E+00 0.  1.
         11    1    1    2    0    0 -0.39694594681E+02  0.16669594536E+02  0.75732134270E+02  0.87114249064E+02  0.00000000000E+00 0. -1.
<mgrwt>
<rscale>  0 0.12034218E+03</rscale>
<asrwt>0</asrwt>
<pdfrwt beam="1">  1        2 0.10329199E+00 0.12941527E+03</pdfrwt>
<pdfrwt beam="2">  1       -2 0.30661707E-02 0.12941527E+03</pdfrwt>
<totfact> 0.17085295E+04</totfact>
</mgrwt>
</event>
<event>
 7    1  0.7800420E-006  0.2148763E+03  0.7546771E-02  0.1141290E+00
         -2   -1    0    0    0  501 -0.00000000000E+00  0.00000000000E+00  0.23130783224E+03  0.23130783224E+03  0.00000000000E+00 0.  1.
          2   -1    0    0  501    0  0.00000000000E+00 -0.00000000000E+00 -0.35621886955E+03  0.35621886955E+03  0.00000000000E+00 0. -1.
         23    2    1    2    0    0  0.15938305606E+03 -0.71713987551E+02 -0.26819945972E+03  0.34366084899E+03  0.12500389741E+03 0.  0.
          5    1    3    3  502    0 -0.31394712454E+01 -0.50485065884E+02 -0.68080162828E+02  0.84944668624E+02  0.47000000000E+01 0. -1.
         -5    1    3    3    0  502  0.16252252731E+03 -0.21228921666E+02 -0.20011929689E+03  0.25871618037E+03  0.47000000000E+01 0. -1.
        -11    1    1    2    0    0 -0.10669188234E+02  0.38010478282E+02  0.54880743831E+02  0.67605651245E+02  0.00000000000E+00 0.  1.
         11    1    1    2    0    0 -0.14871386783E+03  0.33703509269E+02  0.88407678575E+02  0.17626020156E+03  0.00000000000E+00 0. -1.
<mgrwt>
<rscale>  0 0.21034853E+03</rscale>
<asrwt>0</asrwt>
<pdfrwt beam="2">  1        2 0.54802903E-01 0.21487631E+03</pdfrwt>
<pdfrwt beam="1">  1       -2 0.35585821E-01 0.21487631E+03</pdfrwt>
<totfact> 0.67666757E+02</totfact>
</mgrwt>
</event>
<event>
 7    1  0.7800420E-006  0.1274011E+03  0.7546771E-02  0.1248776E+00
         -1   -1    0    0    0  501 -0.00000000000E+00  0.00000000000E+00  0.21098490727E+02  0.21098490727E+02  0.00000000000E+00 0.  1.
          1   -1    0    0  501    0  0.00000000000E+00 -0.00000000000E+00 -0.61930962961E+03  0.61930962961E+03  0.00000000000E+00 0. -1.
         23    2    1    2    0    0 -0.21200305991E+01 -0.24457040902E+02 -0.44617392773E+03  0.46400669030E+03  0.12501357315E+03 0.  0.
          5    1    3    3  502    0  0.38305305235E+02 -0.60789935849E+02 -0.27977712242E+03  0.28889451525E+03  0.47000000000E+01 0.  1.
         -5    1    3    3    0  502 -0.40425335834E+02  0.36332894947E+02 -0.16639680531E+03  0.17511217505E+03  0.47000000000E+01 0.  1.
        -11    1    1    2    0    0  0.33149057384E+02 -0.14489445180E+02 -0.40813202237E+02  0.54539174030E+02  0.00000000000E+00 0.  1.
         11    1    1    2    0    0 -0.31029026785E+02  0.38946486081E+02 -0.11122400892E+03  0.12186225601E+03  0.00000000000E+00 0. -1.
<mgrwt>
<rscale>  0 0.11662205E+03</rscale>
<asrwt>0</asrwt>
<pdfrwt beam="2">  1        1 0.95278400E-01 0.12740108E+03</pdfrwt>
<pdfrwt beam="1">  1       -1 0.32459218E-02 0.12740108E+03</pdfrwt>
<totfact> 0.10729458E+04</totfact>
</mgrwt>
</event>
<event>
 7    1  0.7800420E-006  0.1317962E+03  0.7546771E-02  0.1238235E+00
          2   -1    0    0  501    0  0.00000000000E+00  0.00000000000E+00  0.15624258618E+03  0.15624258618E+03  0.00000000000E+00 0. -1.
         -2   -1    0    0    0  501 -0.00000000000E+00 -0.00000000000E+00 -0.90929632966E+02  0.90929632966E+02  0.00000000000E+00 0.  1.
         23    2    1    2    0    0 -0.34673828097E+02 -0.23277587084E+02  0.65570339309E+02  0.14720630219E+03  0.12500442229E+03 0.  0.
          5    1    3    3  502    0  0.22923509639E+02  0.13044855454E+02 -0.23053783321E+02  0.35344341462E+02  0.47000000000E+01 0.  1.
         -5    1    3    3    0  502 -0.57597337736E+02 -0.36322442538E+02  0.88624122631E+02  0.11186196073E+03  0.47000000000E+01 0.  1.
        -11    1    1    2    0    0  0.12090320765E+02 -0.88577327174E+01 -0.40831345413E+02  0.43495218741E+02  0.00000000000E+00 0.  1.
         11    1    1    2    0    0  0.22583507332E+02  0.32135319802E+02  0.40573959322E+02  0.56470698218E+02  0.00000000000E+00 0. -1.
<mgrwt>
<rscale>  0 0.12299563E+03</rscale>
<asrwt>0</asrwt>
<pdfrwt beam="1">  1        2 0.24037321E-01 0.13179615E+03</pdfrwt>
<pdfrwt beam="2">  1       -2 0.13989174E-01 0.13179615E+03</pdfrwt>
<totfact> 0.81546900E+03</totfact>
</mgrwt>
</event>
<event>
 7    1  0.7800420E-006  0.1314640E+03  0.7546771E-02  0.1239372E+00
         -1   -1    0    0    0  501 -0.00000000000E+00  0.00000000000E+00  0.12702238753E+03  0.12702238753E+03  0.00000000000E+00 0.  1.
          1   -1    0    0  501    0  0.00000000000E+00 -0.00000000000E+00 -0.10401971891E+03  0.10401971891E+03  0.00000000000E+00 0. -1.
         23    2    1    2    0    0  0.20652491419E+02 -0.35092933986E+02  0.12266617585E+02  0.13203504076E+03  0.12499897065E+03 0.  0.
          5    1    3    3  502    0 -0.10766975986E+02 -0.76219196081E+02 -0.49808782080E+01  0.77279963579E+02  0.47000000000E+01 0. -1.
         -5    1    3    3    0  502  0.31419467405E+02  0.41126262095E+02  0.17247495793E+02  0.54755077180E+02  0.47000000000E+01 0. -1.
        -11    1    1    2    0    0 -0.72746019016E+01 -0.30479173885E+02  0.75805791257E+00  0.31344449674E+02  0.00000000000E+00 0.  1.
         11    1    1    2    0    0 -0.13377889518E+02  0.65572107871E+02  0.99779931203E+01  0.67662616010E+02  0.00000000000E+00 0. -1.
<mgrwt>
<rscale>  0 0.12228679E+03</rscale>
<asrwt>0</asrwt>
<pdfrwt beam="2">  1        1 0.16003034E-01 0.13146400E+03</pdfrwt>
<pdfrwt beam="1">  1       -1 0.19541906E-01 0.13146400E+03</pdfrwt>
<totfact> 0.67760893E+03</totfact>
</mgrwt>
</event>
<event>
 7    1  0.7800420E-006  0.1419289E+03  0.7546771E-02  0.1221702E+00
          2   -1    0    0  501    0  0.00000000000E+00  0.00000000000E+00  0.74014549956E+03  0.74014549956E+03  0.00000000000E+00 0. -1.
         -2   -1    0    0    0  501 -0.00000000000E+00 -0.00000000000E+00 -0.22556206016E+02  0.22556206016E+02  0.00000000000E+00 0.  1.
         23    2    1    2    0    0 -0.46448767407E+02 -0.48565057254E+02  0.46416255668E+03  0.48537685371E+03  0.12501103280E+03 0.  0.
          5    1    3    3  502    0 -0.45808701271E+02  0.33103285063E+02  0.13998929332E+03  0.15104091114E+03  0.47000000000E+01 0.  1.
         -5    1    3    3    0  502 -0.64006613570E+00 -0.81668342316E+02  0.32417326336E+03  0.33433594257E+03  0.47000000000E+01 0.  1.
        -11    1    1    2    0    0  0.22912579501E+02 -0.21263167836E+02  0.35620713976E+02  0.47391390251E+02  0.00000000000E+00 0.  1.
         11    1    1    2    0    0  0.23536187906E+02  0.69828225089E+02  0.21780602289E+03  0.22993346161E+03  0.00000000000E+00 0. -1.
<mgrwt>
<rscale>  0 0.13395533E+03</rscale>
<asrwt>0</asrwt>
<pdfrwt beam="1">  1        2 0.11386852E+00 0.14192889E+03</pdfrwt>
<pdfrwt beam="2">  1       -2 0.34701861E-02 0.14192889E+03</pdfrwt>
<totfact> 0.12761910E+04</totfact>
</mgrwt>
</event>
<event>
 7    1  0.7800420E-006  0.1400681E+03  0.7546771E-02  0.1223641E+00
         -1   -1    0    0    0  501 -0.00000000000E+00  0.00000000000E+00  0.21830291276E+03  0.21830291276E+03  0.00000000000E+00 0.  1.
          1   -1    0    0  501    0  0.00000000000E+00 -0.00000000000E+00 -0.73210616780E+02  0.73210616780E+02  0.00000000000E+00 0. -1.
         23    2    1    2    0    0 -0.19819324024E+02 -0.59963392179E+02  0.86941404569E+02  0.16485718152E+03  0.12502267181E+03 0.  0.
          5    1    3    3  502    0  0.45092439888E+02 -0.28245298298E+02  0.22850468287E+01  0.53464347466E+02  0.47000000000E+01 0.  1.
         -5    1    3    3    0  502 -0.64911763912E+02 -0.31718093881E+02  0.84656357740E+02  0.11139283406E+03  0.47000000000E+01 0.  1.
        -11    1    1    2    0    0 -0.13772578695E+02  0.70169400767E+02  0.18836194248E+02  0.73947487730E+02  0.00000000000E+00 0. -1.
         11    1    1    2    0    0  0.33591902719E+02 -0.10206008588E+02  0.39314697165E+02  0.52708860287E+02  0.00000000000E+00 0.  1.
<mgrwt>
<rscale>  0 0.13260504E+03</rscale>
<asrwt>0</asrwt>
<pdfrwt beam="2">  1        1 0.11263172E-01 0.14006814E+03</pdfrwt>
<pdfrwt beam="1">  1       -1 0.33585063E-01 0.14006814E+03</pdfrwt>
<totfact> 0.44017706E+03</totfact>
</mgrwt>
</event>
<event>
 7    1  0.7800420E-006  0.1268897E+03  0.7546771E-02  0.1247939E+00
         -4   -1    0    0    0  501 -0.00000000000E+00  0.00000000000E+00  0.63114063051E+02  0.63114063051E+02  0.00000000000E+00 0.  1.
          4   -1    0    0  501    0  0.00000000000E+00 -0.00000000000E+00 -0.20858399891E+03  0.20858399891E+03  0.00000000000E+00 0. -1.
         23    2    1    2    0    0 -0.21515008808E+02 -0.35251135066E+01 -0.12344174383E+03  0.17702788638E+03  0.12500274560E+03 0.  0.
          5    1    3    3  502    0 -0.91875529340E+00  0.30125538628E+02  0.14286115778E+02  0.33683457260E+02  0.47000000000E+01 0. -1.
         -5    1    3    3    0  502 -0.20596253515E+02 -0.33650652135E+02 -0.13772785961E+03  0.14334442912E+03  0.47000000000E+01 0. -1.
        -11    1    1    2    0    0  0.43458427076E+02 -0.17247565904E+02  0.12883349229E+02  0.48498392766E+02  0.00000000000E+00 0.  1.
         11    1    1    2    0    0 -0.21943418267E+02  0.20772679411E+02 -0.34911541256E+02  0.46171782812E+02  0.00000000000E+00 0. -1.
<mgrwt>
<rscale>  0 0.11711202E+03</rscale>
<asrwt>0</asrwt>
<pdfrwt beam="2">  1        4 0.32089846E-01 0.12688975E+03</pdfrwt>
<pdfrwt beam="1">  1       -4 0.97098558E-02 0.12688975E+03</pdfrwt>
<totfact> 0.12115574E+03</totfact>
</mgrwt>
</event>
<event>
 7    1  0.7800420E-006  0.2084576E+03  0.7546771E-02  0.1146751E+00
         -1   -1    0    0    0  501 -0.00000000000E+00  0.00000000000E+00  0.44374460767E+03  0.44374460767E+03  0.00000000000E+00 0.  1.
          1   -1    0    0  501    0  0.00000000000E+00 -0.00000000000E+00 -0.13184492495E+03  0.13184492495E+03  0.00000000000E+00 0. -1.
         23    2    1    2    0    0 -0.95875719409E+02  0.13652000715E+03 -0.24480959652E+01  0.20847194688E+03  0.12499877414E+03 0.  0.
          5    1    3    3  502    0 -0.72594672711E+02  0.47348571008E+02  0.52140022449E+02  0.10125485481E+03  0.47000000000E+01 0.  1.
         -5    1    3    3    0  502 -0.23281046698E+02  0.89171436145E+02 -0.54588118414E+02  0.10721709207E+03  0.47000000000E+01 0.  1.
        -11    1    1    2    0    0  0.65689777631E+02 -0.25589623495E+02  0.83909373680E+02  0.10959360705E+03  0.00000000000E+00 0.  1.
         11    1    1    2    0    0  0.30185941778E+02 -0.11093038366E+03  0.23043840500E+03  0.25752397869E+03  0.00000000000E+00 0. -1.
<mgrwt>
<rscale>  0 0.20358319E+03</rscale>
<asrwt>0</asrwt>
<pdfrwt beam="2">  1        1 0.20283835E-01 0.20845757E+03</pdfrwt>
<pdfrwt beam="1">  1       -1 0.68268401E-01 0.20845757E+03</pdfrwt>
<totfact> 0.56643284E+02</totfact>
</mgrwt>
</event>
<event>
 7    1  0.7800420E-006  0.1431678E+03  0.7546771E-02  0.1219954E+00
          2   -1    0    0  501    0  0.00000000000E+00  0.00000000000E+00  0.33278375021E+03  0.33278375021E+03  0.00000000000E+00 0. -1.
         -2   -1    0    0    0  501 -0.00000000000E+00 -0.00000000000E+00 -0.69575808153E+02  0.69575808153E+02  0.00000000000E+00 0.  1.
         23    2    1    2    0    0 -0.67616813222E+02 -0.17298563924E+02  0.24957909089E+03  0.28772683984E+03  0.12500295202E+03 0.  0.
          5    1    3    3  502    0 -0.35706092612E+02  0.70531725231E+00  0.60367213103E+00  0.36026059208E+02  0.47000000000E+01 0. -1.
         -5    1    3    3    0  502 -0.31910720610E+02 -0.18003881176E+02  0.24897541876E+03  0.25170078064E+03  0.47000000000E+01 0. -1.
        -11    1    1    2    0    0 -0.10431495359E+02  0.12954530312E+02 -0.22938045417E+02  0.28333546876E+02  0.00000000000E+00 0.  1.
         11    1    1    2    0    0  0.78048308581E+02  0.43440336118E+01  0.36566896588E+02  0.86299171644E+02  0.00000000000E+00 0. -1.
<mgrwt>
<rscale>  0 0.13518804E+03</rscale>
<asrwt>0</asrwt>
<pdfrwt beam="1">  1        2 0.51197499E-01 0.14316777E+03</pdfrwt>
<pdfrwt beam="2">  1       -2 0.10703971E-01 0.14316777E+03</pdfrwt>
<totfact> 0.55811899E+03</totfact>
</mgrwt>
</event>
<event>
 7    1  0.7800420E-006  0.1172057E+03  0.7546771E-02  0.1255234E+00
         -1   -1    0    0    0  501 -0.00000000000E+00  0.00000000000E+00  0.11818761513E+03  0.11818761513E+03  0.00000000000E+00 0.  1.
          1   -1    0    0  501    0  0.00000000000E+00 -0.00000000000E+00 -0.49058788491E+03  0.49058788491E+03  0.00000000000E+00 0. -1.
         23    2    1    2    0    0  0.28381065848E+02 -0.24259139221E+02 -0.46022419707E+03  0.47491418584E+03  0.11109987224E+03 0.  0.
          5    1    3    3  502    0 -0.17607333785E+02 -0.45234739002E+02 -0.35215702743E+03  0.35551773765E+03  0.47000000000E+01 0. -1.
         -5    1    3    3    0  502  0.45988399632E+02  0.20975599781E+02 -0.10806716964E+03  0.11939644819E+03  0.47000000000E+01 0.  1.
        -11    1    1    2    0    0 -0.17230614343E+02  0.49599081182E+02  0.13017517258E+02  0.54096383246E+02  0.00000000000E+00 0.  1.
         11    1    1    2    0    0 -0.11150451504E+02 -0.25339941961E+02  0.74806410037E+02  0.79764930953E+02  0.00000000000E+00 0. -1.
<mgrwt>
<rscale>  0 0.11293211E+03</rscale>
<asrwt>0</asrwt>
<pdfrwt beam="2">  1        1 0.75475060E-01 0.11720568E+03</pdfrwt>
<pdfrwt beam="1">  1       -1 0.18182710E-01 0.11720568E+03</pdfrwt>
<totfact> 0.10839881E+03</totfact>
</mgrwt>
</event>
<event>
 7    1  0.7800420E-006  0.1311798E+03  0.7546771E-02  0.1239664E+00
         -2   -1    0    0    0  501 -0.00000000000E+00  0.00000000000E+00  0.23940566395E+02  0.23940566395E+02  0.00000000000E+00 0.  1.
          2   -1    0    0  501    0  0.00000000000E+00 -0.00000000000E+00 -0.55447493699E+03  0.55447493699E+03  0.00000000000E+00 0. -1.
         23    2    1    2    0    0 -0.34430221628E+02 -0.19951284612E+02 -0.32620818908E+03  0.35159626625E+03  0.12499863161E+03 0.  0.
          5    1    3    3  502    0 -0.81344510876E+02 -0.55979126493E+01 -0.21321348239E+03  0.22832070679E+03  0.47000000000E+01 0.  1.
         -5    1    3    3    0  502  0.46914289248E+02 -0.14353371962E+02 -0.11299470669E+03  0.12327555947E+03  0.47000000000E+01 0.  1.
        -11    1    1    2    0    0  0.20487906624E+02 -0.21156650994E+02 -0.16697846273E+03  0.16955578792E+03  0.00000000000E+00 0. -1.
         11    1    1    2    0    0  0.13942315003E+02  0.41107935605E+02 -0.37347718782E+02  0.57263449211E+02  0.00000000000E+00 0.  1.
<mgrwt>
<rscale>  0 0.12210526E+03</rscale>
<asrwt>0</asrwt>
<pdfrwt beam="2">  1        2 0.85303830E-01 0.13117985E+03</pdfrwt>
<pdfrwt beam="1">  1       -2 0.36831643E-02 0.13117985E+03</pdfrwt>
<totfact> 0.16239430E+04</totfact>
</mgrwt>
</event>
<event>
 7    1  0.7800420E-006  0.1619434E+03  0.7546771E-02  0.1194081E+00
         -2   -1    0    0    0  501 -0.00000000000E+00  0.00000000000E+00  0.64591673034E+02  0.64591673034E+02  0.00000000000E+00 0.  1.
          2   -1    0    0  501    0  0.00000000000E+00 -0.00000000000E+00 -0.36508683128E+03  0.36508683128E+03  0.00000000000E+00 0. -1.
         23    2    1    2    0    0 -0.68903250960E+02 -0.76500840688E+02 -0.21108605878E+03  0.26605070201E+03  0.12500246081E+03 0.  0.
          5    1    3    3  502    0  0.11039733818E+02 -0.19021096911E+02  0.95213647219E+01  0.24421798391E+02  0.47000000000E+01 0.  1.
         -5    1    3    3    0  502 -0.79942984778E+02 -0.57479743778E+02 -0.22060742350E+03  0.24162890361E+03  0.47000000000E+01 0.  1.
        -11    1    1    2    0    0  0.86686077093E+02  0.57381027226E+02 -0.47603691720E+02  0.11433796269E+03  0.00000000000E+00 0.  1.
         11    1    1    2    0    0 -0.17782826133E+02  0.19119813462E+02 -0.41805407747E+02  0.49289839613E+02  0.00000000000E+00 0. -1.
<mgrwt>
<rscale>  0 0.15532255E+03</rscale>
<asrwt>0</asrwt>
<pdfrwt beam="2">  1        2 0.56167203E-01 0.16194336E+03</pdfrwt>
<pdfrwt beam="1">  1       -2 0.99371807E-02 0.16194336E+03</pdfrwt>
<totfact> 0.57260274E+03</totfact>
</mgrwt>
</event>
<event>
 7    1  0.7800420E-006  0.1543120E+03  0.7546771E-02  0.1203336E+00
         -3   -1    0    0    0  501 -0.00000000000E+00  0.00000000000E+00  0.93987335696E+02  0.93987335696E+02  0.00000000000E+00 0.  1.
          3   -1    0    0  501    0  0.00000000000E+00 -0.00000000000E+00 -0.43395536814E+03  0.43395536814E+03  0.00000000000E+00 0. -1.
         23    2    1    2    0    0  0.88380487554E+02 -0.17188029363E+02 -0.36479442306E+03  0.39608983651E+03  0.12532217904E+03 0.  0.
          5    1    3    3  502    0  0.91625482641E+02 -0.45676543388E+02 -0.34745265426E+03  0.36225269169E+03  0.47000000000E+01 0. -1.
         -5    1    3    3    0  502 -0.32449950868E+01  0.28488514024E+02 -0.17341768797E+02  0.33837144818E+02  0.47000000000E+01 0.  1.
        -11    1    1    2    0    0 -0.35025280547E+02 -0.43077380087E+01  0.56177257210E+02  0.66341624278E+02  0.00000000000E+00 0.  1.
         11    1    1    2    0    0 -0.53355207007E+02  0.21495767372E+02 -0.31350866598E+02  0.65511243051E+02  0.00000000000E+00 0. -1.
<mgrwt>
<rscale>  0 0.14769391E+03</rscale>
<asrwt>0</asrwt>
<pdfrwt beam="2">  1        3 0.66762364E-01 0.15431198E+03</pdfrwt>
<pdfrwt beam="1">  1       -3 0.14459590E-01 0.15431198E+03</pdfrwt>
<totfact> 0.20666745E+02</totfact>
</mgrwt>
</event>
<event>
 7    1  0.7800420E-006  0.1792916E+03  0.7546771E-02  0.1174088E+00
          2   -1    0    0  501    0  0.00000000000E+00  0.00000000000E+00  0.57955771105E+03  0.57955771105E+03  0.00000000000E+00 0. -1.
         -2   -1    0    0    0  501 -0.00000000000E+00 -0.00000000000E+00 -0.63791950957E+02  0.63791950957E+02  0.00000000000E+00 0.  1.
         23    2    1    2    0    0  0.12418806353E+03 -0.33120662674E+02  0.42511092602E+03  0.46137272657E+03  0.12500335990E+03 0.  0.
          5    1    3    3  502    0  0.54083750214E+02 -0.33510877729E+02  0.53745429930E+02  0.83418776074E+02  0.47000000000E+01 0. -1.
         -5    1    3    3    0  502  0.70104313321E+02  0.39021505524E+00  0.37136549609E+03  0.37795395050E+03  0.47000000000E+01 0. -1.
        -11    1    1    2    0    0 -0.36760317400E+02  0.16160161277E+02 -0.15826720442E+02  0.43161983594E+02  0.00000000000E+00 0.  1.
         11    1    1    2    0    0 -0.87427746135E+02  0.16960501397E+02  0.10648155452E+03  0.13881495184E+03  0.00000000000E+00 0. -1.
<mgrwt>
<rscale>  0 0.17365572E+03</rscale>
<asrwt>0</asrwt>
<pdfrwt beam="1">  1        2 0.89162721E-01 0.17929164E+03</pdfrwt>
<pdfrwt beam="2">  1       -2 0.98141467E-02 0.17929164E+03</pdfrwt>
<totfact> 0.35326714E+03</totfact>
</mgrwt>
</event>
<event>
 7    1  0.7800420E-006  0.1438330E+03  0.7546771E-02  0.1218600E+00
          2   -1    0    0  501    0  0.00000000000E+00  0.00000000000E+00  0.78720759211E+03  0.78720759211E+03  0.00000000000E+00 0. -1.
         -2   -1    0    0    0  501 -0.00000000000E+00 -0.00000000000E+00 -0.23875366367E+02  0.23875366367E+02  0.00000000000E+00 0.  1.
         23    2    1    2    0    0 -0.42771977721E+02 -0.56872115851E+02  0.54999948234E+03  0.56849569390E+03  0.12499617501E+03 0.  0.
          5    1    3    3  502    0 -0.76871059977E+02 -0.89728309563E+00  0.33145694136E+03  0.34028775904E+03  0.47000000000E+01 0.  1.
         -5    1    3    3    0  502  0.34099082256E+02 -0.55974832756E+02  0.21854254099E+03  0.22820793486E+03  0.47000000000E+01 0.  1.
        -11    1    1    2    0    0  0.58772707526E+02  0.64229400329E+02  0.12385318118E+03  0.15139107472E+03  0.00000000000E+00 0.  1.
         11    1    1    2    0    0 -0.16000729805E+02 -0.73572844783E+01  0.89479562227E+02  0.91196189862E+02  0.00000000000E+00 0. -1.
<mgrwt>
<rscale>  0 0.13615357E+03</rscale>
<asrwt>0</asrwt>
<pdfrwt beam="1">  1        2 0.12110884E+00 0.14383297E+03</pdfrwt>
<pdfrwt beam="2">  1       -2 0.36731339E-02 0.14383297E+03</pdfrwt>
<totfact> 0.10887681E+04</totfact>
</mgrwt>
</event>
<event>
 7    1  0.7800420E-006  0.1317027E+03  0.7546771E-02  0.1237891E+00
         -2   -1    0    0    0  501 -0.00000000000E+00  0.00000000000E+00  0.19199523854E+02  0.19199523854E+02  0.00000000000E+00 0.  1.
          2   -1    0    0  501    0  0.00000000000E+00 -0.00000000000E+00 -0.88727471261E+03  0.88727471261E+03  0.00000000000E+00 0. -1.
         23    2    1    2    0    0 -0.29688370727E+02 -0.28958782380E+02 -0.68402398792E+03  0.69658769104E+03  0.12500233929E+03 0.  0.
          5    1    3    3  502    0  0.34415578627E+01  0.35433185009E+02 -0.45331846640E+03  0.45473847088E+03  0.47000000000E+01 0.  1.
         -5    1    3    3    0  502 -0.33129928590E+02 -0.64391967389E+02 -0.23070552152E+03  0.24184922016E+03  0.47000000000E+01 0.  1.
        -11    1    1    2    0    0  0.59443211549E+00 -0.32691575965E+02 -0.61429890024E+02  0.69589682259E+02  0.00000000000E+00 0. -1.
         11    1    1    2    0    0  0.29093938611E+02  0.61650358345E+02 -0.12262131081E+03  0.14029686316E+03  0.00000000000E+00 0.  1.
<mgrwt>
<rscale>  0 0.12321148E+03</rscale>
<asrwt>0</asrwt>
<pdfrwt beam="2">  1        2 0.13650377E+00 0.13170268E+03</pdfrwt>
<pdfrwt beam="1">  1       -2 0.29537737E-02 0.13170268E+03</pdfrwt>
<totfact> 0.12833382E+04</totfact>
</mgrwt>
</event>
<event>
 7    1  0.7800420E-006  0.1761103E+03  0.7546771E-02  0.1177147E+00
          2   -1    0    0  501    0  0.00000000000E+00  0.00000000000E+00  0.38200543292E+03  0.38200543292E+03  0.00000000000E+00 0. -1.
         -2   -1    0    0    0  501 -0.00000000000E+00 -0.00000000000E+00 -0.72590116393E+02  0.72590116393E+02  0.00000000000E+00 0.  1.
         23    2    1    2    0    0 -0.39150216163E+02 -0.11770725717E+03  0.18641520619E+03  0.25644776644E+03  0.12500835970E+03 0.  0.
          5    1    3    3  502    0  0.35956553079E+02 -0.78349381594E+02  0.64044170142E+02  0.10749532564E+03  0.47000000000E+01 0.  1.
         -5    1    3    3    0  502 -0.75106769241E+02 -0.39357875574E+02  0.12237103605E+03  0.14895244079E+03  0.47000000000E+01 0.  1.
        -11    1    1    2    0    0 -0.31102186185E+02  0.34972392449E+02  0.38092040350E+02  0.60344160920E+02  0.00000000000E+00 0.  1.
         11    1    1    2    0    0  0.70252402347E+02  0.82734864719E+02  0.84908069988E+02  0.13780362196E+03  0.00000000000E+00 0. -1.
<mgrwt>
<rscale>  0 0.17067350E+03</rscale>
<asrwt>0</asrwt>
<pdfrwt beam="1">  1        2 0.58770065E-01 0.17611027E+03</pdfrwt>
<pdfrwt beam="2">  1       -2 0.11167710E-01 0.17611027E+03</pdfrwt>
<totfact> 0.45514883E+03</totfact>
</mgrwt>
</event>
<event>
 7    1  0.7800420E-006  0.1428479E+03  0.7546771E-02  0.1229147E+00
         -1   -1    0    0    0  501 -0.00000000000E+00  0.00000000000E+00  0.18860903007E+02  0.18860903007E+02  0.00000000000E+00 0.  1.
          1   -1    0    0  501    0  0.00000000000E+00 -0.00000000000E+00 -0.78952340817E+03  0.78952340817E+03  0.00000000000E+00 0. -1.
         23    2    1    2    0    0 -0.14669691992E+02 -0.67569945367E+02 -0.55094233021E+03  0.56915987703E+03  0.12499846811E+03 0.  0.
          5    1    3    3  502    0 -0.69236473294E+02 -0.26112211593E+02 -0.28960180950E+03  0.29894286226E+03  0.47000000000E+01 0.  1.
         -5    1    3    3    0  502  0.54566781302E+02 -0.41457733774E+02 -0.26134052071E+03  0.27021701478E+03  0.47000000000E+01 0.  1.
        -11    1    1    2    0    0  0.17266900001E+02  0.43131508856E+02 -0.20580198177E+03  0.21098087258E+03  0.00000000000E+00 0. -1.
         11    1    1    2    0    0 -0.25972080093E+01  0.24438436512E+02 -0.13918193188E+02  0.28243561571E+02  0.00000000000E+00 0.  1.
<mgrwt>
<rscale>  0 0.12886695E+03</rscale>
<asrwt>0</asrwt>
<pdfrwt beam="2">  1        1 0.12146513E+00 0.14284787E+03</pdfrwt>
<pdfrwt beam="1">  1       -1 0.29016776E-02 0.14284787E+03</pdfrwt>
<totfact> 0.89915976E+03</totfact>
</mgrwt>
</event>
<event>
 7    1  0.7800420E-006  0.1416523E+03  0.7546771E-02  0.1221244E+00
          1   -1    0    0  501    0  0.00000000000E+00  0.00000000000E+00  0.17773597791E+03  0.17773597791E+03  0.00000000000E+00 0. -1.
         -1   -1    0    0    0  501 -0.00000000000E+00 -0.00000000000E+00 -0.14951872740E+03  0.14951872740E+03  0.00000000000E+00 0.  1.
         23    2    1    2    0    0 -0.46030032849E+02  0.48173478535E+02  0.11598909504E+03  0.18308154887E+03  0.12500374158E+03 0.  0.
          5    1    3    3  502    0  0.10353497730E+02  0.30919259319E+02  0.11937100316E+03  0.12383344423E+03  0.47000000000E+01 0. -1.
         -5    1    3    3    0  502 -0.56383530580E+02  0.17254219216E+02 -0.33819081197E+01  0.59248104644E+02  0.47000000000E+01 0. -1.
        -11    1    1    2    0    0  0.21657172364E+01 -0.65822228947E+02 -0.40503333522E+02  0.77316079706E+02  0.00000000000E+00 0.  1.
         11    1    1    2    0    0  0.43864315613E+02  0.17648750411E+02 -0.47268511011E+02  0.66857076727E+02  0.00000000000E+00 0. -1.
<mgrwt>
<rscale>  0 0.13427714E+03</rscale>
<asrwt>0</asrwt>
<pdfrwt beam="1">  1        1 0.27343996E-01 0.14165233E+03</pdfrwt>
<pdfrwt beam="2">  1       -1 0.23002881E-01 0.14165233E+03</pdfrwt>
<totfact> 0.26505689E+03</totfact>
</mgrwt>
</event>
<event>
 7    1  0.7800420E-006  0.1607871E+03  0.7546771E-02  0.1194324E+00
         -1   -1    0    0    0  501 -0.00000000000E+00  0.00000000000E+00  0.75652672685E+02  0.75652672685E+02  0.00000000000E+00 0.  1.
          1   -1    0    0  501    0  0.00000000000E+00 -0.00000000000E+00 -0.29992429848E+03  0.29992429848E+03  0.00000000000E+00 0. -1.
         23    2    1    2    0    0 -0.78299998163E+02  0.72041740167E+02 -0.13684217211E+03  0.21113565603E+03  0.12054701631E+03 0.  0.
          5    1    3    3  502    0 -0.73326875395E+02  0.51420593399E+02 -0.15744353563E+03  0.18119455012E+03  0.47000000000E+01 0. -1.
         -5    1    3    3    0  502 -0.49731227681E+01  0.20621146768E+02  0.20601363524E+02  0.29941105911E+02  0.47000000000E+01 0.  1.
        -11    1    1    2    0    0  0.14370890699E+02  0.19854392833E+02 -0.29634746956E+02  0.38456958297E+02  0.00000000000E+00 0. -1.
         11    1    1    2    0    0  0.63929107464E+02 -0.91896133001E+02 -0.57794706728E+02  0.12598435684E+03  0.00000000000E+00 0.  1.
<mgrwt>
<rscale>  0 0.15511553E+03</rscale>
<asrwt>0</asrwt>
<pdfrwt beam="2">  1        1 0.46142200E-01 0.16078708E+03</pdfrwt>
<pdfrwt beam="1">  1       -1 0.11638873E-01 0.16078708E+03</pdfrwt>
<totfact> 0.40925671E+03</totfact>
</mgrwt>
</event>
<event>
 7    1  0.7800420E-006  0.1259959E+03  0.7546771E-02  0.1248832E+00
          1   -1    0    0  501    0  0.00000000000E+00  0.00000000000E+00  0.11465019677E+03  0.11465019677E+03  0.00000000000E+00 0. -1.
         -1   -1    0    0    0  501 -0.00000000000E+00 -0.00000000000E+00 -0.10429860505E+03  0.10429860505E+03  0.00000000000E+00 0.  1.
         23    2    1    2    0    0 -0.10948643464E+02  0.11420388433E+02  0.11914962896E+02  0.12655797877E+03  0.12499863033E+03 0.  0.
          5    1    3    3  502    0  0.43023463371E+02 -0.30612428203E+02  0.21723706760E+02  0.57290039242E+02  0.47000000000E+01 0. -1.
         -5    1    3    3    0  502 -0.53972106835E+02  0.42032816636E+02 -0.98087438636E+01  0.69267939530E+02  0.47000000000E+01 0. -1.
        -11    1    1    2    0    0  0.11134298712E+01 -0.51248147287E+02 -0.29299311276E+01  0.51343907359E+02  0.00000000000E+00 0.  1.
         11    1    1    2    0    0  0.98352135930E+01  0.39827758854E+02  0.13665599559E+01  0.41046915693E+02  0.00000000000E+00 0. -1.
<mgrwt>
<rscale>  0 0.11658934E+03</rscale>
<asrwt>0</asrwt>
<pdfrwt beam="1">  1        1 0.17638492E-01 0.12599586E+03</pdfrwt>
<pdfrwt beam="2">  1       -1 0.16045939E-01 0.12599586E+03</pdfrwt>
<totfact> 0.81489810E+03</totfact>
</mgrwt>
</event>
<event>
 7    1  0.7800420E-006  0.1522521E+03  0.7546771E-02  0.1202603E+00
         -1   -1    0    0    0  501 -0.00000000000E+00  0.00000000000E+00  0.66429457974E+02  0.66429457974E+02  0.00000000000E+00 0.  1.
          1   -1    0    0  501    0  0.00000000000E+00 -0.00000000000E+00 -0.65097142937E+03  0.65097142937E+03  0.00000000000E+00 0. -1.
         23    2    1    2    0    0 -0.40876945547E+02 -0.96854305250E+02 -0.55732730137E+03  0.57774945230E+03  0.11013186489E+03 0.  0.
          5    1    3    3  502    0 -0.86389659059E+01 -0.11143327463E+03 -0.47541167583E+03  0.48839569812E+03  0.47000000000E+01 0. -1.
         -5    1    3    3    0  502 -0.32237979641E+02  0.14578969381E+02 -0.81915625540E+02  0.89353754187E+02  0.47000000000E+01 0.  1.
        -11    1    1    2    0    0  0.17033677513E+02  0.63452730404E+02  0.27528688830E+02  0.71233586699E+02  0.00000000000E+00 0.  1.
         11    1    1    2    0    0  0.23843268035E+02  0.33401574846E+02 -0.54743358863E+02  0.68417848347E+02  0.00000000000E+00 0. -1.
<mgrwt>
<rscale>  0 0.14827983E+03</rscale>
<asrwt>0</asrwt>
<pdfrwt beam="2">  1        1 0.10014945E+00 0.15225212E+03</pdfrwt>
<pdfrwt beam="1">  1       -1 0.10219917E-01 0.15225212E+03</pdfrwt>
<totfact> 0.18270339E+03</totfact>
</mgrwt>
</event>
<event>
 7    1  0.7800420E-006  0.1290459E+03  0.7546771E-02  0.1243555E+00
         -2   -1    0    0    0  501 -0.00000000000E+00  0.00000000000E+00  0.86434727694E+01  0.86434727694E+01  0.00000000000E+00 0.  1.
          2   -1    0    0  501    0  0.00000000000E+00 -0.00000000000E+00 -0.18670001009E+04  0.18670001009E+04  0.00000000000E+00 0. -1.
         23    2    1    2    0    0 -0.75262330075E+01  0.31149294930E+02 -0.14715441884E+04  0.14771916377E+04  0.12500365255E+03 0.  0.
          5    1    3    3  502    0 -0.29767207346E+02  0.47561482918E+02 -0.13865418332E+04  0.13876845919E+04  0.47000000000E+01 0.  1.
         -5    1    3    3    0  502  0.22240974338E+02 -0.16412187987E+02 -0.85002355208E+02  0.89507045783E+02  0.47000000000E+01 0.  1.
        -11    1    1    2    0    0 -0.38608255532E+02 -0.28309012113E+01 -0.21000857980E+03  0.21354675129E+03  0.00000000000E+00 0. -1.
         11    1    1    2    0    0  0.46134488539E+02 -0.28318393719E+02 -0.17680385989E+03  0.18490518470E+03  0.00000000000E+00 0.  1.
<mgrwt>
<rscale>  0 0.11972279E+03</rscale>
<asrwt>0</asrwt>
<pdfrwt beam="2">  1        2 0.28723112E+00 0.12904587E+03</pdfrwt>
<pdfrwt beam="1">  1       -2 0.13297635E-02 0.12904587E+03</pdfrwt>
<totfact> 0.11986491E+04</totfact>
</mgrwt>
</event>
<event>
 7    1  0.7800420E-006  0.1351147E+03  0.7546771E-02  0.1232197E+00
          2   -1    0    0  501    0  0.00000000000E+00  0.00000000000E+00  0.55410148930E+02  0.55410148930E+02  0.00000000000E+00 0. -1.
         -2   -1    0    0    0  501 -0.00000000000E+00 -0.00000000000E+00 -0.26046236304E+03  0.26046236304E+03  0.00000000000E+00 0.  1.
         23    2    1    2    0    0 -0.36219549906E+02 -0.36272887885E+02 -0.10953662233E+03  0.17393752338E+03  0.12501364812E+03 0.  0.
          5    1    3    3  502    0  0.28731197030E+02 -0.58914319560E+02 -0.46332010051E+02  0.80405994101E+02  0.47000000000E+01 0.  1.
         -5    1    3    3    0  502 -0.64950746935E+02  0.22641431676E+02 -0.63204612274E+02  0.93531529275E+02  0.47000000000E+01 0.  1.
        -11    1    1    2    0    0  0.42003994859E+02  0.17671436170E+02 -0.10906752602E+03  0.11820465504E+03  0.00000000000E+00 0.  1.
         11    1    1    2    0    0 -0.57844449528E+01  0.18601451715E+02  0.13551934233E+02  0.23730333558E+02  0.00000000000E+00 0. -1.
<mgrwt>
<rscale>  0 0.12685603E+03</rscale>
<asrwt>0</asrwt>
<pdfrwt beam="1">  1        2 0.85246381E-02 0.13511473E+03</pdfrwt>
<pdfrwt beam="2">  1       -2 0.40071134E-01 0.13511473E+03</pdfrwt>
<totfact> 0.44324591E+03</totfact>
</mgrwt>
</event>
<event>
 6    1  0.7800420E-006  0.1438900E+03  0.7546771E-02  0.1219441E+00
         -1   -1    0    0    0  501 -0.00000000000E+00  0.00000000000E+00  0.14036485640E+02  0.14036485640E+02  0.00000000000E+00 0.  1.
          1   -1    0    0  501    0  0.00000000000E+00 -0.00000000000E+00 -0.17842515052E+04  0.17842515052E+04  0.00000000000E+00 0. -1.
          5    1    1    2  502    0  0.74125260983E+02  0.32110773393E+02 -0.13215765359E+04  0.13240514667E+04  0.47000000000E+01 0. -1.
         -5    1    1    2    0  502 -0.95462592213E+01 -0.36115243924E+02 -0.15448077497E+03  0.15900264697E+03  0.47000000000E+01 0.  1.
        -11    1    1    2    0    0 -0.77769058506E+02 -0.94699068282E+01 -0.28227763733E+03  0.29294772594E+03  0.00000000000E+00 0.  1.
         11    1    1    2    0    0  0.13190056745E+02  0.13474377359E+02 -0.11880071293E+02  0.22286151218E+02  0.00000000000E+00 0. -1.
<mgrwt>
<rscale>  0 0.13555292E+03</rscale>
<asrwt>0</asrwt>
<pdfrwt beam="2">  1        1 0.27450012E+00 0.14388995E+03</pdfrwt>
<pdfrwt beam="1">  1       -1 0.21594602E-02 0.14388995E+03</pdfrwt>
<totfact> 0.28427337E+03</totfact>
</mgrwt>
</event>
<event>
 7    1  0.7800420E-006  0.1156860E+03  0.7546771E-02  0.1262123E+00
         -1   -1    0    0    0  501 -0.00000000000E+00  0.00000000000E+00  0.31252993331E+03  0.31252993331E+03  0.00000000000E+00 0.  1.
          1   -1    0    0  501    0  0.00000000000E+00 -0.00000000000E+00 -0.49987901952E+02  0.49987901952E+02  0.00000000000E+00 0. -1.
         23    2    1    2    0    0 -0.58419733621E+01  0.14773230676E+02  0.40999028951E+02  0.12273620004E+03  0.11459004070E+03 0.  0.
          5    1    3    3  502    0 -0.53750367574E+02 -0.99903278722E+01  0.73145515962E-01  0.54872616264E+02  0.47000000000E+01 0. -1.
         -5    1    3    3    0  502  0.47908394212E+02  0.24763558548E+02  0.40925883435E+02  0.67863583776E+02  0.47000000000E+01 0.  1.
        -11    1    1    2    0    0 -0.21924726556E+02 -0.44187736405E+02  0.96793988188E+02  0.10863850990E+03  0.00000000000E+00 0.  1.
         11    1    1    2    0    0  0.27766699919E+02  0.29414505729E+02  0.12474901422E+03  0.13114312533E+03  0.00000000000E+00 0. -1.
<mgrwt>
<rscale>  0 0.10916553E+03</rscale>
<asrwt>0</asrwt>
<pdfrwt beam="2">  1        1 0.76904466E-02 0.11568602E+03</pdfrwt>
<pdfrwt beam="1">  1       -1 0.48081527E-01 0.11568602E+03</pdfrwt>
<totfact> 0.38492366E+03</totfact>
</mgrwt>
</event>
<event>
 6    1  0.7800420E-006  0.1384700E+03  0.7546771E-02  0.1229291E+00
          2   -1    0    0  501    0  0.00000000000E+00  0.00000000000E+00  0.29275028828E+03  0.29275028828E+03  0.00000000000E+00 0. -1.
         -2   -1    0    0    0  501 -0.00000000000E+00 -0.00000000000E+00 -0.52694697394E+02  0.52694697394E+02  0.00000000000E+00 0.  1.
          5    1    1    2  502    0  0.33193027546E+02 -0.24195773479E+02  0.15141217746E+03  0.15695524845E+03  0.47000000000E+01 0. -1.
         -5    1    1    2    0  502  0.41712087911E+00  0.61652508944E+02  0.23535559818E+02  0.66160550367E+02  0.47000000000E+01 0.  1.
        -11    1    1    2    0    0 -0.15232551388E+02  0.88908523145E+01 -0.18134898606E+02  0.25297280963E+02  0.00000000000E+00 0.  1.
         11    1    1    2    0    0 -0.18377597037E+02 -0.46347587779E+02  0.83242752208E+02  0.97031905892E+02  0.00000000000E+00 0. -1.
<mgrwt>
<rscale>  0 0.12877113E+03</rscale>
<asrwt>0</asrwt>
<pdfrwt beam="1">  1        2 0.45038505E-01 0.13847003E+03</pdfrwt>
<pdfrwt beam="2">  1       -2 0.81068767E-02 0.13847003E+03</pdfrwt>
<totfact> 0.98533555E+03</totfact>
</mgrwt>
</event>
<event>
 7    1  0.7800420E-006  0.1490439E+03  0.7546771E-02  0.1211422E+00
         -1   -1    0    0    0  501 -0.00000000000E+00  0.00000000000E+00  0.75499742297E+02  0.75499742297E+02  0.00000000000E+00 0.  1.
          1   -1    0    0  501    0  0.00000000000E+00 -0.00000000000E+00 -0.24866130879E+03  0.24866130879E+03  0.00000000000E+00 0. -1.
         23    2    1    2    0    0 -0.36770403221E+02 -0.72364487315E+02 -0.12333973986E+03  0.19346004770E+03  0.12500166819E+03 0.  0.
          5    1    3    3  502    0 -0.61876443820E+02 -0.95716067639E+02 -0.88749696002E+02  0.14452978394E+03  0.47000000000E+01 0.  1.
         -5    1    3    3    0  502  0.25106040599E+02  0.23351580324E+02 -0.34590043854E+02  0.48930263764E+02  0.47000000000E+01 0.  1.
        -11    1    1    2    0    0  0.10915089153E+02  0.56046889753E+02  0.14994385834E+02  0.59035791082E+02  0.00000000000E+00 0.  1.
         11    1    1    2    0    0  0.25855314068E+02  0.16317597562E+02 -0.64816212473E+02  0.71665212308E+02  0.00000000000E+00 0. -1.
<mgrwt>
<rscale>  0 0.14142685E+03</rscale>
<asrwt>0</asrwt>
<pdfrwt beam="2">  1        1 0.38255586E-01 0.14904395E+03</pdfrwt>
<pdfrwt beam="1">  1       -1 0.11615345E-01 0.14904395E+03</pdfrwt>
<totfact> 0.51596043E+03</totfact>
</mgrwt>
</event>
<event>
 7    1  0.7800420E-006  0.1354027E+03  0.7546771E-02  0.1232564E+00
          1   -1    0    0  501    0  0.00000000000E+00  0.00000000000E+00  0.35087505087E+02  0.35087505087E+02  0.00000000000E+00 0. -1.
         -1   -1    0    0    0  501 -0.00000000000E+00 -0.00000000000E+00 -0.51496482607E+03  0.51496482607E+03  0.00000000000E+00 0.  1.
         23    2    1    2    0    0  0.51890821085E+02 -0.39403804009E+01 -0.14004554765E+03  0.19479901643E+03  0.12500286986E+03 0.  0.
          5    1    3    3  502    0 -0.36739063126E+02  0.21356655976E+02 -0.37877645342E+02  0.57119799812E+02  0.47000000000E+01 0. -1.
         -5    1    3    3    0  502  0.88629884212E+02 -0.25297036377E+02 -0.10216790231E+03  0.13767921662E+03  0.47000000000E+01 0. -1.
        -11    1    1    2    0    0 -0.38109689914E+02 -0.40528126125E+02 -0.21307133474E+03  0.22021414841E+03  0.00000000000E+00 0.  1.
         11    1    1    2    0    0 -0.13781131171E+02  0.44468506526E+02 -0.12676043858E+03  0.13503916631E+03  0.00000000000E+00 0. -1.
<mgrwt>
<rscale>  0 0.12661679E+03</rscale>
<asrwt>0</asrwt>
<pdfrwt beam="1">  1        1 0.53980777E-02 0.13540274E+03</pdfrwt>
<pdfrwt beam="2">  1       -1 0.79225358E-01 0.13540274E+03</pdfrwt>
<totfact> 0.24104247E+03</totfact>
</mgrwt>
</event>
<event>
 7    1  0.7800420E-006  0.1153565E+03  0.7546771E-02  0.1338154E+00
          2   -1    0    0  501    0  0.00000000000E+00  0.00000000000E+00  0.54484419680E+03  0.54484419680E+03  0.00000000000E+00 0. -1.
         -2   -1    0    0    0  501 -0.00000000000E+00 -0.00000000000E+00 -0.17624461867E+02  0.17624461867E+02  0.00000000000E+00 0.  1.
         23    2    1    2    0    0 -0.13181192462E+02  0.16693636916E+02  0.52724215419E+03  0.53971418808E+03  0.11337854431E+03 0.  0.
          5    1    3    3  502    0  0.32510265566E+02 -0.32856593396E+02  0.25613565650E+03  0.26031526584E+03  0.47000000000E+01 0. -1.
         -5    1    3    3    0  502 -0.45691458028E+02  0.49550230312E+02  0.27110649768E+03  0.27939892224E+03  0.47000000000E+01 0.  1.
        -11    1    1    2    0    0  0.86808394446E+01 -0.51470328064E+01 -0.17479855576E+01  0.10242283617E+02  0.00000000000E+00 0. -1.
         11    1    1    2    0    0  0.45003530174E+01 -0.11546604110E+02  0.17255663003E+01  0.12512186971E+02  0.00000000000E+00 0.  1.
<mgrwt>
<rscale>  0 0.76877297E+02</rscale>
<asrwt>0</asrwt>
<pdfrwt beam="1">  1        2 0.83822171E-01 0.11535647E+03</pdfrwt>
<pdfrwt beam="2">  1       -2 0.27114561E-02 0.11535647E+03</pdfrwt>
<totfact> 0.25671349E+04</totfact>
</mgrwt>
</event>
<event>
 7    1  0.7800420E-006  0.1717333E+03  0.7546771E-02  0.1183489E+00
         -1   -1    0    0    0  501 -0.00000000000E+00  0.00000000000E+00  0.15167456403E+03  0.15167456403E+03  0.00000000000E+00 0.  1.
          1   -1    0    0  501    0  0.00000000000E+00 -0.00000000000E+00 -0.19441098103E+03  0.19441098103E+03  0.00000000000E+00 0. -1.
         23    2    1    2    0    0 -0.10096128194E+03  0.60610670309E+02 -0.89241887339E+02  0.19353668561E+03  0.12500200164E+03 0.  0.
          5    1    3    3  502    0 -0.63987078772E+02  0.97978689107E+02 -0.48065264426E+02  0.12659592969E+03  0.47000000000E+01 0.  1.
         -5    1    3    3    0  502 -0.36974203169E+02 -0.37368018798E+02 -0.41176622913E+02  0.66940755922E+02  0.47000000000E+01 0.  1.
        -11    1    1    2    0    0  0.89818311640E+02 -0.24754487131E+02  0.50333013398E+00  0.93168487592E+02  0.00000000000E+00 0. -1.
         11    1    1    2    0    0  0.11142970301E+02 -0.35856183178E+02  0.46002140204E+02  0.59380371863E+02  0.00000000000E+00 0.  1.
<mgrwt>
<rscale>  0 0.16470161E+03</rscale>
<asrwt>0</asrwt>
<pdfrwt beam="2">  1        1 0.29909382E-01 0.17173332E+03</pdfrwt>
<pdfrwt beam="1">  1       -1 0.23334548E-01 0.17173332E+03</pdfrwt>
<totfact> 0.23323450E+03</totfact>
</mgrwt>
</event>
<event>
 7    1  0.7800420E-006  0.1351214E+03  0.7546771E-02  0.1232111E+00
          1   -1    0    0  501    0  0.00000000000E+00  0.00000000000E+00  0.87880739753E+03  0.87880739753E+03  0.00000000000E+00 0. -1.
         -1   -1    0    0    0  501 -0.00000000000E+00 -0.00000000000E+00 -0.16470076164E+02  0.16470076164E+02  0.00000000000E+00 0.  1.
         23    2    1    2    0    0 -0.49877980178E+02  0.11940185042E+02  0.50831911979E+03  0.52597159346E+03  0.12500963428E+03 0.  0.
          5    1    3    3  502    0 -0.84786140969E+02 -0.17139724523E+02  0.38048698292E+03  0.39022415869E+03  0.47000000000E+01 0. -1.
         -5    1    3    3    0  502  0.34908160791E+02  0.29079909564E+02  0.12783213687E+03  0.13574743477E+03  0.47000000000E+01 0. -1.
        -11    1    1    2    0    0  0.39124845056E+02  0.31934538146E+02  0.10864919571E+03  0.11981325451E+03  0.00000000000E+00 0.  1.
         11    1    1    2    0    0  0.10753135122E+02 -0.43874723187E+02  0.24536900587E+03  0.24949262572E+03  0.00000000000E+00 0. -1.
<mgrwt>
<rscale>  0 0.12691191E+03</rscale>
<asrwt>0</asrwt>
<pdfrwt beam="1">  1        1 0.13520110E+00 0.13512139E+03</pdfrwt>
<pdfrwt beam="2">  1       -1 0.25338585E-02 0.13512139E+03</pdfrwt>
<totfact> 0.92577697E+03</totfact>
</mgrwt>
</event>
<event>
 7    1  0.7800420E-006  0.1653598E+03  0.7546771E-02  0.1189827E+00
          2   -1    0    0  501    0  0.00000000000E+00  0.00000000000E+00  0.29940150038E+03  0.29940150038E+03  0.00000000000E+00 0. -1.
         -2   -1    0    0    0  501 -0.00000000000E+00 -0.00000000000E+00 -0.95436730060E+02  0.95436730060E+02  0.00000000000E+00 0.  1.
         23    2    1    2    0    0  0.99867259747E+02 -0.41787657458E+02  0.19136970256E+03  0.25291546727E+03  0.12499677052E+03 0.  0.
          5    1    3    3  502    0  0.95349235552E+02 -0.24349229851E+02  0.50293126352E+02  0.11061577769E+03  0.47000000000E+01 0. -1.
         -5    1    3    3    0  502  0.45180241949E+01 -0.17438427606E+02  0.14107657621E+03  0.14229968958E+03  0.47000000000E+01 0. -1.
        -11    1    1    2    0    0 -0.13293603420E+02  0.89318496304E+01  0.41852375127E+02  0.44812042282E+02  0.00000000000E+00 0. -1.
         11    1    1    2    0    0 -0.86573656327E+02  0.32855807827E+02 -0.29257307367E+02  0.97110720892E+02  0.00000000000E+00 0.  1.
<mgrwt>
<rscale>  0 0.15900335E+03</rscale>
<asrwt>0</asrwt>
<pdfrwt beam="1">  1        2 0.46061769E-01 0.16535982E+03</pdfrwt>
<pdfrwt beam="2">  1       -2 0.14682574E-01 0.16535982E+03</pdfrwt>
<totfact> 0.37847722E+03</totfact>
</mgrwt>
</event>
<event>
 7    1  0.7800420E-006  0.2045481E+03  0.7546771E-02  0.1150197E+00
          2   -1    0    0  501    0  0.00000000000E+00  0.00000000000E+00  0.20420893433E+04  0.20420893433E+04  0.00000000000E+00 0. -1.
         -2   -1    0    0    0  501 -0.00000000000E+00 -0.00000000000E+00 -0.24462710686E+02  0.24462710686E+02  0.00000000000E+00 0.  1.
         23    2    1    2    0    0 -0.56008065028E+02  0.15191393599E+03  0.15539515539E+04  0.15673561723E+04  0.12500076712E+03 0.  0.
          5    1    3    3  502    0  0.59346045545E+01  0.77536263970E+02  0.11204484838E+04  0.11231535900E+04  0.47000000000E+01 0.  1.
         -5    1    3    3    0  502 -0.61942669583E+02  0.74377672017E+02  0.43350307008E+03  0.44420258236E+03  0.47000000000E+01 0.  1.
        -11    1    1    2    0    0  0.17354629608E+02 -0.13121148777E+03  0.40410672497E+03  0.42522921214E+03  0.00000000000E+00 0. -1.
         11    1    1    2    0    0  0.38653435420E+02 -0.20702448220E+02  0.59568353768E+02  0.73966669539E+02  0.00000000000E+00 0.  1.
<mgrwt>
<rscale>  0 0.19945871E+03</rscale>
<asrwt>0</asrwt>
<pdfrwt beam="1">  1        2 0.31416746E+00 0.20454813E+03</pdfrwt>
<pdfrwt beam="2">  1       -2 0.37634956E-02 0.20454813E+03</pdfrwt>
<totfact> 0.21352825E+03</totfact>
</mgrwt>
</event>
<event>
 7    1  0.7800420E-006  0.2038852E+03  0.7546771E-02  0.1150621E+00
          1   -1    0    0  501    0  0.00000000000E+00  0.00000000000E+00  0.13603915304E+03  0.13603915304E+03  0.00000000000E+00 0. -1.
         -1   -1    0    0    0  501 -0.00000000000E+00 -0.00000000000E+00 -0.27884550509E+03  0.27884550509E+03  0.00000000000E+00 0.  1.
         23    2    1    2    0    0 -0.97935626164E+02 -0.12788322523E+03 -0.61881948987E+02  0.21306938934E+03  0.12499473148E+03 0.  0.
          5    1    3    3  502    0 -0.98105562227E+00  0.20156055463E+02 -0.24595822298E+02  0.32160123079E+02  0.47000000000E+01 0.  1.
         -5    1    3    3    0  502 -0.96954570541E+02 -0.14803928069E+03 -0.37286126689E+02  0.18090926626E+03  0.47000000000E+01 0.  1.
        -11    1    1    2    0    0  0.18738533050E+02 -0.45079889899E+01 -0.36498616132E+02  0.41274732769E+02  0.00000000000E+00 0.  1.
         11    1    1    2    0    0  0.79197093114E+02  0.13239121422E+03 -0.44425786934E+02  0.16054053601E+03  0.00000000000E+00 0. -1.
<mgrwt>
<rscale>  0 0.19895821E+03</rscale>
<asrwt>0</asrwt>
<pdfrwt beam="1">  1        1 0.20929101E-01 0.20388524E+03</pdfrwt>
<pdfrwt beam="2">  1       -1 0.42899308E-01 0.20388524E+03</pdfrwt>
<totfact> 0.13018642E+03</totfact>
</mgrwt>
</event>
<event>
 7    1  0.7800420E-006  0.1618048E+03  0.7546771E-02  0.1194160E+00
         -2   -1    0    0    0  501 -0.00000000000E+00  0.00000000000E+00  0.68949206089E+02  0.68949206089E+02  0.00000000000E+00 0.  1.
          2   -1    0    0  501    0  0.00000000000E+00 -0.00000000000E+00 -0.34677172322E+03  0.34677172322E+03  0.00000000000E+00 0. -1.
         23    2    1    2    0    0 -0.10123868789E+03  0.17568408496E+02 -0.20263482085E+03  0.25930995525E+03  0.12499144518E+03 0.  0.
          5    1    3    3  502    0 -0.25268024281E+02  0.32724870767E+02 -0.17016920389E+03  0.17518287066E+03  0.47000000000E+01 0. -1.
         -5    1    3    3    0  502 -0.75970663610E+02 -0.15156462271E+02 -0.32465616959E+02  0.84127084595E+02  0.47000000000E+01 0. -1.
        -11    1    1    2    0    0  0.38925181387E+02  0.20783155230E+02  0.88272738602E+01  0.45000333900E+02  0.00000000000E+00 0.  1.
         11    1    1    2    0    0  0.62313506504E+02 -0.38351563726E+02 -0.84014970142E+02  0.11141064016E+03  0.00000000000E+00 0. -1.
<mgrwt>
<rscale>  0 0.15525499E+03</rscale>
<asrwt>0</asrwt>
<pdfrwt beam="2">  1        2 0.53349495E-01 0.16180477E+03</pdfrwt>
<pdfrwt beam="1">  1       -2 0.10607570E-01 0.16180477E+03</pdfrwt>
<totfact> 0.54563848E+03</totfact>
</mgrwt>
</event>
<event>
 7    1  0.7800420E-006  0.1381306E+03  0.7546771E-02  0.1227277E+00
          2   -1    0    0  501    0  0.00000000000E+00  0.00000000000E+00  0.14157459316E+04  0.14157459316E+04  0.00000000000E+00 0. -1.
         -2   -1    0    0    0  501 -0.00000000000E+00 -0.00000000000E+00 -0.11526659457E+02  0.11526659457E+02  0.00000000000E+00 0.  1.
         23    2    1    2    0    0  0.21791729486E+02  0.54602214099E+02  0.96234694163E+03  0.97220969941E+03  0.12499512918E+03 0.  0.
          5    1    3    3  502    0 -0.12456042437E+00 -0.25233798810E+02  0.50971882375E+02  0.57069982570E+02  0.47000000000E+01 0.  1.
         -5    1    3    3    0  502  0.21916289910E+02  0.79836012910E+02  0.91137505925E+03  0.91513971684E+03  0.47000000000E+01 0.  1.
        -11    1    1    2    0    0  0.33697628996E+02 -0.21071920175E+02  0.23282373731E+03  0.23619155081E+03  0.00000000000E+00 0. -1.
         11    1    1    2    0    0 -0.55489358482E+02 -0.33530293924E+02  0.20904859322E+03  0.21887134085E+03  0.00000000000E+00 0.  1.
<mgrwt>
<rscale>  0 0.13012043E+03</rscale>
<asrwt>0</asrwt>
<pdfrwt beam="1">  1        2 0.21780693E+00 0.13813060E+03</pdfrwt>
<pdfrwt beam="2">  1       -2 0.17733333E-02 0.13813060E+03</pdfrwt>
<totfact> 0.13559642E+04</totfact>
</mgrwt>
</event>
<event>
 7    1  0.7800420E-006  0.2166145E+03  0.7546771E-02  0.1139865E+00
         -1   -1    0    0    0  501 -0.00000000000E+00  0.00000000000E+00  0.32553971006E+03  0.32553971006E+03  0.00000000000E+00 0.  1.
          1   -1    0    0  501    0  0.00000000000E+00 -0.00000000000E+00 -0.13561106529E+03  0.13561106529E+03  0.00000000000E+00 0. -1.
         23    2    1    2    0    0  0.44310346470E+02  0.17126184333E+03  0.66109120714E+02  0.22647794678E+03  0.12501127451E+03 0.  0.
          5    1    3    3  502    0 -0.18867544984E+02  0.78147644811E+02 -0.22004101242E+02  0.83482388051E+02  0.47000000000E+01 0. -1.
         -5    1    3    3    0  502  0.63177891455E+02  0.93114198514E+02  0.88113221956E+02  0.14299555873E+03  0.47000000000E+01 0. -1.
        -11    1    1    2    0    0  0.27895350870E+02 -0.50330543436E+02  0.46598787403E+02  0.74045669625E+02  0.00000000000E+00 0.  1.
         11    1    1    2    0    0 -0.72205697340E+02 -0.12093129989E+03  0.77220736652E+02  0.16062715894E+03  0.00000000000E+00 0. -1.
<mgrwt>
<rscale>  0 0.21216279E+03</rscale>
<asrwt>0</asrwt>
<pdfrwt beam="2">  1        1 0.20863241E-01 0.21661451E+03</pdfrwt>
<pdfrwt beam="1">  1       -1 0.50083032E-01 0.21661451E+03</pdfrwt>
<totfact> 0.98744366E+02</totfact>
</mgrwt>
</event>
<event>
 7    1  0.7800420E-006  0.1605221E+03  0.7546771E-02  0.1195464E+00
         -2   -1    0    0    0  501 -0.00000000000E+00  0.00000000000E+00  0.40810010278E+02  0.40810010278E+02  0.00000000000E+00 0. -1.
          2   -1    0    0  501    0  0.00000000000E+00 -0.00000000000E+00 -0.58909322100E+03  0.58909322100E+03  0.00000000000E+00 0.  1.
         23    2    1    2    0    0 -0.77192429436E+02 -0.64674960726E+02 -0.38467157251E+03  0.41682079955E+03  0.12500335407E+03 0.  0.
          5    1    3    3  502    0 -0.70667736810E+02  0.96078854024E+01 -0.10273088516E+03  0.12514777367E+03  0.47000000000E+01 0. -1.
         -5    1    3    3    0  502 -0.65246926259E+01 -0.74282846128E+02 -0.28194068735E+03  0.29167302588E+03  0.47000000000E+01 0. -1.
        -11    1    1    2    0    0  0.36386806972E+02  0.41322037156E+02 -0.14790218344E+02  0.57011060637E+02  0.00000000000E+00 0. -1.
         11    1    1    2    0    0  0.40805622465E+02  0.23352923570E+02 -0.14882141987E+03  0.15607137110E+03  0.00000000000E+00 0.  1.
<mgrwt>
<rscale>  0 0.15414997E+03</rscale>
<asrwt>0</asrwt>
<pdfrwt beam="2">  1        2 0.90629724E-01 0.16052215E+03</pdfrwt>
<pdfrwt beam="1">  1       -2 0.62784633E-02 0.16052215E+03</pdfrwt>
<totfact> 0.69007211E+03</totfact>
</mgrwt>
</event>
<event>
 7    1  0.7800420E-006  0.1386033E+03  0.7546771E-02  0.1226371E+00
          1   -1    0    0  501    0  0.00000000000E+00  0.00000000000E+00  0.11232068407E+04  0.11232068407E+04  0.00000000000E+00 0. -1.
         -1   -1    0    0    0  501 -0.00000000000E+00 -0.00000000000E+00 -0.13758698509E+02  0.13758698509E+02  0.00000000000E+00 0.  1.
         23    2    1    2    0    0  0.56075922016E+02 -0.21017875981E+02  0.64767005594E+03  0.66233478684E+03  0.12499843343E+03 0.  0.
          5    1    3    3  502    0 -0.39634399211E+02 -0.80795923479E+01  0.15462166719E+03  0.15989407549E+03  0.47000000000E+01 0.  1.
         -5    1    3    3    0  502  0.95710321227E+02 -0.12938283633E+02  0.49304838875E+03  0.50244071135E+03  0.47000000000E+01 0.  1.
        -11    1    1    2    0    0 -0.77505371606E+02  0.33440456579E+02  0.33636500068E+03  0.34679498330E+03  0.00000000000E+00 0. -1.
         11    1    1    2    0    0  0.21429449590E+02 -0.12422580599E+02  0.12541308555E+03  0.12783576904E+03  0.00000000000E+00 0.  1.
<mgrwt>
<rscale>  0 0.13073367E+03</rscale>
<asrwt>0</asrwt>
<pdfrwt beam="1">  1        1 0.17280098E+00 0.13860328E+03</pdfrwt>
<pdfrwt beam="2">  1       -1 0.21167237E-02 0.13860328E+03</pdfrwt>
<totfact> 0.79570520E+03</totfact>
</mgrwt>
</event>
<event>
 7    1  0.7800420E-006  0.1325610E+03  0.7546771E-02  0.1237961E+00
         -2   -1    0    0    0  501 -0.00000000000E+00  0.00000000000E+00  0.68849733871E+02  0.68849733871E+02  0.00000000000E+00 0.  1.
          2   -1    0    0  501    0  0.00000000000E+00 -0.00000000000E+00 -0.19544985885E+03  0.19544985885E+03  0.00000000000E+00 0. -1.
         23    2    1    2    0    0 -0.30698039735E+01  0.44625956153E+02 -0.82259316427E+02  0.15600967061E+03  0.12478590677E+03 0.  0.
          5    1    3    3  502    0  0.57608407283E+02  0.25249994434E+02 -0.63358596792E+02  0.89401860138E+02  0.47000000000E+01 0. -1.
         -5    1    3    3    0  502 -0.60678211256E+02  0.19375961719E+02 -0.18900719635E+02  0.66607810477E+02  0.47000000000E+01 0. -1.
        -11    1    1    2    0    0 -0.22011989971E+02 -0.60835496753E+02 -0.14972997923E+02  0.66405391607E+02  0.00000000000E+00 0.  1.
         11    1    1    2    0    0  0.25081793945E+02  0.16209540600E+02 -0.29367810626E+02  0.41884530497E+02  0.00000000000E+00 0. -1.
<mgrwt>
<rscale>  0 0.12316758E+03</rscale>
<asrwt>0</asrwt>
<pdfrwt beam="2">  1        2 0.30069209E-01 0.13256101E+03</pdfrwt>
<pdfrwt beam="1">  1       -2 0.10592267E-01 0.13256101E+03</pdfrwt>
<totfact> 0.99614154E+03</totfact>
</mgrwt>
</event>
<event>
 7    1  0.7800420E-006  0.1408201E+03  0.7546771E-02  0.1223359E+00
          1   -1    0    0  501    0  0.00000000000E+00  0.00000000000E+00  0.29655163118E+03  0.29655163118E+03  0.00000000000E+00 0. -1.
         -1   -1    0    0    0  501 -0.00000000000E+00 -0.00000000000E+00 -0.66636319796E+02  0.66636319796E+02  0.00000000000E+00 0.  1.
         23    2    1    2    0    0  0.29777397594E+02 -0.57614099911E+02  0.20557275559E+03  0.24917955903E+03  0.12499686749E+03 0.  0.
          5    1    3    3  502    0 -0.47351006546E+02 -0.30900134379E+02  0.10700996427E+03  0.12112043006E+03  0.47000000000E+01 0.  1.
         -5    1    3    3    0  502  0.77128404140E+02 -0.26713965532E+02  0.98562791324E+02  0.12805912897E+03  0.47000000000E+01 0.  1.
        -11    1    1    2    0    0  0.20738398823E+02  0.56600598688E+02  0.18984872126E+02  0.63199163976E+02  0.00000000000E+00 0. -1.
         11    1    1    2    0    0 -0.50515796417E+02  0.10135012227E+01  0.53576836656E+01  0.50809227967E+02  0.00000000000E+00 0.  1.
<mgrwt>
<rscale>  0 0.13280046E+03</rscale>
<asrwt>0</asrwt>
<pdfrwt beam="1">  1        1 0.45623327E-01 0.14082008E+03</pdfrwt>
<pdfrwt beam="2">  1       -1 0.10251742E-01 0.14082008E+03</pdfrwt>
<totfact> 0.50096113E+03</totfact>
</mgrwt>
</event>
<event>
 7    1  0.7800420E-006  0.1301006E+03  0.7546771E-02  0.1254744E+00
         -2   -1    0    0    0  501 -0.00000000000E+00  0.00000000000E+00  0.75335784612E+01  0.75335784612E+01  0.00000000000E+00 0.  1.
          2   -1    0    0  501    0  0.00000000000E+00 -0.00000000000E+00 -0.16568512668E+04  0.16568512668E+04  0.00000000000E+00 0. -1.
         23    2    1    2    0    0 -0.75331723689E+01  0.35273934307E+02 -0.13356562694E+04  0.13419775824E+04  0.12500065104E+03 0.  0.
          5    1    3    3  502    0  0.21529881142E+02  0.58928032922E+02 -0.35076394646E+03  0.35636145272E+03  0.47000000000E+01 0. -1.
         -5    1    3    3    0  502 -0.29063053511E+02 -0.23654098616E+02 -0.98489232291E+03  0.98561612973E+03  0.47000000000E+01 0. -1.
        -11    1    1    2    0    0 -0.28459390708E+02 -0.90756159493E+01 -0.11465819158E+03  0.11848546164E+03  0.00000000000E+00 0. -1.
         11    1    1    2    0    0  0.35992563077E+02 -0.26198318357E+02 -0.19900322744E+03  0.20392180122E+03  0.00000000000E+00 0.  1.
<mgrwt>
<rscale>  0 0.11320684E+03</rscale>
<asrwt>0</asrwt>
<pdfrwt beam="2">  1        2 0.25490024E+00 0.13010058E+03</pdfrwt>
<pdfrwt beam="1">  1       -2 0.11590119E-02 0.13010058E+03</pdfrwt>
<totfact> 0.18695468E+04</totfact>
</mgrwt>
</event>
<event>
 7    1  0.7800420E-006  0.2228131E+03  0.7546771E-02  0.1134984E+00
          2   -1    0    0  501    0  0.00000000000E+00  0.00000000000E+00  0.10612091060E+04  0.10612091060E+04  0.00000000000E+00 0. -1.
         -2   -1    0    0    0  501 -0.00000000000E+00 -0.00000000000E+00 -0.44929424441E+02  0.44929424441E+02  0.00000000000E+00 0.  1.
         23    2    1    2    0    0  0.99389583704E+02  0.15537947953E+03  0.63069105110E+03  0.66889227998E+03  0.12499843310E+03 0.  0.
          5    1    3    3  502    0  0.11535597536E+03  0.68295049059E+02  0.37612762484E+03  0.39933105933E+03  0.47000000000E+01 0.  1.
         -5    1    3    3    0  502 -0.15966391653E+02  0.87084430467E+02  0.25456342626E+03  0.26956122065E+03  0.47000000000E+01 0.  1.
        -11    1    1    2    0    0 -0.39715572911E+02 -0.10869200207E+03  0.30698148326E+03  0.32806845187E+03  0.00000000000E+00 0. -1.
         11    1    1    2    0    0 -0.59674010793E+02 -0.46687477456E+02  0.78607147216E+02  0.10917779861E+03  0.00000000000E+00 0.  1.
<mgrwt>
<rscale>  0 0.21853019E+03</rscale>
<asrwt>0</asrwt>
<pdfrwt beam="1">  1        2 0.16326292E+00 0.22281311E+03</pdfrwt>
<pdfrwt beam="2">  1       -2 0.69122199E-02 0.22281311E+03</pdfrwt>
<totfact> 0.28527184E+03</totfact>
</mgrwt>
</event>
<event>
 7    1  0.7800420E-006  0.1389926E+03  0.7546771E-02  0.1227142E+00
         -2   -1    0    0    0  501 -0.00000000000E+00  0.00000000000E+00  0.41423064348E+02  0.41423064348E+02  0.00000000000E+00 0.  1.
          2   -1    0    0  501    0  0.00000000000E+00 -0.00000000000E+00 -0.39210136368E+03  0.39210136368E+03  0.00000000000E+00 0. -1.
         23    2    1    2    0    0  0.58750829539E+02  0.15578103209E+02 -0.25267850982E+03  0.28838408891E+03  0.12499846455E+03 0.  0.
          5    1    3    3  502    0  0.67977229945E+02  0.61224296939E+02 -0.15440978260E+03  0.17953770994E+03  0.47000000000E+01 0. -1.
         -5    1    3    3    0  502 -0.92264004055E+01 -0.45646193730E+02 -0.98268727215E+02  0.10884637897E+03  0.47000000000E+01 0. -1.
        -11    1    1    2    0    0 -0.65835051260E+02  0.65637521736E+01 -0.28832925329E+02  0.72171146589E+02  0.00000000000E+00 0.  1.
         11    1    1    2    0    0  0.70842217206E+01 -0.22141855383E+02 -0.69166864188E+02  0.72969192532E+02  0.00000000000E+00 0. -1.
<mgrwt>
<rscale>  0 0.13021177E+03</rscale>
<asrwt>0</asrwt>
<pdfrwt beam="2">  1        2 0.60323289E-01 0.13899264E+03</pdfrwt>
<pdfrwt beam="1">  1       -2 0.63727789E-02 0.13899264E+03</pdfrwt>
<totfact> 0.10452198E+04</totfact>
</mgrwt>
</event>
<event>
 7    1  0.7800420E-006  0.1787991E+03  0.7546771E-02  0.1174256E+00
         -2   -1    0    0    0  501 -0.00000000000E+00  0.00000000000E+00  0.16167999113E+02  0.16167999113E+02  0.00000000000E+00 0.  1.
          2   -1    0    0  501    0  0.00000000000E+00 -0.00000000000E+00 -0.18261637784E+04  0.18261637784E+04  0.00000000000E+00 0. -1.
         23    2    1    2    0    0 -0.28656667512E+01  0.12781419223E+03 -0.11336691903E+04  0.11476824333E+04  0.12499781971E+03 0.  0.
          5    1    3    3  502    0  0.47108458289E+01  0.11792741375E+03 -0.11262790989E+04  0.11324556351E+04  0.47000000000E+01 0.  1.
         -5    1    3    3    0  502 -0.75765125801E+01  0.98867784810E+01 -0.73900914185E+01  0.15226798179E+02  0.47000000000E+01 0.  1.
        -11    1    1    2    0    0 -0.23117899529E+02 -0.11628574785E+03 -0.62337967613E+03  0.63455420024E+03  0.00000000000E+00 0. -1.
         11    1    1    2    0    0  0.25983566280E+02 -0.11528444380E+02 -0.52946912898E+02  0.60095143996E+02  0.00000000000E+00 0.  1.
<mgrwt>
<rscale>  0 0.17349088E+03</rscale>
<asrwt>0</asrwt>
<pdfrwt beam="2">  1        2 0.28094824E+00 0.17879915E+03</pdfrwt>
<pdfrwt beam="1">  1       -2 0.24873848E-02 0.17879915E+03</pdfrwt>
<totfact> 0.51081194E+03</totfact>
</mgrwt>
</event>
<event>
 7    1  0.7800420E-006  0.1730061E+03  0.7546771E-02  0.1181663E+00
         -1   -1    0    0    0  501 -0.00000000000E+00  0.00000000000E+00  0.93907117899E+02  0.93907117899E+02  0.00000000000E+00 0.  1.
          1   -1    0    0  501    0  0.00000000000E+00 -0.00000000000E+00 -0.28274134158E+03  0.28274134158E+03  0.00000000000E+00 0. -1.
         23    2    1    2    0    0 -0.84273264974E+02  0.84883839878E+02 -0.13384223142E+03  0.21873467342E+03  0.12499545986E+03 0.  0.
          5    1    3    3  502    0 -0.55284953155E+02  0.33197088506E+01 -0.11823854314E+03  0.13065178757E+03  0.47000000000E+01 0. -1.
         -5    1    3    3    0  502 -0.28988311819E+02  0.81564131027E+02 -0.15603688279E+02  0.88082885853E+02  0.47000000000E+01 0. -1.
        -11    1    1    2    0    0  0.21674494154E+02 -0.81834391123E+02 -0.39145086265E+02  0.93268371091E+02  0.00000000000E+00 0. -1.
         11    1    1    2    0    0  0.62598770820E+02 -0.30494487552E+01 -0.15846905996E+02  0.64645414962E+02  0.00000000000E+00 0.  1.
<mgrwt>
<rscale>  0 0.16639219E+03</rscale>
<asrwt>0</asrwt>
<pdfrwt beam="2">  1        1 0.43498668E-01 0.17300611E+03</pdfrwt>
<pdfrwt beam="1">  1       -1 0.14447249E-01 0.17300611E+03</pdfrwt>
<totfact> 0.31546043E+03</totfact>
</mgrwt>
</event>
<event>
 7    1  0.7800420E-006  0.2994671E+03  0.7546771E-02  0.1087104E+00
         -1   -1    0    0    0  501 -0.00000000000E+00  0.00000000000E+00  0.27720764004E+03  0.27720764004E+03  0.00000000000E+00 0.  1.
          1   -1    0    0  501    0  0.00000000000E+00 -0.00000000000E+00 -0.52241312798E+03  0.52241312798E+03  0.00000000000E+00 0. -1.
         23    2    1    2    0    0  0.15400548286E+03  0.22436120609E+03 -0.37894043656E+03  0.48298698010E+03  0.12499971574E+03 0.  0.
          5    1    3    3  502    0  0.16992374138E+03  0.20557637185E+03 -0.37049584981E+03  0.45653585541E+03  0.47000000000E+01 0. -1.
         -5    1    3    3    0  502 -0.15918258521E+02  0.18784834244E+02 -0.84445867477E+01  0.26451124688E+02  0.47000000000E+01 0. -1.
        -11    1    1    2    0    0 -0.11642988414E+03 -0.15145765662E+03  0.13613605222E+03  0.23458125327E+03  0.00000000000E+00 0.  1.
         11    1    1    2    0    0 -0.37575598723E+02 -0.72903549467E+02 -0.24011036055E+01  0.82052534651E+02  0.00000000000E+00 0. -1.
<mgrwt>
<rscale>  0 0.29630179E+03</rscale>
<asrwt>0</asrwt>
<pdfrwt beam="2">  1        1 0.80371250E-01 0.29946714E+03</pdfrwt>
<pdfrwt beam="1">  1       -1 0.42647329E-01 0.29946714E+03</pdfrwt>
<totfact> 0.23558671E+02</totfact>
</mgrwt>
</event>
<event>
 7    1  0.8590599E-006  0.1274827E+03  0.7546771E-02  0.1247437E+00
         -1   -1    0    0    0  501 -0.00000000000E+00  0.00000000000E+00  0.66394021693E+02  0.66394021693E+02  0.00000000000E+00 0.  1.
          1   -1    0    0  501    0  0.00000000000E+00 -0.00000000000E+00 -0.19957263737E+03  0.19957263737E+03  0.00000000000E+00 0. -1.
         23    2    1    2    0    0 -0.21794118875E+02 -0.12323624456E+02 -0.11661112850E+03  0.17277153989E+03  0.12499997748E+03 0.  0.
          5    1    3    3  502    0  0.41624613366E+00 -0.10024023328E+02  0.26044227442E+02  0.28302757596E+02  0.47000000000E+01 0.  1.
         -5    1    3    3    0  502 -0.22210365009E+02 -0.22996011281E+01 -0.14265535594E+03  0.14446878229E+03  0.47000000000E+01 0.  1.
        -11    1    1    2    0    0 -0.22977413607E+02 -0.12256220761E+02  0.17880101034E+02  0.31589151561E+02  0.00000000000E+00 0. -1.
         11    1    1    2    0    0  0.44771532482E+02  0.24579845217E+02 -0.34447588213E+02  0.61605967612E+02  0.00000000000E+00 0.  1.
<mgrwt>
<rscale>  0 0.11740687E+03</rscale>
<asrwt>0</asrwt>
<pdfrwt beam="2">  1        1 0.30703482E-01 0.12748274E+03</pdfrwt>
<pdfrwt beam="1">  1       -1 0.10214465E-01 0.12748274E+03</pdfrwt>
<totfact> 0.81695983E+03</totfact>
</mgrwt>
</event>
<event>
 7    1  0.7800420E-006  0.1610821E+03  0.7546771E-02  0.1195992E+00
         -2   -1    0    0    0  501 -0.00000000000E+00  0.00000000000E+00  0.47128986173E+02  0.47128986173E+02  0.00000000000E+00 0.  1.
          2   -1    0    0  501    0  0.00000000000E+00 -0.00000000000E+00 -0.55756765128E+03  0.55756765128E+03  0.00000000000E+00 0. -1.
         23    2    1    2    0    0  0.10140461506E+03  0.67026701833E+01 -0.40064594329E+03  0.43181548224E+03  0.12497846648E+03 0.  0.
          5    1    3    3  502    0  0.26038851872E+02 -0.45393126810E+01 -0.31865661884E+03  0.31978548731E+03  0.47000000000E+01 0.  1.
         -5    1    3    3    0  502  0.75365763186E+02  0.11241982864E+02 -0.81989324452E+02  0.11202999493E+03  0.47000000000E+01 0.  1.
        -11    1    1    2    0    0 -0.65871135112E+02  0.26141447567E+02 -0.10149285336E+03  0.12378683696E+03  0.00000000000E+00 0.  1.
         11    1    1    2    0    0 -0.35533479946E+02 -0.32844117751E+02 -0.82998684542E+01  0.49094318248E+02  0.00000000000E+00 0. -1.
<mgrwt>
<rscale>  0 0.15370566E+03</rscale>
<asrwt>0</asrwt>
<pdfrwt beam="2">  1        2 0.85779642E-01 0.16108209E+03</pdfrwt>
<pdfrwt beam="1">  1       -2 0.72506130E-02 0.16108209E+03</pdfrwt>
<totfact> 0.58907484E+03</totfact>
</mgrwt>
</event>
<event>
 7    1  0.7800420E-006  0.1493897E+03  0.7546771E-02  0.1210772E+00
         -2   -1    0    0    0  501 -0.00000000000E+00  0.00000000000E+00  0.54413126112E+02  0.54413126112E+02  0.00000000000E+00 0.  1.
          2   -1    0    0  501    0  0.00000000000E+00 -0.00000000000E+00 -0.36060421112E+03  0.36060421112E+03  0.00000000000E+00 0. -1.
         23    2    1    2    0    0 -0.47054473203E+02 -0.66918976295E+02 -0.21993956622E+03  0.26587719949E+03  0.12499999834E+03 0.  0.
          5    1    3    3  502    0 -0.67721371814E+02 -0.48339609576E+02 -0.22248175788E+03  0.23757761815E+03  0.47000000000E+01 0. -1.
         -5    1    3    3    0  502  0.20666898611E+02 -0.18579366719E+02  0.25421916647E+01  0.28299581346E+02  0.47000000000E+01 0. -1.
        -11    1    1    2    0    0  0.16617640417E+02  0.28112722392E+01  0.16943743488E+02  0.23898528574E+02  0.00000000000E+00 0.  1.
         11    1    1    2    0    0  0.30436832786E+02  0.64107704056E+02 -0.10319526228E+03  0.12524160917E+03  0.00000000000E+00 0. -1.
<mgrwt>
<rscale>  0 0.14191745E+03</rscale>
<asrwt>0</asrwt>
<pdfrwt beam="2">  1        2 0.55477569E-01 0.14938967E+03</pdfrwt>
<pdfrwt beam="1">  1       -2 0.83712504E-02 0.14938967E+03</pdfrwt>
<totfact> 0.75514869E+03</totfact>
</mgrwt>
</event>
<event>
 7    1  0.7800420E-006  0.1670611E+03  0.7546771E-02  0.1187660E+00
          2   -1    0    0  501    0  0.00000000000E+00  0.00000000000E+00  0.40535221778E+03  0.40535221778E+03  0.00000000000E+00 0. -1.
         -2   -1    0    0    0  501 -0.00000000000E+00 -0.00000000000E+00 -0.72625636413E+02  0.72625636413E+02  0.00000000000E+00 0.  1.
         23    2    1    2    0    0  0.21690828217E+02  0.10869570447E+03  0.27751364609E+03  0.32391855852E+03  0.12499664231E+03 0.  0.
          5    1    3    3  502    0  0.31680484740E+02  0.63208812101E+02  0.39055795503E+02  0.80910148949E+02  0.47000000000E+01 0.  1.
         -5    1    3    3    0  502 -0.99896565231E+01  0.45486892368E+02  0.23845785059E+03  0.24300840957E+03  0.47000000000E+01 0.  1.
        -11    1    1    2    0    0  0.26217520751E+02 -0.85551690277E+02  0.43884273494E+02  0.99660822612E+02  0.00000000000E+00 0. -1.
         11    1    1    2    0    0 -0.47908348968E+02 -0.23144014192E+02  0.11328661784E+02  0.54398473063E+02  0.00000000000E+00 0.  1.
<mgrwt>
<rscale>  0 0.16092204E+03</rscale>
<asrwt>0</asrwt>
<pdfrwt beam="1">  1        2 0.62361879E-01 0.16706109E+03</pdfrwt>
<pdfrwt beam="2">  1       -2 0.11173175E-01 0.16706109E+03</pdfrwt>
<totfact> 0.42562508E+03</totfact>
</mgrwt>
</event>
<event>
 7    1  0.7800420E-006  0.1350393E+03  0.7546771E-02  0.1232611E+00
         -2   -1    0    0    0  501 -0.00000000000E+00  0.00000000000E+00  0.40291077179E+02  0.40291077179E+02  0.00000000000E+00 0.  1.
          2   -1    0    0  501    0  0.00000000000E+00 -0.00000000000E+00 -0.50424071512E+03  0.50424071512E+03  0.00000000000E+00 0. -1.
         23    2    1    2    0    0 -0.50900359674E+02  0.43460306373E+01 -0.40007650891E+03  0.42225207689E+03  0.12500347538E+03 0.  0.
          5    1    3    3  502    0 -0.98106316954E+01  0.13598075780E+02  0.23751330355E+01  0.17575193203E+02  0.47000000000E+01 0.  1.
         -5    1    3    3    0  502 -0.41089727978E+02 -0.92520451426E+01 -0.40245164194E+03  0.40467688368E+03  0.47000000000E+01 0.  1.
        -11    1    1    2    0    0  0.57423369079E+02 -0.34543069218E+02 -0.22591066902E+02  0.70717913227E+02  0.00000000000E+00 0.  1.
         11    1    1    2    0    0 -0.65230094054E+01  0.30197038581E+02 -0.41282062127E+02  0.51561802182E+02  0.00000000000E+00 0. -1.
<mgrwt>
<rscale>  0 0.12658624E+03</rscale>
<asrwt>0</asrwt>
<pdfrwt beam="2">  1        2 0.77575487E-01 0.13503927E+03</pdfrwt>
<pdfrwt beam="1">  1       -2 0.61986278E-02 0.13503927E+03</pdfrwt>
<totfact> 0.82892105E+03</totfact>
</mgrwt>
</event>
<event>
 7    1  0.7800420E-006  0.1255339E+03  0.7546771E-02  0.1255445E+00
         -1   -1    0    0    0  501 -0.00000000000E+00  0.00000000000E+00  0.22232082860E+02  0.22232082860E+02  0.00000000000E+00 0.  1.
          1   -1    0    0  501    0  0.00000000000E+00 -0.00000000000E+00 -0.51964268011E+03  0.51964268011E+03  0.00000000000E+00 0. -1.
         23    2    1    2    0    0 -0.11318204012E+02 -0.18352498847E+01 -0.36714515575E+03  0.38801331048E+03  0.12500917499E+03 0.  0.
          5    1    3    3  502    0  0.38659645900E+02 -0.17912255826E+02 -0.47219324755E+02  0.63774381693E+02  0.47000000000E+01 0.  1.
         -5    1    3    3    0  502 -0.49977849912E+02  0.16077005942E+02 -0.31992583100E+03  0.32423892879E+03  0.47000000000E+01 0.  1.
        -11    1    1    2    0    0 -0.28721452068E+02 -0.18246700455E+02 -0.36238986789E+02  0.49710442061E+02  0.00000000000E+00 0.  1.
         11    1    1    2    0    0  0.40039656079E+02  0.20081950340E+02 -0.94026454703E+02  0.10415101042E+03  0.00000000000E+00 0. -1.
<mgrwt>
<rscale>  0 0.11281443E+03</rscale>
<asrwt>0</asrwt>
<pdfrwt beam="2">  1        1 0.79945022E-01 0.12553391E+03</pdfrwt>
<pdfrwt beam="1">  1       -1 0.34203207E-02 0.12553391E+03</pdfrwt>
<totfact> 0.12559536E+04</totfact>
</mgrwt>
</event>
<event>
 7    1  0.7800420E-006  0.1431666E+03  0.7546771E-02  0.1220090E+00
         -2   -1    0    0    0  501 -0.00000000000E+00  0.00000000000E+00  0.52121090161E+02  0.52121090161E+02  0.00000000000E+00 0.  1.
          2   -1    0    0  501    0  0.00000000000E+00 -0.00000000000E+00 -0.33526646478E+03  0.33526646478E+03  0.00000000000E+00 0. -1.
         23    2    1    2    0    0 -0.43962329234E+02 -0.54218983072E+02 -0.20315941293E+03  0.24853654052E+03  0.12499712155E+03 0.  0.
          5    1    3    3  502    0 -0.38452956976E+02  0.30346522914E+02 -0.35698363960E+02  0.60794773974E+02  0.47000000000E+01 0. -1.
         -5    1    3    3    0  502 -0.55093722583E+01 -0.84565505986E+02 -0.16746104897E+03  0.18774176655E+03  0.47000000000E+01 0. -1.
        -11    1    1    2    0    0  0.40602224679E+02  0.35273820304E+02 -0.98450176029E+02  0.11218386786E+03  0.00000000000E+00 0. -1.
         11    1    1    2    0    0  0.33601045555E+01  0.18945162768E+02  0.18464214332E+02  0.26667146564E+02  0.00000000000E+00 0.  1.
<mgrwt>
<rscale>  0 0.13509164E+03</rscale>
<asrwt>0</asrwt>
<pdfrwt beam="2">  1        2 0.51579457E-01 0.14316656E+03</pdfrwt>
<pdfrwt beam="1">  1       -2 0.80186291E-02 0.14316656E+03</pdfrwt>
<totfact> 0.86990181E+03</totfact>
</mgrwt>
</event>
<event>
 6    1  0.7800420E-006  0.1383535E+03  0.7546771E-02  0.1229337E+00
         -4   -1    0    0    0  501 -0.00000000000E+00  0.00000000000E+00  0.15837904650E+03  0.15837904650E+03  0.00000000000E+00 0.  1.
          4   -1    0    0  501    0  0.00000000000E+00 -0.00000000000E+00 -0.93998672534E+02  0.93998672534E+02  0.00000000000E+00 0. -1.
          5    1    1    2  502    0 -0.41042076066E+02  0.56668059951E+02  0.37132363804E+02  0.79351266330E+02  0.47000000000E+01 0.  1.
         -5    1    1    2    0  502  0.55307052995E+02 -0.18103479441E+02 -0.16168542193E+02  0.60581497468E+02  0.47000000000E+01 0.  1.
        -11    1    1    2    0    0  0.10898290655E+02 -0.39908332274E+02  0.66469385862E+02  0.78291934329E+02  0.00000000000E+00 0.  1.
         11    1    1    2    0    0 -0.25163267584E+02  0.13437517637E+01 -0.23052833509E+02  0.34153020907E+02  0.00000000000E+00 0. -1.
<mgrwt>
<rscale>  0 0.12874000E+03</rscale>
<asrwt>0</asrwt>
<pdfrwt beam="2">  1        4 0.14461334E-01 0.13835352E+03</pdfrwt>
<pdfrwt beam="1">  1       -4 0.24366007E-01 0.13835352E+03</pdfrwt>
<totfact> 0.10463816E+03</totfact>
</mgrwt>
</event>
<event>
 7    1  0.7800420E-006  0.1418214E+03  0.7546771E-02  0.1219357E+00
         -1   -1    0    0    0  501 -0.00000000000E+00  0.00000000000E+00  0.25433947983E+02  0.25433947983E+02  0.00000000000E+00 0.  1.
          1   -1    0    0  501    0  0.00000000000E+00 -0.00000000000E+00 -0.72082474504E+03  0.72082474504E+03  0.00000000000E+00 0. -1.
         23    2    1    2    0    0  0.64010396456E+02 -0.19774122954E+02 -0.47848199959E+03  0.49905743585E+03  0.12499981421E+03 0.  0.
          5    1    3    3  502    0 -0.20447165356E+02 -0.20626428973E+02 -0.30113243115E+03  0.30256630221E+03  0.47000000000E+01 0.  1.
         -5    1    3    3    0  502  0.84457561812E+02  0.85230601876E+00 -0.17734956844E+03  0.19649113364E+03  0.47000000000E+01 0.  1.
        -11    1    1    2    0    0 -0.39845675832E+02  0.54148925376E+01 -0.21532496793E+03  0.21904757647E+03  0.00000000000E+00 0. -1.
         11    1    1    2    0    0 -0.24164720624E+02  0.14359230417E+02 -0.15838295341E+01  0.28153680700E+02  0.00000000000E+00 0.  1.
<mgrwt>
<rscale>  0 0.13561280E+03</rscale>
<asrwt>0</asrwt>
<pdfrwt beam="2">  1        1 0.11089613E+00 0.14182137E+03</pdfrwt>
<pdfrwt beam="1">  1       -1 0.39129145E-02 0.14182137E+03</pdfrwt>
<totfact> 0.66368993E+03</totfact>
</mgrwt>
</event>
<event>
 7    1  0.7800420E-006  0.1330717E+03  0.7546771E-02  0.1235819E+00
          2   -1    0    0  501    0  0.00000000000E+00  0.00000000000E+00  0.71092146066E+03  0.71092146066E+03  0.00000000000E+00 0. -1.
         -2   -1    0    0    0  501 -0.00000000000E+00 -0.00000000000E+00 -0.25298668953E+02  0.25298668953E+02  0.00000000000E+00 0.  1.
         23    2    1    2    0    0  0.41880449236E+02  0.18253057472E+02  0.55359294325E+03  0.56936210959E+03  0.12498367447E+03 0.  0.
          5    1    3    3  502    0  0.80073808659E+02 -0.15010436257E+02  0.31412249661E+03  0.32454916562E+03  0.47000000000E+01 0. -1.
         -5    1    3    3    0  502 -0.38193359423E+02  0.33263493729E+02  0.23947044664E+03  0.24481294396E+03  0.47000000000E+01 0. -1.
        -11    1    1    2    0    0 -0.49455265322E+02  0.18597354236E+02  0.11290196967E+03  0.12465367868E+03  0.00000000000E+00 0. -1.
         11    1    1    2    0    0  0.75748160859E+01 -0.36850411708E+02  0.19127878790E+02  0.42204341350E+02  0.00000000000E+00 0.  1.
<mgrwt>
<rscale>  0 0.12452141E+03</rscale>
<asrwt>0</asrwt>
<pdfrwt beam="1">  1        2 0.10937252E+00 0.13307165E+03</pdfrwt>
<pdfrwt beam="2">  1       -2 0.38921034E-02 0.13307165E+03</pdfrwt>
<totfact> 0.11253079E+04</totfact>
</mgrwt>
</event>
<event>
 7    1  0.7800420E-006  0.1304072E+03  0.7546771E-02  0.1240665E+00
          1   -1    0    0  501    0  0.00000000000E+00  0.00000000000E+00  0.11334840614E+04  0.11334840614E+04  0.00000000000E+00 0. -1.
         -1   -1    0    0    0  501 -0.00000000000E+00 -0.00000000000E+00 -0.14256842280E+02  0.14256842280E+02  0.00000000000E+00 0.  1.
         23    2    1    2    0    0  0.35763647780E+02  0.10099341076E+02  0.87232942690E+03  0.88202305738E+03  0.12500003804E+03 0.  0.
          5    1    3    3  502    0  0.41015092488E+02 -0.51383540128E+02  0.36164847285E+03  0.36760605806E+03  0.47000000000E+01 0. -1.
         -5    1    3    3    0  502 -0.52514447081E+01  0.61482881205E+02  0.51068095406E+03  0.51441699932E+03  0.47000000000E+01 0. -1.
        -11    1    1    2    0    0 -0.26841751867E+02  0.27055216567E+02  0.39723452528E+02  0.55049224041E+02  0.00000000000E+00 0.  1.
         11    1    1    2    0    0 -0.89218959126E+01 -0.37154557644E+02  0.20717433972E+03  0.21066862230E+03  0.00000000000E+00 0. -1.
<mgrwt>
<rscale>  0 0.12148645E+03</rscale>
<asrwt>0</asrwt>
<pdfrwt beam="1">  1        1 0.17438209E+00 0.13040723E+03</pdfrwt>
<pdfrwt beam="2">  1       -1 0.21933612E-02 0.13040723E+03</pdfrwt>
<totfact> 0.74129758E+03</totfact>
</mgrwt>
</event>
<event>
 7    1  0.7800420E-006  0.1505619E+03  0.7546771E-02  0.1208513E+00
          1   -1    0    0  501    0  0.00000000000E+00  0.00000000000E+00  0.82236311624E+03  0.82236311624E+03  0.00000000000E+00 0. -1.
         -1   -1    0    0    0  501 -0.00000000000E+00 -0.00000000000E+00 -0.23182946149E+02  0.23182946149E+02  0.00000000000E+00 0.  1.
         23    2    1    2    0    0 -0.21120175899E+02  0.81215093017E+02  0.47007828811E+03  0.49360153137E+03  0.12500768637E+03 0.  0.
          5    1    3    3  502    0 -0.65038593418E+02  0.48073748515E+02  0.16794797198E+03  0.18646639167E+03  0.47000000000E+01 0. -1.
         -5    1    3    3    0  502  0.43918417520E+02  0.33141344501E+02  0.30213031613E+03  0.30713513970E+03  0.47000000000E+01 0. -1.
        -11    1    1    2    0    0  0.15303812104E+02  0.14757304016E+02  0.11904477415E+03  0.12092825534E+03  0.00000000000E+00 0. -1.
         11    1    1    2    0    0  0.58163637943E+01 -0.95972397033E+02  0.21005710782E+03  0.23101627568E+03  0.00000000000E+00 0.  1.
<mgrwt>
<rscale>  0 0.14364041E+03</rscale>
<asrwt>0</asrwt>
<pdfrwt beam="1">  1        1 0.12651738E+00 0.15056186E+03</pdfrwt>
<pdfrwt beam="2">  1       -1 0.35666077E-02 0.15056186E+03</pdfrwt>
<totfact> 0.62692816E+03</totfact>
</mgrwt>
</event>
<event>
 6    1  0.7800420E-006  0.1653252E+03  0.7546771E-02  0.1192277E+00
         -2   -1    0    0    0  501 -0.00000000000E+00  0.00000000000E+00  0.42048498766E+02  0.42048498766E+02  0.00000000000E+00 0.  1.
          2   -1    0    0  501    0  0.00000000000E+00 -0.00000000000E+00 -0.55843152357E+03  0.55843152357E+03  0.00000000000E+00 0. -1.
          5    1    1    2  502    0 -0.25681217653E+02 -0.33573284552E+02 -0.31810255248E+03  0.32093303705E+03  0.47000000000E+01 0. -1.
         -5    1    1    2    0  502 -0.25253263656E+02 -0.50873749169E+02 -0.29932714490E+02  0.64373310281E+02  0.47000000000E+01 0.  1.
        -11    1    1    2    0    0  0.29154442309E+02 -0.14216817891E+02 -0.49504659006E+02  0.59184547651E+02  0.00000000000E+00 0. -1.
         11    1    1    2    0    0  0.21780039001E+02  0.98663851612E+02 -0.11884309883E+03  0.15598912735E+03  0.00000000000E+00 0.  1.
<mgrwt>
<rscale>  0 0.15686963E+03</rscale>
<asrwt>0</asrwt>
<pdfrwt beam="2">  1        2 0.85912534E-01 0.16532524E+03</pdfrwt>
<pdfrwt beam="1">  1       -2 0.64690004E-02 0.16532524E+03</pdfrwt>
<totfact> 0.70153503E+03</totfact>
</mgrwt>
</event>
<event>
 7    1  0.7800420E-006  0.1277006E+03  0.7546771E-02  0.1245609E+00
         -2   -1    0    0    0  501 -0.00000000000E+00  0.00000000000E+00  0.31321571558E+02  0.31321571558E+02  0.00000000000E+00 0.  1.
          2   -1    0    0  501    0  0.00000000000E+00 -0.00000000000E+00 -0.40897369493E+03  0.40897369493E+03  0.00000000000E+00 0. -1.
         23    2    1    2    0    0  0.23987001066E+02 -0.10365227224E+02 -0.25667910682E+03  0.28669078091E+03  0.12499850329E+03 0.  0.
          5    1    3    3  502    0 -0.10192980078E+02 -0.30057498774E+02 -0.24234231060E+03  0.24445702195E+03  0.47000000000E+01 0.  1.
         -5    1    3    3    0  502  0.34179981143E+02  0.19692271550E+02 -0.14336796219E+02  0.42233758956E+02  0.47000000000E+01 0.  1.
        -11    1    1    2    0    0 -0.37323270448E+02 -0.46724405501E+01 -0.74872236220E+01  0.38352532318E+02  0.00000000000E+00 0.  1.
         11    1    1    2    0    0  0.13336269382E+02  0.15037667774E+02 -0.11348579294E+03  0.11525195326E+03  0.00000000000E+00 0. -1.
<mgrwt>
<rscale>  0 0.11849018E+03</rscale>
<asrwt>0</asrwt>
<pdfrwt beam="2">  1        2 0.62919030E-01 0.12770059E+03</pdfrwt>
<pdfrwt beam="1">  1       -2 0.48187033E-02 0.12770059E+03</pdfrwt>
<totfact> 0.15135153E+04</totfact>
</mgrwt>
</event>
<event>
 7    1  0.7800420E-006  0.1633241E+03  0.7546771E-02  0.1192567E+00
          1   -1    0    0  501    0  0.00000000000E+00  0.00000000000E+00  0.44259246095E+02  0.44259246095E+02  0.00000000000E+00 0. -1.
         -1   -1    0    0    0  501 -0.00000000000E+00 -0.00000000000E+00 -0.51808550579E+03  0.51808550579E+03  0.00000000000E+00 0.  1.
         23    2    1    2    0    0  0.10400213140E+03 -0.15261453014E+02 -0.28363176874E+03  0.32729459067E+03  0.12500165423E+03 0.  0.
          5    1    3    3  502    0  0.59741889233E+01 -0.30860674476E+02 -0.59075635157E+01  0.32327410492E+02  0.47000000000E+01 0. -1.
         -5    1    3    3    0  502  0.98027942474E+02  0.15599221462E+02 -0.27772420522E+03  0.29496718018E+03  0.47000000000E+01 0. -1.
        -11    1    1    2    0    0 -0.29252980295E+02 -0.91862603804E+01 -0.13630938037E+03  0.13971532276E+03  0.00000000000E+00 0.  1.
         11    1    1    2    0    0 -0.74749151102E+02  0.24447713395E+02 -0.53885110585E+02  0.95334838457E+02  0.00000000000E+00 0. -1.
<mgrwt>
<rscale>  0 0.15661912E+03</rscale>
<asrwt>0</asrwt>
<pdfrwt beam="1">  1        1 0.68091150E-02 0.16332412E+03</pdfrwt>
<pdfrwt beam="2">  1       -1 0.79705460E-01 0.16332412E+03</pdfrwt>
<totfact> 0.17501989E+03</totfact>
</mgrwt>
</event>
<event>
 7    1  0.7800420E-006  0.1393599E+03  0.7546771E-02  0.1227769E+00
          1   -1    0    0  501    0  0.00000000000E+00  0.00000000000E+00  0.90087949016E+02  0.90087949016E+02  0.00000000000E+00 0. -1.
         -1   -1    0    0    0  501 -0.00000000000E+00 -0.00000000000E+00 -0.16832456071E+03  0.16832456071E+03  0.00000000000E+00 0.  1.
         23    2    1    2    0    0 -0.58067079308E+02  0.20844972174E+02 -0.27956242025E+02  0.14213635674E+03  0.12495956897E+03 0.  0.
          5    1    3    3  502    0 -0.14004434171E+02 -0.40451907263E+02  0.25008028079E+02  0.49799321743E+02  0.47000000000E+01 0. -1.
         -5    1    3    3    0  502 -0.44062645138E+02  0.61296879437E+02 -0.52964270104E+02  0.92337035001E+02  0.47000000000E+01 0. -1.
        -11    1    1    2    0    0  0.37853430824E+02 -0.30887498911E+02  0.11765148157E+02  0.50252746445E+02  0.00000000000E+00 0. -1.
         11    1    1    2    0    0  0.20213648484E+02  0.10042526737E+02 -0.62045517830E+02  0.66023406539E+02  0.00000000000E+00 0.  1.
<mgrwt>
<rscale>  0 0.12978909E+03</rscale>
<asrwt>0</asrwt>
<pdfrwt beam="1">  1        1 0.13859685E-01 0.13935994E+03</pdfrwt>
<pdfrwt beam="2">  1       -1 0.25896086E-01 0.13935994E+03</pdfrwt>
<totfact> 0.51869222E+03</totfact>
</mgrwt>
</event>
<event>
 7    1  0.7800420E-006  0.1398203E+03  0.7546771E-02  0.1224762E+00
          2   -1    0    0  501    0  0.00000000000E+00  0.00000000000E+00  0.15956851332E+03  0.15956851332E+03  0.00000000000E+00 0. -1.
         -2   -1    0    0    0  501 -0.00000000000E+00 -0.00000000000E+00 -0.98176433581E+02  0.98176433581E+02  0.00000000000E+00 0.  1.
         23    2    1    2    0    0 -0.61907491375E+02  0.95914904830E+01  0.33622482038E+02  0.14380606801E+03  0.12500071888E+03 0.  0.
          5    1    3    3  502    0 -0.35573068190E+01  0.15578931903E+02 -0.43626068957E+02  0.46697767010E+02  0.47000000000E+01 0.  1.
         -5    1    3    3    0  502 -0.58350184556E+02 -0.59874414195E+01  0.77248550995E+02  0.97108301001E+02  0.47000000000E+01 0.  1.
        -11    1    1    2    0    0  0.21735329808E+02  0.38173866579E+02 -0.36207736561E+01  0.44076962841E+02  0.00000000000E+00 0.  1.
         11    1    1    2    0    0  0.40172161568E+02 -0.47765357062E+02  0.31390371360E+02  0.69861916051E+02  0.00000000000E+00 0. -1.
<mgrwt>
<rscale>  0 0.13183211E+03</rscale>
<asrwt>0</asrwt>
<pdfrwt beam="1">  1        2 0.24549002E-01 0.13982029E+03</pdfrwt>
<pdfrwt beam="2">  1       -2 0.15104067E-01 0.13982029E+03</pdfrwt>
<totfact> 0.70614398E+03</totfact>
</mgrwt>
</event>
<event>
 7    1  0.7800420E-006  0.2327763E+03  0.7546771E-02  0.1127654E+00
          2   -1    0    0  501    0  0.00000000000E+00  0.00000000000E+00  0.21990091646E+03  0.21990091646E+03  0.00000000000E+00 0. -1.
         -2   -1    0    0    0  501 -0.00000000000E+00 -0.00000000000E+00 -0.28196367547E+03  0.28196367547E+03  0.00000000000E+00 0.  1.
         23    2    1    2    0    0 -0.41291690944E+02  0.19197405301E+03  0.76374043961E+02  0.24498533842E+03  0.12500312267E+03 0.  0.
          5    1    3    3  502    0  0.38450262192E+02  0.43617518955E+02 -0.36571323975E+01  0.58449766807E+02  0.47000000000E+01 0. -1.
         -5    1    3    3    0  502 -0.79741953135E+02  0.14835653406E+03  0.80031176359E+02  0.18653557161E+03  0.47000000000E+01 0. -1.
        -11    1    1    2    0    0 -0.48116347543E+01 -0.15453127375E+03 -0.11641957450E+03  0.19353703450E+03  0.00000000000E+00 0. -1.
         11    1    1    2    0    0  0.46103325698E+02 -0.37442779264E+02 -0.22017228483E+02  0.63342219013E+02  0.00000000000E+00 0.  1.
<mgrwt>
<rscale>  0 0.22856546E+03</rscale>
<asrwt>0</asrwt>
<pdfrwt beam="1">  1        2 0.33830910E-01 0.23277633E+03</pdfrwt>
<pdfrwt beam="2">  1       -2 0.43379027E-01 0.23277633E+03</pdfrwt>
<totfact> 0.78180423E+02</totfact>
</mgrwt>
</event>
<event>
 7    1  0.7800420E-006  0.1680828E+03  0.7546771E-02  0.1186546E+00
         -2   -1    0    0    0  501 -0.00000000000E+00  0.00000000000E+00  0.29999990349E+03  0.29999990349E+03  0.00000000000E+00 0.  1.
          2   -1    0    0  501    0  0.00000000000E+00 -0.00000000000E+00 -0.98366375912E+02  0.98366375912E+02  0.00000000000E+00 0. -1.
         23    2    1    2    0    0 -0.59790515948E+02  0.95171555659E+02  0.24899049496E+02  0.16991698886E+03  0.12497715644E+03 0.  0.
          5    1    3    3  502    0 -0.89134706859E+02  0.94872944552E+02  0.40420389603E+02  0.13638830401E+03  0.47000000000E+01 0.  1.
         -5    1    3    3    0  502  0.29344190912E+02  0.29861110770E+00 -0.15521340108E+02  0.33528684848E+02  0.47000000000E+01 0.  1.
        -11    1    1    2    0    0 -0.60288826179E+01 -0.45990068787E+02  0.11985703918E+03  0.12851904020E+03  0.00000000000E+00 0.  1.
         11    1    1    2    0    0  0.65819398565E+02 -0.49181486873E+02  0.56877438908E+02  0.99930250351E+02  0.00000000000E+00 0. -1.
<mgrwt>
<rscale>  0 0.16192011E+03</rscale>
<asrwt>0</asrwt>
<pdfrwt beam="2">  1        2 0.15133289E-01 0.16808278E+03</pdfrwt>
<pdfrwt beam="1">  1       -2 0.46153831E-01 0.16808278E+03</pdfrwt>
<totfact> 0.17039909E+03</totfact>
</mgrwt>
</event>
<event>
 7    1  0.7800420E-006  0.1355779E+03  0.7546771E-02  0.1231259E+00
          1   -1    0    0  501    0  0.00000000000E+00  0.00000000000E+00  0.32372350886E+02  0.32372350886E+02  0.00000000000E+00 0. -1.
         -1   -1    0    0    0  501 -0.00000000000E+00 -0.00000000000E+00 -0.45973127669E+03  0.45973127669E+03  0.00000000000E+00 0.  1.
         23    2    1    2    0    0  0.44608254255E+01  0.52324238915E+02 -0.20471346997E+03  0.24553810505E+03  0.12499452511E+03 0.  0.
          5    1    3    3  502    0 -0.48633915438E+02  0.64349008716E+02 -0.11662835711E+03  0.14188134598E+03  0.47000000000E+01 0. -1.
         -5    1    3    3    0  502  0.53094740864E+02 -0.12024769801E+02 -0.88085112854E+02  0.10365675908E+03  0.47000000000E+01 0. -1.
        -11    1    1    2    0    0  0.30697386738E+02 -0.60757848118E+02 -0.12326192332E+03  0.14080961402E+03  0.00000000000E+00 0. -1.
         11    1    1    2    0    0 -0.35158212164E+02  0.84336092029E+01 -0.99383532525E+02  0.10575590851E+03  0.00000000000E+00 0.  1.
<mgrwt>
<rscale>  0 0.12746998E+03</rscale>
<asrwt>0</asrwt>
<pdfrwt beam="1">  1        1 0.49803617E-02 0.13557786E+03</pdfrwt>
<pdfrwt beam="2">  1       -1 0.70727888E-01 0.13557786E+03</pdfrwt>
<totfact> 0.33794773E+03</totfact>
</mgrwt>
</event>
<event>
 7    1  0.7800420E-006  0.1803986E+03  0.7546771E-02  0.1172944E+00
         -2   -1    0    0    0  501 -0.00000000000E+00  0.00000000000E+00  0.57225103552E+02  0.57225103552E+02  0.00000000000E+00 0.  1.
          2   -1    0    0  501    0  0.00000000000E+00 -0.00000000000E+00 -0.50318939765E+03  0.50318939765E+03  0.00000000000E+00 0. -1.
         23    2    1    2    0    0 -0.38383237159E+02 -0.12427643674E+03 -0.23636399214E+03  0.29734085033E+03  0.12500295545E+03 0.  0.
          5    1    3    3  502    0  0.25864368783E+02 -0.10512273351E+03 -0.17769879471E+03  0.20813146402E+03  0.47000000000E+01 0.  1.
         -5    1    3    3    0  502 -0.64247605942E+02 -0.19153703229E+02 -0.58665197430E+02  0.89209386312E+02  0.47000000000E+01 0.  1.
        -11    1    1    2    0    0  0.53162683885E+01  0.64069006494E+02 -0.30311384878E+02  0.71076580925E+02  0.00000000000E+00 0.  1.
         11    1    1    2    0    0  0.33066968770E+02  0.60207430246E+02 -0.17928891708E+03  0.19199706995E+03  0.00000000000E+00 0. -1.
<mgrwt>
<rscale>  0 0.17478824E+03</rscale>
<asrwt>0</asrwt>
<pdfrwt beam="2">  1        2 0.77413753E-01 0.18039857E+03</pdfrwt>
<pdfrwt beam="1">  1       -2 0.88038622E-02 0.18039857E+03</pdfrwt>
<totfact> 0.49140924E+03</totfact>
</mgrwt>
</event>
<event>
 7    1  0.7800420E-006  0.2462234E+03  0.7546771E-02  0.1118474E+00
         -2   -1    0    0    0  501 -0.00000000000E+00  0.00000000000E+00  0.18018230717E+03  0.18018230717E+03  0.00000000000E+00 0.  1.
          2   -1    0    0  501    0  0.00000000000E+00 -0.00000000000E+00 -0.31504401861E+03  0.31504401861E+03  0.00000000000E+00 0. -1.
         23    2    1    2    0    0  0.21088466608E+03 -0.23002203542E+02 -0.81767188636E+02  0.25944528145E+03  0.12499814867E+03 0.  0.
          5    1    3    3  502    0  0.65452374383E+02  0.50115908676E+02 -0.17672436013E+02  0.84439461209E+02  0.47000000000E+01 0. -1.
         -5    1    3    3    0  502  0.14543229170E+03 -0.73118112218E+02 -0.64094752623E+02  0.17500582024E+03  0.47000000000E+01 0. -1.
        -11    1    1    2    0    0 -0.17145216820E+03 -0.10919963474E+02 -0.17362510017E+02  0.17267468933E+03  0.00000000000E+00 0.  1.
         11    1    1    2    0    0 -0.39432497882E+02  0.33922167016E+02 -0.35732012784E+02  0.63106355004E+02  0.00000000000E+00 0. -1.
<mgrwt>
<rscale>  0 0.24199100E+03</rscale>
<asrwt>0</asrwt>
<pdfrwt beam="2">  1        2 0.48468310E-01 0.24622344E+03</pdfrwt>
<pdfrwt beam="1">  1       -2 0.27720355E-01 0.24622344E+03</pdfrwt>
<totfact> 0.12226244E+03</totfact>
</mgrwt>
</event>
<event>
 7    1  0.7800420E-006  0.1303159E+03  0.7546771E-02  0.1240219E+00
         -2   -1    0    0    0  501 -0.00000000000E+00  0.00000000000E+00  0.12826948498E+02  0.12826948498E+02  0.00000000000E+00 0.  1.
          2   -1    0    0  501    0  0.00000000000E+00 -0.00000000000E+00 -0.10352526227E+04  0.10352526227E+04  0.00000000000E+00 0. -1.
         23    2    1    2    0    0  0.28524743504E+02  0.23331193470E+02 -0.62377627380E+03  0.63724333788E+03  0.12499690534E+03 0.  0.
          5    1    3    3  502    0  0.41408967879E+02  0.69983400773E+02 -0.40890769849E+03  0.41694121275E+03  0.47000000000E+01 0.  1.
         -5    1    3    3    0  502 -0.12884224375E+02 -0.46652207303E+02 -0.21486857530E+03  0.22030212513E+03  0.47000000000E+01 0.  1.
        -11    1    1    2    0    0  0.28936919306E+02 -0.45055560261E+01 -0.59248397301E+02  0.66090982114E+02  0.00000000000E+00 0. -1.
         11    1    1    2    0    0 -0.57461662810E+02 -0.18825637444E+02 -0.33940100315E+03  0.34474525124E+03  0.00000000000E+00 0.  1.
<mgrwt>
<rscale>  0 0.12176165E+03</rscale>
<asrwt>0</asrwt>
<pdfrwt beam="2">  1        2 0.15926960E+00 0.13031589E+03</pdfrwt>
<pdfrwt beam="1">  1       -2 0.19733771E-02 0.13031589E+03</pdfrwt>
<totfact> 0.18765833E+04</totfact>
</mgrwt>
</event>
<event>
 7    1  0.7800420E-006  0.1469474E+03  0.7546771E-02  0.1210509E+00
          1   -1    0    0  501    0  0.00000000000E+00  0.00000000000E+00  0.39011030067E+03  0.39011030067E+03  0.00000000000E+00 0. -1.
         -1   -1    0    0    0  501 -0.00000000000E+00 -0.00000000000E+00 -0.50392912892E+02  0.50392912892E+02  0.00000000000E+00 0.  1.
         23    2    1    2    0    0  0.55596328857E+02  0.75518665470E+02  0.22176998087E+03  0.26603660217E+03  0.11313500195E+03 0.  0.
          5    1    3    3  502    0  0.35529270253E+02  0.10355104992E+03  0.18767422646E+03  0.21732200593E+03  0.47000000000E+01 0. -1.
         -5    1    3    3    0  502  0.20067058605E+02 -0.28032384448E+02  0.34095754406E+02  0.48714596246E+02  0.47000000000E+01 0.  1.
        -11    1    1    2    0    0 -0.48009545701E+02 -0.19203843057E+02  0.10371150201E+03  0.11588692643E+03  0.00000000000E+00 0. -1.
         11    1    1    2    0    0 -0.75867831561E+01 -0.56314822412E+02  0.14235904900E+02  0.58579684962E+02  0.00000000000E+00 0.  1.
<mgrwt>
<rscale>  0 0.14211692E+03</rscale>
<asrwt>0</asrwt>
<pdfrwt beam="1">  1        1 0.60016967E-01 0.14694744E+03</pdfrwt>
<pdfrwt beam="2">  1       -1 0.77527561E-02 0.14694744E+03</pdfrwt>
<totfact> 0.54517063E+03</totfact>
</mgrwt>
</event>
<event>
 7    1  0.7800420E-006  0.1469330E+03  0.7546771E-02  0.1213296E+00
          2   -1    0    0  501    0  0.00000000000E+00  0.00000000000E+00  0.65462675722E+03  0.65462675722E+03  0.00000000000E+00 0.  1.
         -2   -1    0    0    0  501 -0.00000000000E+00 -0.00000000000E+00 -0.29635176001E+02  0.29635176001E+02  0.00000000000E+00 0. -1.
         23    2    1    2    0    0 -0.27844952301E+02 -0.72030686046E+02  0.43271185511E+03  0.45697795317E+03  0.12500215612E+03 0.  0.
          5    1    3    3  502    0 -0.21643794271E+02 -0.10166628063E+03  0.39454054099E+03  0.40803040932E+03  0.47000000000E+01 0. -1.
         -5    1    3    3    0  502 -0.62011580309E+01  0.29635594585E+02  0.38171314117E+02  0.48947543848E+02  0.47000000000E+01 0. -1.
        -11    1    1    2    0    0  0.21538037572E+02  0.43135674187E+02  0.19527261119E+02  0.52018144688E+02  0.00000000000E+00 0. -1.
         11    1    1    2    0    0  0.63069147291E+01  0.28895011860E+02  0.17275246500E+03  0.17526583536E+03  0.00000000000E+00 0.  1.
<mgrwt>
<rscale>  0 0.14002459E+03</rscale>
<asrwt>0</asrwt>
<pdfrwt beam="1">  1        2 0.10071180E+00 0.14693298E+03</pdfrwt>
<pdfrwt beam="2">  1       -2 0.45592583E-02 0.14693298E+03</pdfrwt>
<totfact> 0.98595647E+03</totfact>
</mgrwt>
</event>
<event>
 7    1  0.7800420E-006  0.1292926E+03  0.7546771E-02  0.1245796E+00
          1   -1    0    0  501    0  0.00000000000E+00  0.00000000000E+00  0.35372339829E+02  0.35372339829E+02  0.00000000000E+00 0. -1.
         -1   -1    0    0    0  501 -0.00000000000E+00 -0.00000000000E+00 -0.34287700227E+03  0.34287700227E+03  0.00000000000E+00 0.  1.
         23    2    1    2    0    0  0.23696131766E+02 -0.23025682607E+02 -0.18630169736E+03  0.22677058860E+03  0.12499955478E+03 0.  0.
          5    1    3    3  502    0 -0.37166525534E+02  0.30278999631E+02 -0.73385693344E+02  0.87782221586E+02  0.47000000000E+01 0. -1.
         -5    1    3    3    0  502  0.60862657300E+02 -0.53304682238E+02 -0.11291600402E+03  0.13898836702E+03  0.47000000000E+01 0. -1.
        -11    1    1    2    0    0  0.28829997305E+02  0.18121239401E+02 -0.26792033165E+02  0.43328525282E+02  0.00000000000E+00 0.  1.
         11    1    1    2    0    0 -0.52526129071E+02  0.49044432064E+01 -0.94410931913E+02  0.10815022822E+03  0.00000000000E+00 0. -1.
<mgrwt>
<rscale>  0 0.11837887E+03</rscale>
<asrwt>0</asrwt>
<pdfrwt beam="1">  1        1 0.54418983E-02 0.12929260E+03</pdfrwt>
<pdfrwt beam="2">  1       -1 0.52750309E-01 0.12929260E+03</pdfrwt>
<totfact> 0.52235998E+03</totfact>
</mgrwt>
</event>
<event>
 7    1  0.7800420E-006  0.1428000E+03  0.7546771E-02  0.1221028E+00
         -1   -1    0    0    0  501 -0.00000000000E+00  0.00000000000E+00  0.89541811721E+02  0.89541811721E+02  0.00000000000E+00 0.  1.
          1   -1    0    0  501    0  0.00000000000E+00 -0.00000000000E+00 -0.21853477794E+03  0.21853477794E+03  0.00000000000E+00 0. -1.
         23    2    1    2    0    0 -0.36285772596E+02  0.58748395381E+02 -0.13399045633E+03  0.19581954940E+03  0.12499528906E+03 0.  0.
          5    1    3    3  502    0 -0.62610145321E+02  0.91903978089E+01 -0.12305908620E+03  0.13845621115E+03  0.47000000000E+01 0. -1.
         -5    1    3    3    0  502  0.26324372725E+02  0.49557997572E+02 -0.10931370127E+02  0.57363338253E+02  0.47000000000E+01 0. -1.
        -11    1    1    2    0    0  0.45503735968E+02 -0.70189202956E+02  0.25122244418E+02  0.87339804003E+02  0.00000000000E+00 0.  1.
         11    1    1    2    0    0 -0.92179633719E+01  0.11440807575E+02 -0.20124754310E+02  0.24917236258E+02  0.00000000000E+00 0. -1.
<mgrwt>
<rscale>  0 0.13442869E+03</rscale>
<asrwt>0</asrwt>
<pdfrwt beam="2">  1        1 0.33620735E-01 0.14280005E+03</pdfrwt>
<pdfrwt beam="1">  1       -1 0.13775663E-01 0.14280005E+03</pdfrwt>
<totfact> 0.46369581E+03</totfact>
</mgrwt>
</event>
<event>
 7    1  0.7800420E-006  0.1454181E+03  0.7546771E-02  0.1216289E+00
         -3   -1    0    0    0  501 -0.00000000000E+00  0.00000000000E+00  0.27912526261E+02  0.27912526261E+02  0.00000000000E+00 0.  1.
          3   -1    0    0  501    0  0.00000000000E+00 -0.00000000000E+00 -0.64202484173E+03  0.64202484173E+03  0.00000000000E+00 0. -1.
         23    2    1    2    0    0  0.74185591551E+02  0.43057778658E+01 -0.40263649282E+03  0.42809179055E+03  0.12499757623E+03 0.  0.
          5    1    3    3  502    0 -0.27725231502E+01  0.51386455739E+02 -0.10466449661E+03  0.11672618202E+03  0.47000000000E+01 0.  1.
         -5    1    3    3    0  502  0.76958114702E+02 -0.47080677873E+02 -0.29797199621E+03  0.31136560853E+03  0.47000000000E+01 0.  1.
        -11    1    1    2    0    0 -0.57952306143E+02  0.25724221673E+02 -0.19274848869E+03  0.20290930304E+03  0.00000000000E+00 0. -1.
         11    1    1    2    0    0 -0.16233285409E+02 -0.30029999539E+02 -0.18727333958E+02  0.38936274406E+02  0.00000000000E+00 0.  1.
<mgrwt>
<rscale>  0 0.13782242E+03</rscale>
<asrwt>0</asrwt>
<pdfrwt beam="2">  1        3 0.98773048E-01 0.14541814E+03</pdfrwt>
<pdfrwt beam="1">  1       -3 0.42942350E-02 0.14541814E+03</pdfrwt>
<totfact> 0.63359223E+02</totfact>
</mgrwt>
</event>
<event>
 7    1  0.7800420E-006  0.1419005E+03  0.7546771E-02  0.1220744E+00
         -1   -1    0    0    0  501 -0.00000000000E+00  0.00000000000E+00  0.21748091869E+02  0.21748091869E+02  0.00000000000E+00 0.  1.
          1   -1    0    0  501    0  0.00000000000E+00 -0.00000000000E+00 -0.79561507208E+03  0.79561507208E+03  0.00000000000E+00 0. -1.
         23    2    1    2    0    0 -0.51925018223E+02  0.42586135831E+02 -0.51338222007E+03  0.53263220143E+03  0.12500388649E+03 0.  0.
          5    1    3    3  502    0 -0.56833757142E+02  0.34946220740E+02 -0.51735644236E+03  0.52166185671E+03  0.47000000000E+01 0. -1.
         -5    1    3    3    0  502  0.49087389193E+01  0.76399150920E+01  0.39742222953E+01  0.10970344719E+02  0.47000000000E+01 0. -1.
        -11    1    1    2    0    0  0.38267066257E+02 -0.26601805781E+01 -0.25673284130E+02  0.46158015974E+02  0.00000000000E+00 0.  1.
         11    1    1    2    0    0  0.13657951965E+02 -0.39925955253E+02 -0.23481147602E+03  0.23857294655E+03  0.00000000000E+00 0. -1.
<mgrwt>
<rscale>  0 0.13462927E+03</rscale>
<asrwt>0</asrwt>
<pdfrwt beam="2">  1        1 0.12240233E+00 0.14190052E+03</pdfrwt>
<pdfrwt beam="1">  1       -1 0.33458601E-02 0.14190052E+03</pdfrwt>
<totfact> 0.72172717E+03</totfact>
</mgrwt>
</event>
<event>
 7    1  0.7800420E-006  0.2039339E+03  0.7546771E-02  0.1150450E+00
         -2   -1    0    0    0  501 -0.00000000000E+00  0.00000000000E+00  0.39120377193E+02  0.39120377193E+02  0.00000000000E+00 0. -1.
          2   -1    0    0  501    0  0.00000000000E+00 -0.00000000000E+00 -0.11074770599E+04  0.11074770599E+04  0.00000000000E+00 0.  1.
         23    2    1    2    0    0  0.13451005561E+03 -0.88700304813E+02 -0.75871197044E+03  0.78564169334E+03  0.12501326768E+03 0.  0.
          5    1    3    3  502    0  0.60785800122E+02 -0.40000207563E+02 -0.11702825680E+03  0.13788630458E+03  0.47000000000E+01 0. -1.
         -5    1    3    3    0  502  0.73724255493E+02 -0.48700097250E+02 -0.64168371364E+03  0.64775538876E+03  0.47000000000E+01 0. -1.
        -11    1    1    2    0    0 -0.34489227110E+02 -0.18286715607E+02 -0.64873876989E+02  0.75713477466E+02  0.00000000000E+00 0. -1.
         11    1    1    2    0    0 -0.10002082851E+03  0.10698702042E+03 -0.24477083531E+03  0.28524226631E+03  0.00000000000E+00 0.  1.
<mgrwt>
<rscale>  0 0.19915963E+03</rscale>
<asrwt>0</asrwt>
<pdfrwt beam="2">  1        2 0.17038107E+00 0.20393385E+03</pdfrwt>
<pdfrwt beam="1">  1       -2 0.60185201E-02 0.20393385E+03</pdfrwt>
<totfact> 0.33116372E+03</totfact>
</mgrwt>
</event>
<event>
 7    1  0.7800420E-006  0.1659771E+03  0.7546771E-02  0.1190387E+00
         -2   -1    0    0    0  501 -0.00000000000E+00  0.00000000000E+00  0.54520936034E+02  0.54520936034E+02  0.00000000000E+00 0.  1.
          2   -1    0    0  501    0  0.00000000000E+00 -0.00000000000E+00 -0.42557971389E+03  0.42557971389E+03  0.00000000000E+00 0. -1.
         23    2    1    2    0    0 -0.61691356244E+02  0.90097097506E+02 -0.21751929907E+03  0.27361109673E+03  0.12500030549E+03 0.  0.
          5    1    3    3  502    0  0.10567622992E+02 -0.26850397595E+00  0.11916737146E+02  0.16608593387E+02  0.47000000000E+01 0.  1.
         -5    1    3    3    0  502 -0.72258979236E+02  0.90365601482E+02 -0.22943603622E+03  0.25700250335E+03  0.47000000000E+01 0.  1.
        -11    1    1    2    0    0  0.20541612499E+01 -0.55919562382E+02 -0.11449583412E+03  0.12743827159E+03  0.00000000000E+00 0. -1.
         11    1    1    2    0    0  0.59637194994E+02 -0.34177535124E+02 -0.39043644668E+02  0.79051281602E+02  0.00000000000E+00 0.  1.
<mgrwt>
<rscale>  0 0.15851179E+03</rscale>
<asrwt>0</asrwt>
<pdfrwt beam="2">  1        2 0.65473804E-01 0.16597707E+03</pdfrwt>
<pdfrwt beam="1">  1       -2 0.83878360E-02 0.16597707E+03</pdfrwt>
<totfact> 0.63413280E+03</totfact>
</mgrwt>
</event>
<event>
 7    1  0.7800420E-006  0.1252345E+03  0.7546771E-02  0.1247032E+00
          1   -1    0    0  501    0  0.00000000000E+00  0.00000000000E+00  0.97457378696E+02  0.97457378696E+02  0.00000000000E+00 0. -1.
         -1   -1    0    0    0  501 -0.00000000000E+00 -0.00000000000E+00 -0.14686331026E+03  0.14686331026E+03  0.00000000000E+00 0.  1.
         23    2    1    2    0    0  0.12080450232E+01  0.75397348537E+01  0.16924148653E+02  0.12637284506E+03  0.12500144874E+03 0.  0.
          5    1    3    3  502    0  0.39709185049E+02 -0.37913569042E+02 -0.16994233929E+02  0.57664131672E+02  0.47000000000E+01 0.  1.
         -5    1    3    3    0  502 -0.38501140025E+02  0.45453303895E+02  0.33918382581E+02  0.68708713386E+02  0.47000000000E+01 0.  1.
        -11    1    1    2    0    0  0.31709618327E+02  0.35419730898E+01  0.10533845362E+02  0.33600704843E+02  0.00000000000E+00 0. -1.
         11    1    1    2    0    0 -0.32917663350E+02 -0.11081707943E+02 -0.76863925578E+02  0.84347139055E+02  0.00000000000E+00 0.  1.
<mgrwt>
<rscale>  0 0.11764594E+03</rscale>
<asrwt>0</asrwt>
<pdfrwt beam="1">  1        1 0.14993443E-01 0.12523446E+03</pdfrwt>
<pdfrwt beam="2">  1       -1 0.22594355E-01 0.12523446E+03</pdfrwt>
<totfact> 0.58130649E+03</totfact>
</mgrwt>
</event>
<event>
 7    1  0.7800420E-006  0.1525121E+03  0.7546771E-02  0.1206321E+00
          2   -1    0    0  501    0  0.00000000000E+00  0.00000000000E+00  0.10516160217E+03  0.10516160217E+03  0.00000000000E+00 0. -1.
         -2   -1    0    0    0  501 -0.00000000000E+00 -0.00000000000E+00 -0.19536679621E+03  0.19536679621E+03  0.00000000000E+00 0.  1.
         23    2    1    2    0    0  0.32436994385E+02 -0.81102390520E+02 -0.13278205495E+02  0.15308906446E+03  0.12502077653E+03 0.  0.
          5    1    3    3  502    0  0.53657229168E+00  0.47556747166E+01 -0.52798734331E+02  0.53223121844E+02  0.47000000000E+01 0. -1.
         -5    1    3    3    0  502  0.31900422093E+02 -0.85858065237E+02  0.39520528836E+02  0.99865942620E+02  0.47000000000E+01 0. -1.
        -11    1    1    2    0    0 -0.58224396757E+02  0.67718990594E+02 -0.77697159262E+02  0.11837563357E+03  0.00000000000E+00 0.  1.
         11    1    1    2    0    0  0.25787402373E+02  0.13383399926E+02  0.77017071596E+00  0.29063700343E+02  0.00000000000E+00 0. -1.
<mgrwt>
<rscale>  0 0.14533866E+03</rscale>
<asrwt>0</asrwt>
<pdfrwt beam="1">  1        2 0.16178708E-01 0.15251213E+03</pdfrwt>
<pdfrwt beam="2">  1       -2 0.30056430E-01 0.15251213E+03</pdfrwt>
<totfact> 0.35059058E+03</totfact>
</mgrwt>
</event>
<event>
 7    1  0.7800420E-006  0.1412273E+03  0.7546771E-02  0.1221717E+00
         -1   -1    0    0    0  501 -0.00000000000E+00  0.00000000000E+00  0.30937964772E+02  0.30937964772E+02  0.00000000000E+00 0.  1.
          1   -1    0    0  501    0  0.00000000000E+00 -0.00000000000E+00 -0.56026813366E+03  0.56026813366E+03  0.00000000000E+00 0. -1.
         23    2    1    2    0    0  0.23855618619E+02 -0.61245061503E+02 -0.36204484781E+03  0.38861501535E+03  0.12500044090E+03 0.  0.
          5    1    3    3  502    0  0.43993586153E+02  0.24872544170E+02 -0.16386450970E+03  0.17154517369E+03  0.47000000000E+01 0. -1.
         -5    1    3    3    0  502 -0.20137967534E+02 -0.86117605673E+02 -0.19818033811E+03  0.21706984166E+03  0.47000000000E+01 0. -1.
        -11    1    1    2    0    0 -0.26097813145E+01  0.66010810786E+02 -0.16829213355E+03  0.18079402731E+03  0.00000000000E+00 0. -1.
         11    1    1    2    0    0 -0.21245837305E+02 -0.47657492826E+01  0.10068124709E+01  0.21797055772E+02  0.00000000000E+00 0.  1.
<mgrwt>
<rscale>  0 0.13394510E+03</rscale>
<asrwt>0</asrwt>
<pdfrwt beam="2">  1        1 0.86195101E-01 0.14122733E+03</pdfrwt>
<pdfrwt beam="1">  1       -1 0.47596867E-02 0.14122733E+03</pdfrwt>
<totfact> 0.70545339E+03</totfact>
</mgrwt>
</event>
<event>
 7    1  0.7800420E-006  0.1407198E+03  0.7546771E-02  0.1227810E+00
         -2   -1    0    0    0  501 -0.00000000000E+00  0.00000000000E+00  0.13975185452E+03  0.13975185452E+03  0.00000000000E+00 0.  1.
          2   -1    0    0  501    0  0.00000000000E+00 -0.00000000000E+00 -0.10673193988E+03  0.10673193988E+03  0.00000000000E+00 0. -1.
         23    2    1    2    0    0  0.13478548652E+02 -0.63210799532E+02  0.43943179379E+01  0.14078836153E+03  0.12499910504E+03 0.  0.
          5    1    3    3  502    0 -0.55085746787E+02 -0.31081171918E+02 -0.79703269689E+01  0.63922569245E+02  0.47000000000E+01 0.  1.
         -5    1    3    3    0  502  0.68564295439E+02 -0.32129627614E+02  0.12364644907E+02  0.76865792284E+02  0.47000000000E+01 0.  1.
        -11    1    1    2    0    0  0.26433472977E+02  0.84077323749E+01 -0.76909177448E+01  0.28784868821E+02  0.00000000000E+00 0. -1.
         11    1    1    2    0    0 -0.39912021629E+02  0.54803067157E+02  0.36316514452E+02  0.76910564049E+02  0.00000000000E+00 0.  1.
<mgrwt>
<rscale>  0 0.12976121E+03</rscale>
<asrwt>0</asrwt>
<pdfrwt beam="2">  1        2 0.16420298E-01 0.14071977E+03</pdfrwt>
<pdfrwt beam="1">  1       -2 0.21500285E-01 0.14071977E+03</pdfrwt>
<totfact> 0.61720681E+03</totfact>
</mgrwt>
</event>
<event>
 7    1  0.7800420E-006  0.1389411E+03  0.7546771E-02  0.1225721E+00
         -1   -1    0    0    0  501 -0.00000000000E+00  0.00000000000E+00  0.10068132472E+03  0.10068132472E+03  0.00000000000E+00 0.  1.
          1   -1    0    0  501    0  0.00000000000E+00 -0.00000000000E+00 -0.15449972680E+03  0.15449972680E+03  0.00000000000E+00 0. -1.
         23    2    1    2    0    0  0.44816844125E+02  0.40926118874E+02 -0.26210125108E+02  0.14139166838E+03  0.12498454507E+03 0.  0.
          5    1    3    3  502    0  0.19460455072E+02  0.11453810863E+02  0.50358533546E+02  0.55389267875E+02  0.47000000000E+01 0. -1.
         -5    1    3    3    0  502  0.25356389053E+02  0.29472308012E+02 -0.76568658654E+02  0.86002400509E+02  0.47000000000E+01 0. -1.
        -11    1    1    2    0    0  0.22893406961E+02  0.98024730452E+01 -0.36660473144E+00  0.24906444128E+02  0.00000000000E+00 0.  1.
         11    1    1    2    0    0 -0.67710251086E+02 -0.50728591920E+02 -0.27241672242E+02  0.88882939009E+02  0.00000000000E+00 0. -1.
<mgrwt>
<rscale>  0 0.13117615E+03</rscale>
<asrwt>0</asrwt>
<pdfrwt beam="2">  1        1 0.23769189E-01 0.13894111E+03</pdfrwt>
<pdfrwt beam="1">  1       -1 0.15489434E-01 0.13894111E+03</pdfrwt>
<totfact> 0.59415927E+03</totfact>
</mgrwt>
</event>
<event>
 7    1  0.7800420E-006  0.1348627E+03  0.7546771E-02  0.1233191E+00
         -2   -1    0    0    0  501 -0.00000000000E+00  0.00000000000E+00  0.16295367780E+02  0.16295367780E+02  0.00000000000E+00 0.  1.
          2   -1    0    0  501    0  0.00000000000E+00 -0.00000000000E+00 -0.87145429122E+03  0.87145429122E+03  0.00000000000E+00 0. -1.
         23    2    1    2    0    0  0.21836523182E+02  0.45656271740E+02 -0.47712632931E+03  0.49582001892E+03  0.12500651243E+03 0.  0.
          5    1    3    3  502    0 -0.51254610123E+02  0.27448683771E+02 -0.23925179282E+03  0.24625997578E+03  0.47000000000E+01 0. -1.
         -5    1    3    3    0  502  0.73091133304E+02  0.18207587969E+02 -0.23787453648E+03  0.24956004314E+03  0.47000000000E+01 0. -1.
        -11    1    1    2    0    0 -0.80122903664E+00 -0.69443714007E+02 -0.21863690563E+03  0.22940176087E+03  0.00000000000E+00 0. -1.
         11    1    1    2    0    0 -0.21035294145E+02  0.23787442267E+02 -0.15939568850E+03  0.16252787921E+03  0.00000000000E+00 0.  1.
<mgrwt>
<rscale>  0 0.12620977E+03</rscale>
<asrwt>0</asrwt>
<pdfrwt beam="2">  1        2 0.13406985E+00 0.13486273E+03</pdfrwt>
<pdfrwt beam="1">  1       -2 0.25069805E-02 0.13486273E+03</pdfrwt>
<totfact> 0.16727402E+04</totfact>
</mgrwt>
</event>
<event>
 7    1  0.7800420E-006  0.1746239E+03  0.7546771E-02  0.1178836E+00
         -3   -1    0    0    0  501 -0.00000000000E+00  0.00000000000E+00  0.74215832178E+03  0.74215832178E+03  0.00000000000E+00 0.  1.
          3   -1    0    0  501    0  0.00000000000E+00 -0.00000000000E+00 -0.44871097413E+02  0.44871097413E+02  0.00000000000E+00 0. -1.
         23    2    1    2    0    0  0.11710642413E+03  0.33992182260E+02  0.19461877234E+03  0.26147654570E+03  0.12499653747E+03 0.  0.
          5    1    3    3  502    0  0.93448496664E+02 -0.50962304850E+01  0.19410772888E+03  0.21554232416E+03  0.47000000000E+01 0.  1.
         -5    1    3    3    0  502  0.23657927465E+02  0.39088412745E+02  0.51104345441E+00  0.45934221537E+02  0.47000000000E+01 0.  1.
        -11    1    1    2    0    0 -0.91872825876E+02  0.28379603848E+01  0.43414559009E+03  0.44376915569E+03  0.00000000000E+00 0.  1.
         11    1    1    2    0    0 -0.25233598252E+02 -0.36830142644E+02  0.68522861942E+02  0.81783717797E+02  0.00000000000E+00 0. -1.
<mgrwt>
<rscale>  0 0.16905621E+03</rscale>
<asrwt>0</asrwt>
<pdfrwt beam="2">  1        3 0.69032463E-02 0.17462393E+03</pdfrwt>
<pdfrwt beam="1">  1       -3 0.11417819E+00 0.17462393E+03</pdfrwt>
<totfact> 0.21722266E+02</totfact>
</mgrwt>
</event>
<event>
 7    1  0.7800420E-006  0.1948559E+03  0.7546771E-02  0.1158466E+00
         -1   -1    0    0    0  501 -0.00000000000E+00  0.00000000000E+00  0.35508032930E+03  0.35508032930E+03  0.00000000000E+00 0.  1.
          1   -1    0    0  501    0  0.00000000000E+00 -0.00000000000E+00 -0.97132543062E+02  0.97132543062E+02  0.00000000000E+00 0. -1.
         23    2    1    2    0    0 -0.86621949018E+02 -0.12182392315E+03  0.12440374633E+03  0.23118199620E+03  0.12499757183E+03 0.  0.
          5    1    3    3  502    0 -0.10065313085E+03 -0.82958763432E+02  0.39049591090E+02  0.13623571391E+03  0.47000000000E+01 0.  1.
         -5    1    3    3    0  502  0.14031181836E+02 -0.38865159716E+02  0.85354155244E+02  0.94946282291E+02  0.47000000000E+01 0.  1.
        -11    1    1    2    0    0  0.75891444638E+02  0.11641463146E+03  0.14747407907E+03  0.20263386140E+03  0.00000000000E+00 0.  1.
         11    1    1    2    0    0  0.10730504380E+02  0.54092916857E+01 -0.13930039169E+02  0.18397014759E+02  0.00000000000E+00 0. -1.
<mgrwt>
<rscale>  0 0.18999471E+03</rscale>
<asrwt>0</asrwt>
<pdfrwt beam="2">  1        1 0.14943468E-01 0.19485590E+03</pdfrwt>
<pdfrwt beam="1">  1       -1 0.54627742E-01 0.19485590E+03</pdfrwt>
<totfact> 0.12921952E+03</totfact>
</mgrwt>
</event>
<event>
 7    1  0.7800420E-006  0.1442812E+03  0.7546771E-02  0.1218298E+00
          2   -1    0    0  501    0  0.00000000000E+00  0.00000000000E+00  0.16862740124E+03  0.16862740124E+03  0.00000000000E+00 0. -1.
         -2   -1    0    0    0  501 -0.00000000000E+00 -0.00000000000E+00 -0.10573016949E+03  0.10573016949E+03  0.00000000000E+00 0.  1.
         23    2    1    2    0    0 -0.16409996903E+02  0.70146106048E+02  0.67127886676E+02  0.15913274961E+03  0.12500925821E+03 0.  0.
          5    1    3    3  502    0  0.27390333795E+02  0.88812601574E+02  0.27580305820E+02  0.97060145543E+02  0.47000000000E+01 0. -1.
         -5    1    3    3    0  502 -0.43800330697E+02 -0.18666495527E+02  0.39547580856E+02  0.62072604070E+02  0.47000000000E+01 0. -1.
        -11    1    1    2    0    0  0.33784867656E+01 -0.30236086937E+02 -0.46551625456E+02  0.55611949783E+02  0.00000000000E+00 0.  1.
         11    1    1    2    0    0  0.13031510137E+02 -0.39910019110E+02  0.42320970531E+02  0.59612871332E+02  0.00000000000E+00 0. -1.
<mgrwt>
<rscale>  0 0.13637058E+03</rscale>
<asrwt>0</asrwt>
<pdfrwt beam="1">  1        2 0.25942677E-01 0.14428125E+03</pdfrwt>
<pdfrwt beam="2">  1       -2 0.16266180E-01 0.14428125E+03</pdfrwt>
<totfact> 0.58942516E+03</totfact>
</mgrwt>
</event>
<event>
 7    1  0.7800420E-006  0.2375584E+03  0.7546771E-02  0.1124292E+00
         -4   -1    0    0    0  501 -0.00000000000E+00  0.00000000000E+00  0.55937897477E+03  0.55937897477E+03  0.00000000000E+00 0.  1.
          4   -1    0    0  501    0  0.00000000000E+00 -0.00000000000E+00 -0.94167675558E+02  0.94167675558E+02  0.00000000000E+00 0. -1.
         23    2    1    2    0    0 -0.16433479971E+03 -0.11747685044E+03  0.25120939950E+03  0.34574579079E+03  0.12500901034E+03 0.  0.
          5    1    3    3  502    0  0.92314681334E+01 -0.48957555334E+02  0.65626084738E+02  0.82528390425E+02  0.47000000000E+01 0.  1.
         -5    1    3    3    0  502 -0.17356626785E+03 -0.68519295105E+02  0.18558331476E+03  0.26321740036E+03  0.47000000000E+01 0.  1.
        -11    1    1    2    0    0  0.43747985506E+02 -0.78369870993E+01  0.65268970548E+02  0.78964188840E+02  0.00000000000E+00 0.  1.
         11    1    1    2    0    0  0.12058681421E+03  0.12531383754E+03  0.14873292917E+03  0.22883667070E+03  0.00000000000E+00 0. -1.
<mgrwt>
<rscale>  0 0.23336775E+03</rscale>
<asrwt>0</asrwt>
<pdfrwt beam="2">  1        4 0.14487335E-01 0.23755839E+03</pdfrwt>
<pdfrwt beam="1">  1       -4 0.86058302E-01 0.23755839E+03</pdfrwt>
<totfact> 0.87782736E+01</totfact>
</mgrwt>
</event>
<event>
 7    1  0.7800420E-006  0.1335668E+03  0.7546771E-02  0.1234844E+00
         -1   -1    0    0    0  501 -0.00000000000E+00  0.00000000000E+00  0.27834792265E+03  0.27834792265E+03  0.00000000000E+00 0.  1.
          1   -1    0    0  501    0  0.00000000000E+00 -0.00000000000E+00 -0.52614417150E+02  0.52614417150E+02  0.00000000000E+00 0. -1.
         23    2    1    2    0    0 -0.44989647157E+02 -0.13797891906E+02  0.91919019327E+02  0.16213942758E+03  0.12500255073E+03 0.  0.
          5    1    3    3  502    0 -0.20572279569E+02 -0.52780293298E+02  0.10016723220E+03  0.11517179539E+03  0.47000000000E+01 0. -1.
         -5    1    3    3    0  502 -0.24417367589E+02  0.38982401392E+02 -0.82482128692E+01  0.46967632193E+02  0.47000000000E+01 0. -1.
        -11    1    1    2    0    0 -0.14352808566E+01 -0.35232233962E+02  0.50261839754E+02  0.61397254634E+02  0.00000000000E+00 0.  1.
         11    1    1    2    0    0  0.46424928014E+02  0.49030125868E+02  0.83552646414E+02  0.10742565758E+03  0.00000000000E+00 0. -1.
<mgrwt>
<rscale>  0 0.12514421E+03</rscale>
<asrwt>0</asrwt>
<pdfrwt beam="2">  1        1 0.80945259E-02 0.13356679E+03</pdfrwt>
<pdfrwt beam="1">  1       -1 0.42822756E-01 0.13356679E+03</pdfrwt>
<totfact> 0.44627483E+03</totfact>
</mgrwt>
</event>
<event>
 7    1  0.7800420E-006  0.1335046E+03  0.7546771E-02  0.1235400E+00
          4   -1    0    0  501    0  0.00000000000E+00  0.00000000000E+00  0.11193062965E+04  0.11193062965E+04  0.00000000000E+00 0. -1.
         -4   -1    0    0    0  501 -0.00000000000E+00 -0.00000000000E+00 -0.12565287183E+02  0.12565287183E+02  0.00000000000E+00 0.  1.
         23    2    1    2    0    0 -0.31618668899E+02 -0.34625920371E+02  0.69500401553E+03  0.70771043266E+03  0.12499912122E+03 0.  0.
          5    1    3    3  502    0 -0.20461088069E+02  0.44126969145E+02  0.36325840557E+03  0.36653049635E+03  0.47000000000E+01 0. -1.
         -5    1    3    3    0  502 -0.11157580830E+02 -0.78752889516E+02  0.33174560995E+03  0.34117993631E+03  0.47000000000E+01 0. -1.
        -11    1    1    2    0    0  0.15565943917E+02  0.64978528063E+02  0.24656851978E+03  0.25546143087E+03  0.00000000000E+00 0.  1.
         11    1    1    2    0    0  0.16052724981E+02 -0.30352607692E+02  0.16516847406E+03  0.16869972020E+03  0.00000000000E+00 0. -1.
<mgrwt>
<rscale>  0 0.12478853E+03</rscale>
<asrwt>0</asrwt>
<pdfrwt beam="1">  1        4 0.17220089E+00 0.13350459E+03</pdfrwt>
<pdfrwt beam="2">  1       -4 0.19331220E-02 0.13350459E+03</pdfrwt>
<totfact> 0.39483809E+02</totfact>
</mgrwt>
</event>
<event>
 7    1  0.7800420E-006  0.2426175E+03  0.7546771E-02  0.1122221E+00
         -1   -1    0    0    0  501 -0.00000000000E+00  0.00000000000E+00  0.23371640854E+03  0.23371640854E+03  0.00000000000E+00 0.  1.
          1   -1    0    0  501    0  0.00000000000E+00 -0.00000000000E+00 -0.22918338110E+03  0.22918338110E+03  0.00000000000E+00 0. -1.
         23    2    1    2    0    0  0.19986918977E+03 -0.57372832566E+02 -0.16851122881E+02  0.24320203625E+03  0.12499574056E+03 0.  0.
          5    1    3    3  502    0  0.62103614098E+02 -0.54090168208E+02 -0.56196432669E+02  0.99813497211E+02  0.47000000000E+01 0.  1.
         -5    1    3    3    0  502  0.13776557567E+03 -0.32826643581E+01  0.39345309788E+02  0.14338853904E+03  0.47000000000E+01 0.  1.
        -11    1    1    2    0    0 -0.37515418789E+02  0.39957019795E+02  0.12228361984E+02  0.56156058574E+02  0.00000000000E+00 0. -1.
         11    1    1    2    0    0 -0.16235377098E+03  0.17415812771E+02  0.91557883329E+01  0.16354169482E+03  0.00000000000E+00 0.  1.
<mgrwt>
<rscale>  0 0.23639119E+03</rscale>
<asrwt>0</asrwt>
<pdfrwt beam="2">  1        1 0.35258982E-01 0.24261754E+03</pdfrwt>
<pdfrwt beam="1">  1       -1 0.35956370E-01 0.24261754E+03</pdfrwt>
<totfact> 0.92042880E+02</totfact>
</mgrwt>
</event>
<event>
 7    1  0.7800420E-006  0.1295260E+03  0.7546771E-02  0.1242341E+00
          2   -1    0    0  501    0  0.00000000000E+00  0.00000000000E+00  0.56839908127E+02  0.56839908127E+02  0.00000000000E+00 0. -1.
         -2   -1    0    0    0  501 -0.00000000000E+00 -0.00000000000E+00 -0.23217413366E+03  0.23217413366E+03  0.00000000000E+00 0.  1.
         23    2    1    2    0    0  0.52124197771E+01  0.33558958124E+02 -0.12422002588E+03  0.17946473613E+03  0.12499441466E+03 0.  0.
          5    1    3    3  502    0  0.20943905560E+02  0.17800279034E+02  0.19453260973E+02  0.34000242297E+02  0.47000000000E+01 0. -1.
         -5    1    3    3    0  502 -0.15731485783E+02  0.15758679090E+02 -0.14367328685E+03  0.14546449384E+03  0.47000000000E+01 0. -1.
        -11    1    1    2    0    0 -0.92713419935E+01  0.16587410958E+02 -0.55871406053E+02  0.59014523628E+02  0.00000000000E+00 0.  1.
         11    1    1    2    0    0  0.40589222164E+01 -0.50146369082E+02  0.47572064001E+01  0.50534782026E+02  0.00000000000E+00 0. -1.
<mgrwt>
<rscale>  0 0.12045963E+03</rscale>
<asrwt>0</asrwt>
<pdfrwt beam="1">  1        2 0.87446015E-02 0.12952597E+03</pdfrwt>
<pdfrwt beam="2">  1       -2 0.35719097E-01 0.12952597E+03</pdfrwt>
<totfact> 0.53089402E+03</totfact>
</mgrwt>
</event>
<event>
 7    1  0.7800420E-006  0.1254322E+03  0.7546771E-02  0.1249877E+00
          2   -1    0    0  501    0  0.00000000000E+00  0.00000000000E+00  0.84603135286E+02  0.84603135286E+02  0.00000000000E+00 0.  1.
         -2   -1    0    0    0  501 -0.00000000000E+00 -0.00000000000E+00 -0.14623408721E+03  0.14623408721E+03  0.00000000000E+00 0. -1.
         23    2    1    2    0    0  0.60986396769E+01 -0.84667819265E+01 -0.10545407867E+02  0.12587466717E+03  0.12499738559E+03 0.  0.
          5    1    3    3  502    0 -0.27625917737E+02 -0.56260145239E+02 -0.20999680337E+02  0.66268181259E+02  0.47000000000E+01 0. -1.
         -5    1    3    3    0  502  0.33724557414E+02  0.47793363312E+02  0.10454272470E+02  0.59606485908E+02  0.47000000000E+01 0. -1.
        -11    1    1    2    0    0  0.22724556958E+02 -0.22714444627E+02  0.71246642648E+01  0.32910671894E+02  0.00000000000E+00 0.  1.
         11    1    1    2    0    0 -0.28823196635E+02  0.31181226553E+02 -0.58210208320E+02  0.72051883433E+02  0.00000000000E+00 0. -1.
<mgrwt>
<rscale>  0 0.11598169E+03</rscale>
<asrwt>0</asrwt>
<pdfrwt beam="1">  1        2 0.13015867E-01 0.12543216E+03</pdfrwt>
<pdfrwt beam="2">  1       -2 0.22497552E-01 0.12543216E+03</pdfrwt>
<totfact> 0.74370915E+03</totfact>
</mgrwt>
</event>
<event>
 7    1  0.7800420E-006  0.1798818E+03  0.7546771E-02  0.1173612E+00
          1   -1    0    0  501    0  0.00000000000E+00  0.00000000000E+00  0.32402924427E+03  0.32402924427E+03  0.00000000000E+00 0. -1.
         -1   -1    0    0    0  501 -0.00000000000E+00 -0.00000000000E+00 -0.90595711674E+02  0.90595711674E+02  0.00000000000E+00 0.  1.
         23    2    1    2    0    0 -0.48994653764E+02 -0.11971944543E+03  0.89408345029E+02  0.20087637124E+03  0.12499697057E+03 0.  0.
          5    1    3    3  502    0 -0.52661314581E+02 -0.14393409696E+03  0.85710169111E+02  0.17566605082E+03  0.47000000000E+01 0. -1.
         -5    1    3    3    0  502  0.36666608163E+01  0.24214651535E+02  0.36981759179E+01  0.25210320419E+02  0.47000000000E+01 0. -1.
        -11    1    1    2    0    0  0.17980873782E+02  0.79709793806E+02  0.26693504675E+02  0.85962237305E+02  0.00000000000E+00 0.  1.
         11    1    1    2    0    0  0.31013779982E+02  0.40009651621E+02  0.11733168289E+03  0.12778634740E+03  0.00000000000E+00 0. -1.
<mgrwt>
<rscale>  0 0.17412607E+03</rscale>
<asrwt>0</asrwt>
<pdfrwt beam="1">  1        1 0.49850652E-01 0.17988181E+03</pdfrwt>
<pdfrwt beam="2">  1       -1 0.13937802E-01 0.17988181E+03</pdfrwt>
<totfact> 0.28195618E+03</totfact>
</mgrwt>
</event>
<event>
 7    1  0.7800420E-006  0.2725486E+03  0.7546771E-02  0.1101731E+00
         -1   -1    0    0    0  501 -0.00000000000E+00  0.00000000000E+00  0.54164488906E+02  0.54164488906E+02  0.00000000000E+00 0.  1.
          1   -1    0    0  501    0  0.00000000000E+00 -0.00000000000E+00 -0.14789985623E+04  0.14789985623E+04  0.00000000000E+00 0. -1.
         23    2    1    2    0    0  0.73917203306E+02  0.23063709365E+03 -0.98978066916E+03  0.10266199541E+04  0.12500214040E+03 0.  0.
          5    1    3    3  502    0 -0.34671404832E+02  0.56682020390E+02 -0.20991593442E+03  0.22023112240E+03  0.47000000000E+01 0. -1.
         -5    1    3    3    0  502  0.10858860814E+03  0.17395507326E+03 -0.77986473474E+03  0.80638883165E+03  0.47000000000E+01 0. -1.
        -11    1    1    2    0    0 -0.77063365825E+02 -0.15745204065E+03 -0.23271028472E+03  0.29134856113E+03  0.00000000000E+00 0.  1.
         11    1    1    2    0    0  0.31461625192E+01 -0.73185052996E+02 -0.20234311953E+03  0.21519453604E+03  0.00000000000E+00 0. -1.
<mgrwt>
<rscale>  0 0.26921332E+03</rscale>
<asrwt>0</asrwt>
<pdfrwt beam="2">  1        1 0.22753819E+00 0.27254863E+03</pdfrwt>
<pdfrwt beam="1">  1       -1 0.83330002E-02 0.27254863E+03</pdfrwt>
<totfact> 0.59845482E+02</totfact>
</mgrwt>
</event>
<event>
 7    1  0.7800420E-006  0.1644851E+03  0.7546771E-02  0.1190867E+00
          1   -1    0    0  501    0  0.00000000000E+00  0.00000000000E+00  0.62511764494E+03  0.62511764494E+03  0.00000000000E+00 0. -1.
         -1   -1    0    0    0  501 -0.00000000000E+00 -0.00000000000E+00 -0.37324028653E+02  0.37324028653E+02  0.00000000000E+00 0.  1.
         23    2    1    2    0    0 -0.92582928471E+02  0.53500907891E+02  0.33844903124E+03  0.37630188079E+03  0.12498565097E+03 0.  0.
          5    1    3    3  502    0 -0.89197590121E+02  0.55572214692E+02  0.34876830475E+03  0.36428821217E+03  0.47000000000E+01 0. -1.
         -5    1    3    3    0  502 -0.33853383508E+01 -0.20713068008E+01 -0.10319273516E+02  0.12013668612E+02  0.47000000000E+01 0. -1.
        -11    1    1    2    0    0  0.10054079390E+03 -0.34577360560E+02  0.24201924073E+03  0.26434325787E+03  0.00000000000E+00 0. -1.
         11    1    1    2    0    0 -0.79578654285E+01 -0.18923547330E+02  0.73253443291E+01  0.21796534937E+02  0.00000000000E+00 0.  1.
<mgrwt>
<rscale>  0 0.15809286E+03</rscale>
<asrwt>0</asrwt>
<pdfrwt beam="1">  1        1 0.96171938E-01 0.16448513E+03</pdfrwt>
<pdfrwt beam="2">  1       -1 0.57421587E-02 0.16448513E+03</pdfrwt>
<totfact> 0.46335013E+03</totfact>
</mgrwt>
</event>
<event>
 7    1  0.7800420E-006  0.1313052E+03  0.7546771E-02  0.1238612E+00
          1   -1    0    0  501    0  0.00000000000E+00  0.00000000000E+00  0.10323923954E+03  0.10323923954E+03  0.00000000000E+00 0. -1.
         -1   -1    0    0    0  501 -0.00000000000E+00 -0.00000000000E+00 -0.13040284083E+03  0.13040284083E+03  0.00000000000E+00 0.  1.
         23    2    1    2    0    0 -0.37998355026E+02 -0.13093207760E+02 -0.83106731858E+01  0.13156791148E+03  0.12500296384E+03 0.  0.
          5    1    3    3  502    0  0.14462633519E+02  0.68955746264E+01 -0.55575975660E+02  0.58030128281E+02  0.47000000000E+01 0. -1.
         -5    1    3    3    0  502 -0.52460988545E+02 -0.19988782387E+02  0.47265302475E+02  0.73537783203E+02  0.47000000000E+01 0. -1.
        -11    1    1    2    0    0  0.85448116144E+01 -0.36052420642E+02 -0.24625622903E+02  0.44488337157E+02  0.00000000000E+00 0.  1.
         11    1    1    2    0    0  0.29453543412E+02  0.49145628402E+02  0.57726948026E+01  0.57585831728E+02  0.00000000000E+00 0. -1.
<mgrwt>
<rscale>  0 0.12275978E+03</rscale>
<asrwt>0</asrwt>
<pdfrwt beam="1">  1        1 0.15882960E-01 0.13130517E+03</pdfrwt>
<pdfrwt beam="2">  1       -1 0.20061976E-01 0.13130517E+03</pdfrwt>
<totfact> 0.65595090E+03</totfact>
</mgrwt>
</event>
<event>
 7    1  0.7800420E-006  0.1255069E+03  0.7546771E-02  0.1249718E+00
          1   -1    0    0  501    0  0.00000000000E+00  0.00000000000E+00  0.10864326814E+04  0.10864326814E+04  0.00000000000E+00 0. -1.
         -1   -1    0    0    0  501 -0.00000000000E+00 -0.00000000000E+00 -0.17192446167E+02  0.17192446167E+02  0.00000000000E+00 0.  1.
         23    2    1    2    0    0 -0.11138968220E+02  0.16617830791E+01  0.91912876493E+03  0.92765816052E+03  0.12500055248E+03 0.  0.
          5    1    3    3  502    0 -0.14462841302E+02  0.38619505391E+02  0.10851476319E+03  0.11618168447E+03  0.47000000000E+01 0.  1.
         -5    1    3    3    0  502  0.33238730820E+01 -0.36957722312E+02  0.81061400173E+03  0.81147647605E+03  0.47000000000E+01 0.  1.
        -11    1    1    2    0    0  0.15667397728E+02  0.43569295303E+02  0.72507360929E+02  0.86029461428E+02  0.00000000000E+00 0.  1.
         11    1    1    2    0    0 -0.45284295078E+01 -0.45231078382E+02  0.77604109368E+02  0.89937505614E+02  0.00000000000E+00 0. -1.
<mgrwt>
<rscale>  0 0.11607402E+03</rscale>
<asrwt>0</asrwt>
<pdfrwt beam="1">  1        1 0.16714344E+00 0.12550688E+03</pdfrwt>
<pdfrwt beam="2">  1       -1 0.26449926E-02 0.12550688E+03</pdfrwt>
<totfact> 0.60897459E+03</totfact>
</mgrwt>
</event>
<event>
 7    1  0.7800420E-006  0.1383773E+03  0.7546771E-02  0.1227262E+00
         -1   -1    0    0    0  501 -0.00000000000E+00  0.00000000000E+00  0.67989051987E+02  0.67989051987E+02  0.00000000000E+00 0.  1.
          1   -1    0    0  501    0  0.00000000000E+00 -0.00000000000E+00 -0.24966322246E+03  0.24966322246E+03  0.00000000000E+00 0. -1.
         23    2    1    2    0    0  0.96889024217E+01  0.58533906306E+02 -0.15174464109E+03  0.20536480990E+03  0.12501270347E+03 0.  0.
          5    1    3    3  502    0  0.16037310959E+02 -0.24023173563E+01 -0.14217985059E+03  0.14317879168E+03  0.47000000000E+01 0. -1.
         -5    1    3    3    0  502 -0.63484085377E+01  0.60936223662E+02 -0.95647904936E+01  0.62186018223E+02  0.47000000000E+01 0. -1.
        -11    1    1    2    0    0 -0.19386548674E+02 -0.10085332883E+02 -0.53317464704E+02  0.57622081283E+02  0.00000000000E+00 0. -1.
         11    1    1    2    0    0  0.96976462524E+01 -0.48448573423E+02  0.23387935315E+02  0.54665383268E+02  0.00000000000E+00 0.  1.
<mgrwt>
<rscale>  0 0.13013098E+03</rscale>
<asrwt>0</asrwt>
<pdfrwt beam="2">  1        1 0.38409726E-01 0.13837727E+03</pdfrwt>
<pdfrwt beam="1">  1       -1 0.10459854E-01 0.13837727E+03</pdfrwt>
<totfact> 0.60043083E+03</totfact>
</mgrwt>
</event>
<event>
 7    1  0.7800420E-006  0.1347965E+03  0.7546771E-02  0.1233068E+00
          1   -1    0    0  501    0  0.00000000000E+00  0.00000000000E+00  0.99693148673E+02  0.99693148673E+02  0.00000000000E+00 0. -1.
         -1   -1    0    0    0  501 -0.00000000000E+00 -0.00000000000E+00 -0.15088136007E+03  0.15088136007E+03  0.00000000000E+00 0.  1.
         23    2    1    2    0    0  0.33110878102E+02  0.38074574550E+02 -0.15919674302E-01  0.13479646958E+03  0.12499633788E+03 0.  0.
          5    1    3    3  502    0 -0.10343308320E+02  0.74615922177E+02 -0.12421036993E+02  0.76491123860E+02  0.47000000000E+01 0. -1.
         -5    1    3    3    0  502  0.43454186422E+02 -0.36541347627E+02  0.12405117319E+02  0.58305345722E+02  0.47000000000E+01 0. -1.
        -11    1    1    2    0    0 -0.47831235567E+02  0.13254059613E+02 -0.17392882046E+02  0.52592865846E+02  0.00000000000E+00 0. -1.
         11    1    1    2    0    0  0.14720357464E+02 -0.51328634163E+02 -0.33779409678E+02  0.63185173317E+02  0.00000000000E+00 0.  1.
<mgrwt>
<rscale>  0 0.12628919E+03</rscale>
<asrwt>0</asrwt>
<pdfrwt beam="1">  1        1 0.15337408E-01 0.13479647E+03</pdfrwt>
<pdfrwt beam="2">  1       -1 0.23212517E-01 0.13479647E+03</pdfrwt>
<totfact> 0.54302495E+03</totfact>
</mgrwt>
</event>
<event>
 7    1  0.7800420E-006  0.1343752E+03  0.7546771E-02  0.1233180E+00
         -4   -1    0    0    0  501 -0.00000000000E+00  0.00000000000E+00  0.32755469832E+03  0.32755469832E+03  0.00000000000E+00 0. -1.
          4   -1    0    0  501    0  0.00000000000E+00 -0.00000000000E+00 -0.44895573039E+02  0.44895573039E+02  0.00000000000E+00 0.  1.
         23    2    1    2    0    0 -0.67091258008E+01 -0.48872748311E+02  0.19000241499E+03  0.23271789140E+03  0.12499256530E+03 0.  0.
          5    1    3    3  502    0 -0.36691850374E+02 -0.79112250587E+02  0.15270646865E+03  0.17591587661E+03  0.47000000000E+01 0.  1.
         -5    1    3    3    0  502  0.29982724573E+02  0.30239502276E+02  0.37295946342E+02  0.56802014790E+02  0.47000000000E+01 0.  1.
        -11    1    1    2    0    0  0.21155920430E+02 -0.36393580902E+01 -0.98782866163E+01  0.23630455836E+02  0.00000000000E+00 0.  1.
         11    1    1    2    0    0 -0.14446794630E+02  0.52512106401E+02  0.10253499691E+03  0.11610192413E+03  0.00000000000E+00 0. -1.
<mgrwt>
<rscale>  0 0.12621644E+03</rscale>
<asrwt>0</asrwt>
<pdfrwt beam="2">  1        4 0.69070115E-02 0.13437522E+03</pdfrwt>
<pdfrwt beam="1">  1       -4 0.50393029E-01 0.13437522E+03</pdfrwt>
<totfact> 0.88736112E+02</totfact>
</mgrwt>
</event>
<event>
 7    1  0.7800420E-006  0.1725378E+03  0.7546771E-02  0.1181713E+00
          2   -1    0    0  501    0  0.00000000000E+00  0.00000000000E+00  0.56446239740E+03  0.56446239740E+03  0.00000000000E+00 0. -1.
         -2   -1    0    0    0  501 -0.00000000000E+00 -0.00000000000E+00 -0.57098119849E+02  0.57098119849E+02  0.00000000000E+00 0.  1.
         23    2    1    2    0    0 -0.69267739240E+02 -0.96694582201E+02  0.40642065856E+03  0.44152807036E+03  0.12498569232E+03 0.  0.
          5    1    3    3  502    0 -0.74935632908E+02 -0.11252642154E+03  0.40106565719E+03  0.42326504226E+03  0.47000000000E+01 0.  1.
         -5    1    3    3    0  502  0.56678936675E+01  0.15831839342E+02  0.53550013686E+01  0.18263028096E+02  0.47000000000E+01 0.  1.
        -11    1    1    2    0    0  0.38997138866E+02  0.24010917516E+02  0.89411092590E+02  0.10045717733E+03  0.00000000000E+00 0. -1.
         11    1    1    2    0    0  0.30270600374E+02  0.72683664684E+02  0.11532526397E+02  0.79575269551E+02  0.00000000000E+00 0.  1.
<mgrwt>
<rscale>  0 0.16634556E+03</rscale>
<asrwt>0</asrwt>
<pdfrwt beam="1">  1        2 0.86840365E-01 0.17253778E+03</pdfrwt>
<pdfrwt beam="2">  1       -2 0.87843265E-02 0.17253778E+03</pdfrwt>
<totfact> 0.43267215E+03</totfact>
</mgrwt>
</event>
<event>
 7    1  0.7800420E-006  0.1839456E+03  0.7546771E-02  0.1170125E+00
         -2   -1    0    0    0  501 -0.00000000000E+00  0.00000000000E+00  0.58115909687E+02  0.58115909687E+02  0.00000000000E+00 0.  1.
          2   -1    0    0  501    0  0.00000000000E+00 -0.00000000000E+00 -0.59605112055E+03  0.59605112055E+03  0.00000000000E+00 0. -1.
         23    2    1    2    0    0 -0.56757807887E+01 -0.13482906226E+03 -0.40997476680E+03  0.44934984650E+03  0.12499953850E+03 0.  0.
          5    1    3    3  502    0 -0.20152818095E+02 -0.15178765859E+03 -0.39014296900E+03  0.41914109276E+03  0.47000000000E+01 0. -1.
         -5    1    3    3    0  502  0.14477037307E+02  0.16958596335E+02 -0.19831797795E+02  0.30208753742E+02  0.47000000000E+01 0. -1.
        -11    1    1    2    0    0  0.33533781315E+02  0.96904832437E+02 -0.11869842003E+03  0.15685782083E+03  0.00000000000E+00 0. -1.
         11    1    1    2    0    0 -0.27858000526E+02  0.37924229821E+02 -0.92620240360E+01  0.47959362903E+02  0.00000000000E+00 0.  1.
<mgrwt>
<rscale>  0 0.17762190E+03</rscale>
<asrwt>0</asrwt>
<pdfrwt beam="2">  1        2 0.91700164E-01 0.18394558E+03</pdfrwt>
<pdfrwt beam="1">  1       -2 0.89409100E-02 0.18394558E+03</pdfrwt>
<totfact> 0.39650951E+03</totfact>
</mgrwt>
</event>
<event>
 7    1  0.7800420E-006  0.1500182E+03  0.7546771E-02  0.1210184E+00
         -1   -1    0    0    0  501 -0.00000000000E+00  0.00000000000E+00  0.25576579522E+03  0.25576579522E+03  0.00000000000E+00 0.  1.
          1   -1    0    0  501    0  0.00000000000E+00 -0.00000000000E+00 -0.72172111233E+02  0.72172111233E+02  0.00000000000E+00 0. -1.
         23    2    1    2    0    0 -0.20821433259E+02 -0.80291920808E+02  0.10439371790E+03  0.18276630687E+03  0.12500059984E+03 0.  0.
          5    1    3    3  502    0 -0.36083034881E+02 -0.97342624312E+02  0.35176947232E+02  0.10971362509E+03  0.47000000000E+01 0.  1.
         -5    1    3    3    0  502  0.15261601622E+02  0.17050703504E+02  0.69216770665E+02  0.73052681781E+02  0.47000000000E+01 0.  1.
        -11    1    1    2    0    0  0.40901969108E+02  0.89055997614E+02  0.73593569379E+02  0.12255592700E+03  0.00000000000E+00 0.  1.
         11    1    1    2    0    0 -0.20080535849E+02 -0.87640768053E+01  0.56063967075E+01  0.22615672581E+02  0.00000000000E+00 0. -1.
<mgrwt>
<rscale>  0 0.14236351E+03</rscale>
<asrwt>0</asrwt>
<pdfrwt beam="2">  1        1 0.11103402E-01 0.15001825E+03</pdfrwt>
<pdfrwt beam="1">  1       -1 0.39348583E-01 0.15001825E+03</pdfrwt>
<totfact> 0.34245897E+03</totfact>
</mgrwt>
</event>
<event>
 7    1  0.7800420E-006  0.1472560E+03  0.7546771E-02  0.1213415E+00
         -2   -1    0    0    0  501 -0.00000000000E+00  0.00000000000E+00  0.13144366576E+03  0.13144366576E+03  0.00000000000E+00 0. -1.
          2   -1    0    0  501    0  0.00000000000E+00 -0.00000000000E+00 -0.19127987503E+03  0.19127987503E+03  0.00000000000E+00 0.  1.
         23    2    1    2    0    0  0.13228994917E+02 -0.76709800177E+02 -0.11855483676E+03  0.18904918169E+03  0.12499977611E+03 0.  0.
          5    1    3    3  502    0 -0.29795232040E+01 -0.79475666289E+02 -0.11333175414E+02  0.80472293093E+02  0.47000000000E+01 0.  1.
         -5    1    3    3    0  502  0.16208518121E+02  0.27658661128E+01 -0.10722166135E+03  0.10857688860E+03  0.47000000000E+01 0.  1.
        -11    1    1    2    0    0 -0.35070222869E+02  0.14194239497E+01 -0.10184771074E+01  0.35113709460E+02  0.00000000000E+00 0.  1.
         11    1    1    2    0    0  0.21841227952E+02  0.75290376227E+02  0.59737104599E+02  0.98560649636E+02  0.00000000000E+00 0. -1.
<mgrwt>
<rscale>  0 0.13993589E+03</rscale>
<asrwt>0</asrwt>
<pdfrwt beam="2">  1        2 0.29427673E-01 0.14725605E+03</pdfrwt>
<pdfrwt beam="1">  1       -2 0.20222103E-01 0.14725605E+03</pdfrwt>
<totfact> 0.35713212E+03</totfact>
</mgrwt>
</event>
<event>
 7    1  0.7800420E-006  0.1182447E+03  0.7546771E-02  0.1247873E+00
          1   -1    0    0  501    0  0.00000000000E+00  0.00000000000E+00  0.36746057506E+03  0.36746057506E+03  0.00000000000E+00 0. -1.
         -1   -1    0    0    0  501 -0.00000000000E+00 -0.00000000000E+00 -0.48101571929E+02  0.48101571929E+02  0.00000000000E+00 0.  1.
         23    2    1    2    0    0 -0.24064046436E+02 -0.23316585609E+02  0.26320719187E+03  0.28854778919E+03  0.11339779230E+03 0.  0.
          5    1    3    3  502    0  0.42000035705E+02  0.10344184087E+02  0.10948778170E+03  0.11781625307E+03  0.47000000000E+01 0.  1.
         -5    1    3    3    0  502 -0.66064082141E+02 -0.33660769696E+02  0.15371941016E+03  0.17073153612E+03  0.47000000000E+01 0. -1.
        -11    1    1    2    0    0  0.49233295088E+02  0.26320851877E+02 -0.95082852054E+01  0.56631370072E+02  0.00000000000E+00 0.  1.
         11    1    1    2    0    0 -0.25169248652E+02 -0.30042662681E+01  0.65660096466E+02  0.70382987727E+02  0.00000000000E+00 0. -1.
<mgrwt>
<rscale>  0 0.11715044E+03</rscale>
<asrwt>0</asrwt>
<pdfrwt beam="1">  1        1 0.56532394E-01 0.11824466E+03</pdfrwt>
<pdfrwt beam="2">  1       -1 0.74002421E-02 0.11824466E+03</pdfrwt>
<totfact> 0.62202025E+03</totfact>
</mgrwt>
</event>
<event>
 7    1  0.7800420E-006  0.2349700E+03  0.7546771E-02  0.1126222E+00
          1   -1    0    0  501    0  0.00000000000E+00  0.00000000000E+00  0.13752390955E+03  0.13752390955E+03  0.00000000000E+00 0. -1.
         -1   -1    0    0    0  501 -0.00000000000E+00 -0.00000000000E+00 -0.37340428201E+03  0.37340428201E+03  0.00000000000E+00 0.  1.
         23    2    1    2    0    0 -0.16691037165E+03 -0.10829179452E+03 -0.13166225513E+03  0.26934335999E+03  0.12499884488E+03 0.  0.
          5    1    3    3  502    0 -0.87069316717E+01 -0.67868536647E+02 -0.59349841983E+02  0.90699739080E+02  0.47000000000E+01 0. -1.
         -5    1    3    3    0  502 -0.15820343997E+03 -0.40423257875E+02 -0.72312413144E+02  0.17864362091E+03  0.47000000000E+01 0. -1.
        -11    1    1    2    0    0  0.15428380754E+03  0.65626064042E+02 -0.57950283587E+02  0.17739365524E+03  0.00000000000E+00 0. -1.
         11    1    1    2    0    0  0.12626564104E+02  0.42665730480E+02 -0.46267833750E+02  0.64191176328E+02  0.00000000000E+00 0.  1.
<mgrwt>
<rscale>  0 0.23059404E+03</rscale>
<asrwt>0</asrwt>
<pdfrwt beam="1">  1        1 0.21157525E-01 0.23496999E+03</pdfrwt>
<pdfrwt beam="2">  1       -1 0.57446813E-01 0.23496999E+03</pdfrwt>
<totfact> 0.75059020E+02</totfact>
</mgrwt>
</event>
<event>
 7    1  0.7800420E-006  0.1286516E+03  0.7546771E-02  0.1243669E+00
         -2   -1    0    0    0  501 -0.00000000000E+00  0.00000000000E+00  0.70009489696E+03  0.70009489696E+03  0.00000000000E+00 0.  1.
          2   -1    0    0  501    0  0.00000000000E+00 -0.00000000000E+00 -0.18716404969E+02  0.18716404969E+02  0.00000000000E+00 0. -1.
         23    2    1    2    0    0 -0.26906978907E+02  0.14215890272E+02  0.32162246045E+03  0.34639897728E+03  0.12500066938E+03 0.  0.
          5    1    3    3  502    0 -0.76630664510E+02  0.28284964685E+01  0.20900633391E+03  0.22267913407E+03  0.47000000000E+01 0. -1.
         -5    1    3    3    0  502  0.49723685602E+02  0.11387393804E+02  0.11261612654E+03  0.12371984321E+03  0.47000000000E+01 0. -1.
        -11    1    1    2    0    0  0.22025003667E+02  0.35569550854E+02  0.22074193951E+03  0.22467153268E+03  0.00000000000E+00 0.  1.
         11    1    1    2    0    0  0.48819752407E+01 -0.49785441127E+02  0.13901409202E+03  0.14774079197E+03  0.00000000000E+00 0. -1.
<mgrwt>
<rscale>  0 0.11965371E+03</rscale>
<asrwt>0</asrwt>
<pdfrwt beam="2">  1        2 0.28794474E-02 0.12865164E+03</pdfrwt>
<pdfrwt beam="1">  1       -2 0.10770689E+00 0.12865164E+03</pdfrwt>
<totfact> 0.22732606E+03</totfact>
</mgrwt>
</event>
<event>
 7    1  0.7800420E-006  0.1334645E+03  0.7546771E-02  0.1231006E+00
         -3   -1    0    0    0  501 -0.00000000000E+00  0.00000000000E+00  0.78204542235E+02  0.78204542235E+02  0.00000000000E+00 0.  1.
          3   -1    0    0  501    0  0.00000000000E+00 -0.00000000000E+00 -0.19326859551E+03  0.19326859551E+03  0.00000000000E+00 0. -1.
         23    2    1    2    0    0 -0.19975241774E+02  0.59155507073E+02 -0.73408331071E+02  0.15232056147E+03  0.11795925599E+03 0.  0.
          5    1    3    3  502    0 -0.44380354466E+02  0.30246115562E+02 -0.94465961927E+02  0.10876741852E+03  0.47000000000E+01 0. -1.
         -5    1    3    3    0  502  0.24405112691E+02  0.28909391511E+02  0.21057630855E+02  0.43553142944E+02  0.47000000000E+01 0.  1.
        -11    1    1    2    0    0  0.43550529901E+02 -0.44221589344E+02  0.76108023398E+01  0.62530967776E+02  0.00000000000E+00 0.  1.
         11    1    1    2    0    0 -0.23575288126E+02 -0.14933917729E+02 -0.49266524544E+02  0.56621608504E+02  0.00000000000E+00 0. -1.
<mgrwt>
<rscale>  0 0.12763605E+03</rscale>
<asrwt>0</asrwt>
<pdfrwt beam="2">  1        3 0.29733630E-01 0.13346449E+03</pdfrwt>
<pdfrwt beam="1">  1       -3 0.12031468E-01 0.13346449E+03</pdfrwt>
<totfact> 0.13545550E+03</totfact>
</mgrwt>
</event>
<event>
 7    1  0.7800420E-006  0.2639324E+03  0.7546771E-02  0.1106948E+00
          2   -1    0    0  501    0  0.00000000000E+00  0.00000000000E+00  0.11450535973E+04  0.11450535973E+04  0.00000000000E+00 0. -1.
         -2   -1    0    0    0  501 -0.00000000000E+00 -0.00000000000E+00 -0.59771130574E+02  0.59771130574E+02  0.00000000000E+00 0.  1.
         23    2    1    2    0    0  0.14822324855E+03 -0.17906654095E+03  0.67123331627E+03  0.72125894058E+03  0.12500134798E+03 0.  0.
          5    1    3    3  502    0  0.13912104054E+03 -0.15434898465E+03  0.66049855343E+03  0.69242956469E+03  0.47000000000E+01 0. -1.
         -5    1    3    3    0  502  0.91022080123E+01 -0.24717556309E+02  0.10734762838E+02  0.28829375883E+02  0.47000000000E+01 0. -1.
        -11    1    1    2    0    0 -0.85779647487E+02  0.38791330564E+02  0.18866413586E+03  0.21084845603E+03  0.00000000000E+00 0.  1.
         11    1    1    2    0    0 -0.62443601066E+02  0.14027521039E+03  0.22538501455E+03  0.27271733122E+03  0.00000000000E+00 0. -1.
<mgrwt>
<rscale>  0 0.26032558E+03</rscale>
<asrwt>0</asrwt>
<pdfrwt beam="1">  1        2 0.17616208E+00 0.26393237E+03</pdfrwt>
<pdfrwt beam="2">  1       -2 0.91955594E-02 0.26393237E+03</pdfrwt>
<totfact> 0.16310593E+03</totfact>
</mgrwt>
</event>
<event>
 7    1  0.7800420E-006  0.1663038E+03  0.7546771E-02  0.1188578E+00
         -1   -1    0    0    0  501 -0.00000000000E+00  0.00000000000E+00  0.17046901239E+03  0.17046901239E+03  0.00000000000E+00 0.  1.
          1   -1    0    0  501    0  0.00000000000E+00 -0.00000000000E+00 -0.14443772412E+03  0.14443772412E+03  0.00000000000E+00 0. -1.
         23    2    1    2    0    0  0.47164333653E+02  0.99030491098E+02 -0.12994195425E+02  0.16681072038E+03  0.12500181912E+03 0.  0.
          5    1    3    3  502    0  0.88587961561E+02  0.72367482701E+02 -0.21811116904E+02  0.11654481673E+03  0.47000000000E+01 0.  1.
         -5    1    3    3    0  502 -0.41423627908E+02  0.26663008396E+02  0.88169214784E+01  0.50265903654E+02  0.47000000000E+01 0.  1.
        -11    1    1    2    0    0 -0.20676246422E+02 -0.98353153090E+02  0.57505155369E+02  0.11579159202E+03  0.00000000000E+00 0.  1.
         11    1    1    2    0    0 -0.26488087231E+02 -0.67733800744E+00 -0.18479671676E+02  0.32304424112E+02  0.00000000000E+00 0. -1.
<mgrwt>
<rscale>  0 0.16010526E+03</rscale>
<asrwt>0</asrwt>
<pdfrwt beam="2">  1        1 0.22221188E-01 0.16630384E+03</pdfrwt>
<pdfrwt beam="1">  1       -1 0.26226002E-01 0.16630384E+03</pdfrwt>
<totfact> 0.27944286E+03</totfact>
</mgrwt>
</event>
<event>
 6    1  0.7800420E-006  0.2183742E+03  0.7546771E-02  0.1167383E+00
          1   -1    0    0  501    0  0.00000000000E+00  0.00000000000E+00  0.10672131089E+03  0.10672131089E+03  0.00000000000E+00 0. -1.
         -1   -1    0    0    0  501 -0.00000000000E+00 -0.00000000000E+00 -0.25208730358E+03  0.25208730358E+03  0.00000000000E+00 0.  1.
          5    1    1    2  502    0 -0.23310822930E+02  0.76986411340E+02  0.14471652851E+02  0.81864648860E+02  0.47000000000E+01 0. -1.
         -5    1    1    2    0  502  0.18662691097E+02 -0.12204685917E+03 -0.75818050701E+02  0.14496274930E+03  0.47000000000E+01 0.  1.
        -11    1    1    2    0    0  0.15404323312E+02  0.60208000357E+02 -0.19947704641E+02  0.65270264317E+02  0.00000000000E+00 0. -1.
         11    1    1    2    0    0 -0.10756191478E+02 -0.15147552526E+02 -0.64071890201E+02  0.66710951999E+02  0.00000000000E+00 0.  1.
<mgrwt>
<rscale>  0 0.18043452E+03</rscale>
<asrwt>0</asrwt>
<pdfrwt beam="1">  1        1 0.16418663E-01 0.21837419E+03</pdfrwt>
<pdfrwt beam="2">  1       -1 0.38782662E-01 0.21837419E+03</pdfrwt>
<totfact> 0.21358659E+03</totfact>
</mgrwt>
</event>
<event>
 7    1  0.7800420E-006  0.1396907E+03  0.7546771E-02  0.1225048E+00
          1   -1    0    0  501    0  0.00000000000E+00  0.00000000000E+00  0.32953670032E+03  0.32953670032E+03  0.00000000000E+00 0. -1.
         -1   -1    0    0    0  501 -0.00000000000E+00 -0.00000000000E+00 -0.52884516001E+02  0.52884516001E+02  0.00000000000E+00 0.  1.
         23    2    1    2    0    0  0.62277272537E+02  0.31051101847E+01  0.21440768652E+03  0.25589869196E+03  0.12500153648E+03 0.  0.
          5    1    3    3  502    0  0.77219581212E+02  0.35636920039E+02  0.19933882077E+03  0.21677386664E+03  0.47000000000E+01 0. -1.
         -5    1    3    3    0  502 -0.14942308675E+02 -0.32531809855E+02  0.15068865751E+02  0.39124825316E+02  0.47000000000E+01 0. -1.
        -11    1    1    2    0    0 -0.32669356839E+02 -0.46947129718E+02  0.34310057637E+02  0.66697075798E+02  0.00000000000E+00 0. -1.
         11    1    1    2    0    0 -0.29607915698E+02  0.43842019533E+02  0.27934440156E+02  0.59825448561E+02  0.00000000000E+00 0.  1.
<mgrwt>
<rscale>  0 0.13163584E+03</rscale>
<asrwt>0</asrwt>
<pdfrwt beam="1">  1        1 0.50697953E-01 0.13969067E+03</pdfrwt>
<pdfrwt beam="2">  1       -1 0.81360796E-02 0.13969067E+03</pdfrwt>
<totfact> 0.62422324E+03</totfact>
</mgrwt>
</event>
<event>
 6    1  0.7800420E-006  0.1600091E+03  0.7546771E-02  0.1208822E+00
         -1   -1    0    0    0  501 -0.00000000000E+00  0.00000000000E+00  0.15779009624E+03  0.15779009624E+03  0.00000000000E+00 0.  1.
          1   -1    0    0  501    0  0.00000000000E+00 -0.00000000000E+00 -0.16367968911E+03  0.16367968911E+03  0.00000000000E+00 0. -1.
          5    1    1    2  502    0  0.32447928919E+02  0.76721971823E+02 -0.79305963648E+02  0.11511148909E+03  0.47000000000E+01 0. -1.
         -5    1    1    2    0  502 -0.57461278775E+02 -0.37841103527E+02 -0.14845105408E+02  0.70542291068E+02  0.47000000000E+01 0.  1.
        -11    1    1    2    0    0  0.25257603924E+02  0.26876769094E+02  0.24913402718E+02  0.44508256626E+02  0.00000000000E+00 0. -1.
         11    1    1    2    0    0 -0.24425406876E+00 -0.65757637389E+02  0.63348073468E+02  0.91307748560E+02  0.00000000000E+00 0.  1.
<mgrwt>
<rscale>  0 0.14340266E+03</rscale>
<asrwt>0</asrwt>
<pdfrwt beam="2">  1        1 0.25181491E-01 0.16000907E+03</pdfrwt>
<pdfrwt beam="1">  1       -1 0.24275399E-01 0.16000907E+03</pdfrwt>
<totfact> 0.27058764E+03</totfact>
</mgrwt>
</event>
<event>
 7    1  0.7800420E-006  0.1311165E+03  0.7546771E-02  0.1239330E+00
          3   -1    0    0  501    0  0.00000000000E+00  0.00000000000E+00  0.87489112334E+02  0.87489112334E+02  0.00000000000E+00 0. -1.
         -3   -1    0    0    0  501 -0.00000000000E+00 -0.00000000000E+00 -0.25683844647E+03  0.25683844647E+03  0.00000000000E+00 0.  1.
         23    2    1    2    0    0  0.35522080024E+02 -0.17582003111E+02  0.17947840984E+02  0.13233920530E+03  0.12498237980E+03 0.  0.
          5    1    3    3  502    0 -0.24410737367E+02 -0.36239676108E+02  0.45829362659E+02  0.63495028979E+02  0.47000000000E+01 0. -1.
         -5    1    3    3    0  502  0.59932817391E+02  0.18657672997E+02 -0.27881521676E+02  0.68844176319E+02  0.47000000000E+01 0. -1.
        -11    1    1    2    0    0  0.15944168263E+02 -0.26132989833E+02 -0.74186804149E+02  0.80254791564E+02  0.00000000000E+00 0. -1.
         11    1    1    2    0    0 -0.51466248287E+02  0.43714992944E+02 -0.11311037097E+03  0.13173356194E+03  0.00000000000E+00 0.  1.
<mgrwt>
<rscale>  0 0.12231261E+03</rscale>
<asrwt>0</asrwt>
<pdfrwt beam="1">  1        3 0.13459864E-01 0.13111651E+03</pdfrwt>
<pdfrwt beam="2">  1       -3 0.39513607E-01 0.13111651E+03</pdfrwt>
<totfact> 0.65454447E+02</totfact>
</mgrwt>
</event>
<event>
 7    1  0.7800420E-006  0.1744604E+03  0.7546771E-02  0.1179290E+00
          2   -1    0    0  501    0  0.00000000000E+00  0.00000000000E+00  0.61893556946E+02  0.61893556946E+02  0.00000000000E+00 0. -1.
         -2   -1    0    0    0  501 -0.00000000000E+00 -0.00000000000E+00 -0.43240788981E+03  0.43240788981E+03  0.00000000000E+00 0.  1.
         23    2    1    2    0    0 -0.55717304984E+02  0.10820135661E+03 -0.21096511184E+03  0.27375669073E+03  0.12499798261E+03 0.  0.
          5    1    3    3  502    0 -0.43366145925E+02  0.38195020752E+02 -0.19123709500E+03  0.19983292703E+03  0.47000000000E+01 0.  1.
         -5    1    3    3    0  502 -0.12351159060E+02  0.70006335860E+02 -0.19728016841E+02  0.73923763697E+02  0.47000000000E+01 0.  1.
        -11    1    1    2    0    0  0.44004776857E+00 -0.30723979930E+02  0.43322390112E+01  0.31031030915E+02  0.00000000000E+00 0. -1.
         11    1    1    2    0    0  0.55277257216E+02 -0.77477376681E+02 -0.16388146003E+03  0.18951372511E+03  0.00000000000E+00 0.  1.
<mgrwt>
<rscale>  0 0.16862477E+03</rscale>
<asrwt>0</asrwt>
<pdfrwt beam="1">  1        2 0.95220860E-02 0.17446045E+03</pdfrwt>
<pdfrwt beam="2">  1       -2 0.66524289E-01 0.17446045E+03</pdfrwt>
<totfact> 0.14232055E+03</totfact>
</mgrwt>
</event>
<event>
 7    1  0.7800420E-006  0.1300720E+03  0.7546771E-02  0.1243147E+00
         -1   -1    0    0    0  501 -0.00000000000E+00  0.00000000000E+00  0.81201492219E+01  0.81201492219E+01  0.00000000000E+00 0.  1.
          1   -1    0    0  501    0  0.00000000000E+00 -0.00000000000E+00 -0.20949576957E+04  0.20949576957E+04  0.00000000000E+00 0. -1.
         23    2    1    2    0    0  0.34868186580E+02  0.89102750056E+01 -0.16993431696E+04  0.17043139162E+04  0.12499413350E+03 0.  0.
          5    1    3    3  502    0 -0.26911811725E+02  0.37666822231E+01 -0.12883333751E+04  0.12886284992E+04  0.47000000000E+01 0. -1.
         -5    1    3    3    0  502  0.61779998305E+02  0.51435927825E+01 -0.41100979455E+03  0.41568541705E+03  0.47000000000E+01 0. -1.
        -11    1    1    2    0    0  0.85991953855E+01  0.32174666862E+02 -0.16781676549E+03  0.17108951496E+03  0.00000000000E+00 0.  1.
         11    1    1    2    0    0 -0.43467381965E+02 -0.41084941867E+02 -0.21967761137E+03  0.22767441376E+03  0.00000000000E+00 0. -1.
<mgrwt>
<rscale>  0 0.11996975E+03</rscale>
<asrwt>0</asrwt>
<pdfrwt beam="2">  1        1 0.32230139E+00 0.13007197E+03</pdfrwt>
<pdfrwt beam="1">  1       -1 0.12492529E-02 0.13007197E+03</pdfrwt>
<totfact> 0.39558648E+03</totfact>
</mgrwt>
</event>
<event>
 7    1  0.7800420E-006  0.1333138E+03  0.7546771E-02  0.1234715E+00
          3   -1    0    0  501    0  0.00000000000E+00  0.00000000000E+00  0.22888924484E+02  0.22888924484E+02  0.00000000000E+00 0. -1.
         -3   -1    0    0    0  501 -0.00000000000E+00 -0.00000000000E+00 -0.63707356503E+03  0.63707356503E+03  0.00000000000E+00 0.  1.
         23    2    1    2    0    0 -0.17161346723E+02 -0.43064215352E+02 -0.28168007956E+03  0.31163479987E+03  0.12499417108E+03 0.  0.
          5    1    3    3  502    0  0.53021895666E+02 -0.63598489112E+01 -0.12502699784E+03  0.13603532368E+03  0.47000000000E+01 0.  1.
         -5    1    3    3    0  502 -0.70183242388E+02 -0.36704366441E+02 -0.15665308172E+03  0.17559947620E+03  0.47000000000E+01 0.  1.
        -11    1    1    2    0    0  0.28051109239E+02 -0.19600919043E+02 -0.17771539592E+03  0.18098017213E+03  0.00000000000E+00 0.  1.
         11    1    1    2    0    0 -0.10889762517E+02  0.62665134395E+02 -0.15478916506E+03  0.16734751751E+03  0.00000000000E+00 0. -1.
<mgrwt>
<rscale>  0 0.12522701E+03</rscale>
<asrwt>0</asrwt>
<pdfrwt beam="1">  1        3 0.35213739E-02 0.13331385E+03</pdfrwt>
<pdfrwt beam="2">  1       -3 0.98011291E-01 0.13331385E+03</pdfrwt>
<totfact> 0.86630754E+02</totfact>
</mgrwt>
</event>
<event>
 7    1  0.7800420E-006  0.1416407E+03  0.7546771E-02  0.1220320E+00
          1   -1    0    0  501    0  0.00000000000E+00  0.00000000000E+00  0.22981628333E+03  0.22981628333E+03  0.00000000000E+00 0. -1.
         -1   -1    0    0    0  501 -0.00000000000E+00 -0.00000000000E+00 -0.83162943612E+02  0.83162943612E+02  0.00000000000E+00 0.  1.
         23    2    1    2    0    0  0.58573083152E+02  0.42876871930E+02  0.13514316971E+03  0.19576967904E+03  0.12162589648E+03 0.  0.
          5    1    3    3  502    0 -0.10897875524E+02  0.53883858208E+02  0.16197918280E+02  0.57503881807E+02  0.47000000000E+01 0. -1.
         -5    1    3    3    0  502  0.69470958676E+02 -0.11006986277E+02  0.11894525143E+03  0.13826579723E+03  0.47000000000E+01 0.  1.
        -11    1    1    2    0    0 -0.42173372616E+02 -0.77084795346E+01  0.47709467206E+02  0.64142086618E+02  0.00000000000E+00 0. -1.
         11    1    1    2    0    0 -0.16399710536E+02 -0.35168392396E+02 -0.36199297199E+02  0.53067461284E+02  0.00000000000E+00 0.  1.
<mgrwt>
<rscale>  0 0.13492914E+03</rscale>
<asrwt>0</asrwt>
<pdfrwt beam="1">  1        1 0.35356351E-01 0.14164071E+03</pdfrwt>
<pdfrwt beam="2">  1       -1 0.12794299E-01 0.14164071E+03</pdfrwt>
<totfact> 0.48846323E+03</totfact>
</mgrwt>
</event>
<event>
 7    1  0.7800420E-006  0.1259427E+03  0.7546771E-02  0.1248638E+00
         -2   -1    0    0    0  501 -0.00000000000E+00  0.00000000000E+00  0.12225859192E+02  0.12225859192E+02  0.00000000000E+00 0.  1.
          2   -1    0    0  501    0  0.00000000000E+00 -0.00000000000E+00 -0.10917899543E+04  0.10917899543E+04  0.00000000000E+00 0. -1.
         23    2    1    2    0    0  0.38334647074E+01  0.14887953699E+02 -0.78863229018E+03  0.79862534746E+03  0.12500083950E+03 0.  0.
          5    1    3    3  502    0  0.46999519548E+02  0.40391916632E+02 -0.24862376398E+03  0.25627393114E+03  0.47000000000E+01 0. -1.
         -5    1    3    3    0  502 -0.43166054840E+02 -0.25503962933E+02 -0.54000852620E+03  0.54235141632E+03  0.47000000000E+01 0. -1.
        -11    1    1    2    0    0  0.36732495213E+02  0.93581466064E+00 -0.21275998366E+03  0.21590961674E+03  0.00000000000E+00 0. -1.
         11    1    1    2    0    0 -0.40565959920E+02 -0.15823768359E+02 -0.78171821265E+02  0.89480849288E+02  0.00000000000E+00 0.  1.
<mgrwt>
<rscale>  0 0.11670268E+03</rscale>
<asrwt>0</asrwt>
<pdfrwt beam="2">  1        2 0.16796759E+00 0.12594267E+03</pdfrwt>
<pdfrwt beam="1">  1       -2 0.18809024E-02 0.12594267E+03</pdfrwt>
<totfact> 0.18609969E+04</totfact>
</mgrwt>
</event>
<event>
 7    1  0.7800420E-006  0.1255835E+03  0.7546771E-02  0.1250230E+00
          1   -1    0    0  501    0  0.00000000000E+00  0.00000000000E+00  0.76493254678E+03  0.76493254678E+03  0.00000000000E+00 0. -1.
         -1   -1    0    0    0  501 -0.00000000000E+00 -0.00000000000E+00 -0.34510152060E+02  0.34510152060E+02  0.00000000000E+00 0.  1.
         23    2    1    2    0    0  0.64720664322E-01 -0.12139695563E+02  0.68786843427E+03  0.69923830348E+03  0.12499538311E+03 0.  0.
          5    1    3    3  502    0  0.10303486617E+02 -0.43212523301E+02  0.90192893146E+02  0.10064955032E+03  0.47000000000E+01 0.  1.
         -5    1    3    3    0  502 -0.10238765952E+02  0.31072827737E+02  0.59767554112E+03  0.59858875316E+03  0.47000000000E+01 0.  1.
        -11    1    1    2    0    0 -0.28487603945E+02  0.34250198976E+02  0.11856324793E+00  0.44549228564E+02  0.00000000000E+00 0.  1.
         11    1    1    2    0    0  0.28422883280E+02 -0.22110503412E+02  0.42435397205E+02  0.55655166796E+02  0.00000000000E+00 0. -1.
<mgrwt>
<rscale>  0 0.11577773E+03</rscale>
<asrwt>0</asrwt>
<pdfrwt beam="1">  1        1 0.11768192E+00 0.12558353E+03</pdfrwt>
<pdfrwt beam="2">  1       -1 0.53092547E-02 0.12558353E+03</pdfrwt>
<totfact> 0.38593459E+03</totfact>
</mgrwt>
</event>
<event>
 7    1  0.7800420E-006  0.1355639E+03  0.7546771E-02  0.1232072E+00
         -3   -1    0    0    0  501 -0.00000000000E+00  0.00000000000E+00  0.13990156545E+03  0.13990156545E+03  0.00000000000E+00 0.  1.
          3   -1    0    0  501    0  0.00000000000E+00 -0.00000000000E+00 -0.12184862838E+03  0.12184862838E+03  0.00000000000E+00 0. -1.
         23    2    1    2    0    0 -0.27774907600E+02 -0.44536253808E+02 -0.41432609457E+02  0.14175417213E+03  0.12499064283E+03 0.  0.
          5    1    3    3  502    0  0.14773094411E+02 -0.78748569856E+02 -0.30596925283E+02  0.85894373562E+02  0.47000000000E+01 0. -1.
         -5    1    3    3    0  502 -0.42548002011E+02  0.34212316049E+02 -0.10835684173E+02  0.55859798568E+02  0.47000000000E+01 0. -1.
        -11    1    1    2    0    0  0.22727223230E+02  0.70633434072E+01  0.75329228738E+02  0.78999431631E+02  0.00000000000E+00 0.  1.
         11    1    1    2    0    0  0.50476843691E+01  0.37472910400E+02 -0.15843682215E+02  0.40996590072E+02  0.00000000000E+00 0. -1.
<mgrwt>
<rscale>  0 0.12693736E+03</rscale>
<asrwt>0</asrwt>
<pdfrwt beam="2">  1        3 0.18745943E-01 0.13556395E+03</pdfrwt>
<pdfrwt beam="1">  1       -3 0.21523318E-01 0.13556395E+03</pdfrwt>
<totfact> 0.11410345E+03</totfact>
</mgrwt>
</event>
<event>
 7    1  0.7800420E-006  0.1793995E+03  0.7546771E-02  0.1175836E+00
         -1   -1    0    0    0  501 -0.00000000000E+00  0.00000000000E+00  0.29898694843E+03  0.29898694843E+03  0.00000000000E+00 0.  1.
          1   -1    0    0  501    0  0.00000000000E+00 -0.00000000000E+00 -0.95622646998E+02  0.95622646998E+02  0.00000000000E+00 0. -1.
         23    2    1    2    0    0  0.62929115916E+02  0.12411547583E+03  0.69046794722E+02  0.19222808630E+03  0.11322302032E+03 0.  0.
          5    1    3    3  502    0  0.87316995170E+02  0.11741481603E+03  0.76853142555E+02  0.16534507005E+03  0.47000000000E+01 0. -1.
         -5    1    3    3    0  502 -0.24387879255E+02  0.67006598002E+01 -0.78063478327E+01  0.26883016252E+02  0.47000000000E+01 0.  1.
        -11    1    1    2    0    0  0.94304325695E+01 -0.36763008243E+02  0.33929630827E+02  0.50908463752E+02  0.00000000000E+00 0. -1.
         11    1    1    2    0    0 -0.72359548485E+02 -0.87352467588E+02  0.10038787588E+03  0.15147304537E+03  0.00000000000E+00 0.  1.
<mgrwt>
<rscale>  0 0.17194352E+03</rscale>
<asrwt>0</asrwt>
<pdfrwt beam="2">  1        1 0.14711177E-01 0.17939949E+03</pdfrwt>
<pdfrwt beam="1">  1       -1 0.45997992E-01 0.17939949E+03</pdfrwt>
<totfact> 0.18057682E+03</totfact>
</mgrwt>
</event>
<event>
 7    1  0.7800420E-006  0.1487628E+03  0.7546771E-02  0.1211556E+00
         -1   -1    0    0    0  501 -0.00000000000E+00  0.00000000000E+00  0.23544265804E+03  0.23544265804E+03  0.00000000000E+00 0.  1.
          1   -1    0    0  501    0  0.00000000000E+00 -0.00000000000E+00 -0.77686615010E+02  0.77686615010E+02  0.00000000000E+00 0. -1.
         23    2    1    2    0    0  0.78209479065E+02 -0.19702710526E+02  0.76967506469E+02  0.16749439193E+03  0.12500181942E+03 0.  0.
          5    1    3    3  502    0 -0.20140271409E+02  0.82915844207E+01 -0.17398816751E+02  0.28269943915E+02  0.47000000000E+01 0. -1.
         -5    1    3    3    0  502  0.98349750474E+02 -0.27994294947E+02  0.94366323220E+02  0.13922444802E+03  0.47000000000E+01 0. -1.
        -11    1    1    2    0    0 -0.34491191963E+02  0.15785972851E+02  0.92694493558E+02  0.10015542121E+03  0.00000000000E+00 0.  1.
         11    1    1    2    0    0 -0.43718287103E+02  0.39167376754E+01 -0.11905956997E+02  0.45479459905E+02  0.00000000000E+00 0. -1.
<mgrwt>
<rscale>  0 0.14132586E+03</rscale>
<asrwt>0</asrwt>
<pdfrwt beam="2">  1        1 0.11951787E-01 0.14876281E+03</pdfrwt>
<pdfrwt beam="1">  1       -1 0.36221947E-01 0.14876281E+03</pdfrwt>
<totfact> 0.35875937E+03</totfact>
</mgrwt>
</event>
<event>
 7    1  0.7800420E-006  0.1279297E+03  0.7546771E-02  0.1245163E+00
          1   -1    0    0  501    0  0.00000000000E+00  0.00000000000E+00  0.96403604972E+03  0.96403604972E+03  0.00000000000E+00 0. -1.
         -1   -1    0    0    0  501 -0.00000000000E+00 -0.00000000000E+00 -0.31883732040E+02  0.31883732040E+02  0.00000000000E+00 0.  1.
         23    2    1    2    0    0  0.14095256147E+02  0.16772565291E+02  0.87656964349E+03  0.88585571008E+03  0.12603969217E+03 0.  0.
          5    1    3    3  502    0 -0.25987291542E+02  0.10175062134E+02  0.78569070846E+03  0.78620026111E+03  0.47000000000E+01 0. -1.
         -5    1    3    3    0  502  0.40082547689E+02  0.65975031565E+01  0.90878935024E+02  0.99655448964E+02  0.47000000000E+01 0.  1.
        -11    1    1    2    0    0 -0.40071409474E+02  0.15747047155E+02  0.32194610828E+01  0.43174671754E+02  0.00000000000E+00 0. -1.
         11    1    1    2    0    0  0.25976153327E+02 -0.32519612446E+02  0.52363213106E+02  0.66889399924E+02  0.00000000000E+00 0.  1.
<mgrwt>
<rscale>  0 0.11875649E+03</rscale>
<asrwt>0</asrwt>
<pdfrwt beam="1">  1        1 0.14831322E+00 0.12792967E+03</pdfrwt>
<pdfrwt beam="2">  1       -1 0.49051903E-02 0.12792967E+03</pdfrwt>
<totfact> 0.30295828E+03</totfact>
</mgrwt>
</event>
<event>
 7    1  0.7800420E-006  0.1329503E+03  0.7546771E-02  0.1236129E+00
          1   -1    0    0  501    0  0.00000000000E+00  0.00000000000E+00  0.65173967002E+03  0.65173967002E+03  0.00000000000E+00 0. -1.
         -1   -1    0    0    0  501 -0.00000000000E+00 -0.00000000000E+00 -0.21632387073E+02  0.21632387073E+02  0.00000000000E+00 0.  1.
         23    2    1    2    0    0 -0.10001274029E+02 -0.44193222550E+02  0.40773039059E+03  0.42885877297E+03  0.12499083705E+03 0.  0.
          5    1    3    3  502    0 -0.17350484546E+02  0.19340589367E+01 -0.35403778546E+00  0.18083009725E+02  0.47000000000E+01 0. -1.
         -5    1    3    3    0  502  0.73492105175E+01 -0.46127281487E+02  0.40808442837E+03  0.41077576325E+03  0.47000000000E+01 0. -1.
        -11    1    1    2    0    0  0.47157053787E+02  0.42732871069E+02  0.12474537992E+03  0.14004033635E+03  0.00000000000E+00 0.  1.
         11    1    1    2    0    0 -0.37155779758E+02  0.14603514815E+01  0.97631512439E+02  0.10447294778E+03  0.00000000000E+00 0. -1.
<mgrwt>
<rscale>  0 0.12432462E+03</rscale>
<asrwt>0</asrwt>
<pdfrwt beam="1">  1        1 0.10026763E+00 0.13295028E+03</pdfrwt>
<pdfrwt beam="2">  1       -1 0.33280600E-02 0.13295028E+03</pdfrwt>
<totfact> 0.96692779E+03</totfact>
</mgrwt>
</event>
<event>
 7    1  0.7800420E-006  0.2013019E+03  0.7546771E-02  0.1153219E+00
          1   -1    0    0  501    0  0.00000000000E+00  0.00000000000E+00  0.21847007445E+03  0.21847007445E+03  0.00000000000E+00 0. -1.
         -1   -1    0    0    0  501 -0.00000000000E+00 -0.00000000000E+00 -0.21286736319E+03  0.21286736319E+03  0.00000000000E+00 0.  1.
         23    2    1    2    0    0  0.11603518237E+03 -0.10692865155E+03  0.10297095523E+03  0.22610940942E+03  0.12499818935E+03 0.  0.
          5    1    3    3  502    0  0.13360366565E+03 -0.10921509814E+03  0.65942815543E+02  0.18479291669E+03  0.47000000000E+01 0. -1.
         -5    1    3    3    0  502 -0.17568483287E+02  0.22864465916E+01  0.37028139684E+02  0.41316492730E+02  0.47000000000E+01 0. -1.
        -11    1    1    2    0    0 -0.97302798001E+02  0.44448625407E+02 -0.89596972350E+02  0.13953899904E+03  0.00000000000E+00 0. -1.
         11    1    1    2    0    0 -0.18732384365E+02  0.62480026144E+02 -0.77712716200E+01  0.65689029171E+02  0.00000000000E+00 0.  1.
<mgrwt>
<rscale>  0 0.19593015E+03</rscale>
<asrwt>0</asrwt>
<pdfrwt beam="1">  1        1 0.33610781E-01 0.20130188E+03</pdfrwt>
<pdfrwt beam="2">  1       -1 0.32748825E-01 0.20130188E+03</pdfrwt>
<totfact> 0.11465176E+03</totfact>
</mgrwt>
</event>
<event>
 7    1  0.7800420E-006  0.1849456E+03  0.7546771E-02  0.1168213E+00
         -1   -1    0    0    0  501 -0.00000000000E+00  0.00000000000E+00  0.49260937815E+02  0.49260937815E+02  0.00000000000E+00 0.  1.
          1   -1    0    0  501    0  0.00000000000E+00 -0.00000000000E+00 -0.69921515991E+03  0.69921515991E+03  0.00000000000E+00 0. -1.
         23    2    1    2    0    0  0.82735728452E+02 -0.10836923079E+03 -0.46821574624E+03  0.50341916855E+03  0.12496312772E+03 0.  0.
          5    1    3    3  502    0 -0.14294500614E+02 -0.14560719884E+01 -0.18380518630E+03  0.18442583714E+03  0.47000000000E+01 0.  1.
         -5    1    3    3    0  502  0.97030229067E+02 -0.10691315880E+03 -0.28441055995E+03  0.31899333141E+03  0.47000000000E+01 0.  1.
        -11    1    1    2    0    0 -0.50162757666E+02  0.56607616814E+02 -0.16521711516E+03  0.18170696101E+03  0.00000000000E+00 0.  1.
         11    1    1    2    0    0 -0.32572970786E+02  0.51761613978E+02 -0.16521360695E+02  0.63349968166E+02  0.00000000000E+00 0. -1.
<mgrwt>
<rscale>  0 0.17957743E+03</rscale>
<asrwt>0</asrwt>
<pdfrwt beam="2">  1        1 0.10757156E+00 0.18494560E+03</pdfrwt>
<pdfrwt beam="1">  1       -1 0.75786063E-02 0.18494560E+03</pdfrwt>
<totfact> 0.26144898E+03</totfact>
</mgrwt>
</event>
<event>
 7    1  0.7800420E-006  0.1730108E+03  0.7546771E-02  0.1181181E+00
         -4   -1    0    0    0  501 -0.00000000000E+00  0.00000000000E+00  0.66873232920E+02  0.66873232920E+02  0.00000000000E+00 0.  1.
          4   -1    0    0  501    0  0.00000000000E+00 -0.00000000000E+00 -0.39233848596E+03  0.39233848596E+03  0.00000000000E+00 0. -1.
         23    2    1    2    0    0 -0.78976342496E+02 -0.89820287238E+02 -0.19507570542E+03  0.26074369765E+03  0.12501119288E+03 0.  0.
          5    1    3    3  502    0 -0.90281335800E+02 -0.41025880313E+02 -0.58577941205E+02  0.11527058447E+03  0.47000000000E+01 0.  1.
         -5    1    3    3    0  502  0.11304993303E+02 -0.48794406925E+02 -0.13649776421E+03  0.14547311317E+03  0.47000000000E+01 0.  1.
        -11    1    1    2    0    0  0.17084619014E+02  0.11201896188E+02 -0.87072085976E+02  0.89436652673E+02  0.00000000000E+00 0. -1.
         11    1    1    2    0    0  0.61891723482E+02  0.78618391049E+02 -0.43317461646E+02  0.10903136856E+03  0.00000000000E+00 0.  1.
<mgrwt>
<rscale>  0 0.16684268E+03</rscale>
<asrwt>0</asrwt>
<pdfrwt beam="2">  1        4 0.60359767E-01 0.17301082E+03</pdfrwt>
<pdfrwt beam="1">  1       -4 0.10288190E-01 0.17301082E+03</pdfrwt>
<totfact> 0.32915012E+02</totfact>
</mgrwt>
</event>
<event>
 7    1  0.7800420E-006  0.1409434E+03  0.7546771E-02  0.1222043E+00
         -1   -1    0    0    0  501 -0.00000000000E+00  0.00000000000E+00  0.15624829213E+03  0.15624829213E+03  0.00000000000E+00 0.  1.
          1   -1    0    0  501    0  0.00000000000E+00 -0.00000000000E+00 -0.10428910867E+03  0.10428910867E+03  0.00000000000E+00 0. -1.
         23    2    1    2    0    0 -0.64360743450E+02  0.99581443481E+01  0.33519396695E+02  0.14487438591E+03  0.12499427108E+03 0.  0.
          5    1    3    3  502    0  0.31007403629E+02  0.25644108487E+02 -0.48096598009E+01  0.40795860174E+02  0.47000000000E+01 0. -1.
         -5    1    3    3    0  502 -0.95368147079E+02 -0.15685964139E+02  0.38329056496E+02  0.10407852574E+03  0.47000000000E+01 0. -1.
        -11    1    1    2    0    0  0.62433762228E+02  0.73214734175E+01 -0.25936603844E+02  0.68002103335E+02  0.00000000000E+00 0. -1.
         11    1    1    2    0    0  0.19269812212E+01 -0.17279617766E+02  0.44376390610E+02  0.47660911556E+02  0.00000000000E+00 0.  1.
<mgrwt>
<rscale>  0 0.13371635E+03</rscale>
<asrwt>0</asrwt>
<pdfrwt beam="2">  1        1 0.16044478E-01 0.14094338E+03</pdfrwt>
<pdfrwt beam="1">  1       -1 0.24038199E-01 0.14094338E+03</pdfrwt>
<totfact> 0.48525409E+03</totfact>
</mgrwt>
</event>
<event>
 7    1  0.7800420E-006  0.1460591E+03  0.7546771E-02  0.1215853E+00
         -2   -1    0    0    0  501 -0.00000000000E+00  0.00000000000E+00  0.55457492358E+02  0.55457492358E+02  0.00000000000E+00 0.  1.
          2   -1    0    0  501    0  0.00000000000E+00 -0.00000000000E+00 -0.32106425098E+03  0.32106425098E+03  0.00000000000E+00 0. -1.
         23    2    1    2    0    0 -0.74899337083E+02 -0.99166307394E+01 -0.17917856648E+03  0.23116709190E+03  0.12500006174E+03 0.  0.
          5    1    3    3  502    0 -0.79770166806E+02 -0.53817329271E+02 -0.91448020259E+02  0.13283228091E+03  0.47000000000E+01 0.  1.
         -5    1    3    3    0  502  0.48708297233E+01  0.43900698532E+02 -0.87730546218E+02  0.98334810995E+02  0.47000000000E+01 0.  1.
        -11    1    1    2    0    0  0.81190499693E+02 -0.19390891456E+02 -0.46902689193E+02  0.95748452549E+02  0.00000000000E+00 0.  1.
         11    1    1    2    0    0 -0.62911626109E+01  0.29307522195E+02 -0.39525502953E+02  0.49606198886E+02  0.00000000000E+00 0. -1.
<mgrwt>
<rscale>  0 0.13814032E+03</rscale>
<asrwt>0</asrwt>
<pdfrwt beam="2">  1        2 0.49394501E-01 0.14605912E+03</pdfrwt>
<pdfrwt beam="1">  1       -2 0.85319218E-02 0.14605912E+03</pdfrwt>
<totfact> 0.82843633E+03</totfact>
</mgrwt>
</event>
<event>
 7    1  0.7800420E-006  0.2290308E+03  0.7546771E-02  0.1130382E+00
         -1   -1    0    0    0  501 -0.00000000000E+00  0.00000000000E+00  0.32426291590E+03  0.32426291590E+03  0.00000000000E+00 0.  1.
          1   -1    0    0  501    0  0.00000000000E+00 -0.00000000000E+00 -0.15360392698E+03  0.15360392698E+03  0.00000000000E+00 0. -1.
         23    2    1    2    0    0 -0.67902823369E+02  0.17950440865E+03  0.53199153211E+02  0.23512817037E+03  0.12498992139E+03 0.  0.
          5    1    3    3  502    0  0.23919792653E+02  0.55939539853E+02  0.53434432795E+02  0.81109291747E+02  0.47000000000E+01 0.  1.
         -5    1    3    3    0  502 -0.91822616022E+02  0.12356486880E+03 -0.23527958461E+00  0.15401887862E+03  0.47000000000E+01 0.  1.
        -11    1    1    2    0    0  0.67449869012E+02 -0.89629120648E+02  0.10185683704E+03  0.15151791759E+03  0.00000000000E+00 0.  1.
         11    1    1    2    0    0  0.45295435733E+00 -0.89875288005E+02  0.15602998669E+02  0.91220754925E+02  0.00000000000E+00 0. -1.
<mgrwt>
<rscale>  0 0.22476199E+03</rscale>
<asrwt>0</asrwt>
<pdfrwt beam="2">  1        1 0.23631373E-01 0.22903080E+03</pdfrwt>
<pdfrwt beam="1">  1       -1 0.49886602E-01 0.22903080E+03</pdfrwt>
<totfact> 0.84850802E+02</totfact>
</mgrwt>
</event>
<event>
 7    1  0.7800420E-006  0.1268057E+03  0.7546771E-02  0.1245550E+00
          1   -1    0    0  501    0  0.00000000000E+00  0.00000000000E+00  0.22688566159E+03  0.22688566159E+03  0.00000000000E+00 0. -1.
         -1   -1    0    0    0  501 -0.00000000000E+00 -0.00000000000E+00 -0.12138999080E+03  0.12138999080E+03  0.00000000000E+00 0.  1.
         23    2    1    2    0    0  0.17247129866E+02  0.12523550658E+02  0.18412997898E+03  0.22356999207E+03  0.12500155754E+03 0.  0.
          5    1    3    3  502    0  0.57345770620E+02 -0.58791502586E+01  0.34155451731E+02  0.67169834738E+02  0.47000000000E+01 0.  1.
         -5    1    3    3    0  502 -0.40098640754E+02  0.18402700917E+02  0.14997452725E+03  0.15640015733E+03  0.47000000000E+01 0.  1.
        -11    1    1    2    0    0  0.38944915863E+02 -0.40886374284E+01 -0.40110390837E+02  0.56055926365E+02  0.00000000000E+00 0.  1.
         11    1    1    2    0    0 -0.56192045729E+02 -0.84349132301E+01 -0.38523917342E+02  0.68649733953E+02  0.00000000000E+00 0. -1.
<mgrwt>
<rscale>  0 0.11852525E+03</rscale>
<asrwt>0</asrwt>
<pdfrwt beam="1">  1        1 0.34905486E-01 0.12680573E+03</pdfrwt>
<pdfrwt beam="2">  1       -1 0.18675383E-01 0.12680573E+03</pdfrwt>
<totfact> 0.27244152E+03</totfact>
</mgrwt>
</event>
<event>
 7    1  0.7800420E-006  0.1261496E+03  0.7546771E-02  0.1248359E+00
         -4   -1    0    0    0  501 -0.00000000000E+00  0.00000000000E+00  0.36288625524E+03  0.36288625524E+03  0.00000000000E+00 0.  1.
          4   -1    0    0  501    0  0.00000000000E+00 -0.00000000000E+00 -0.51342343605E+02  0.51342343605E+02  0.00000000000E+00 0. -1.
         23    2    1    2    0    0  0.88617276925E+01  0.14525369052E+02  0.48320842731E+02  0.13508746661E+03  0.12499681287E+03 0.  0.
          5    1    3    3  502    0  0.31535336863E+01  0.68322248641E+02  0.42047609816E+02  0.80423665207E+02  0.47000000000E+01 0. -1.
         -5    1    3    3    0  502  0.57081940062E+01 -0.53796879590E+02  0.62732329152E+01  0.54663801401E+02  0.47000000000E+01 0. -1.
        -11    1    1    2    0    0  0.13490150302E+02 -0.39796502391E+02  0.22166394834E+03  0.22561172787E+03  0.00000000000E+00 0.  1.
         11    1    1    2    0    0 -0.22351877994E+02  0.25271133340E+02  0.41559120566E+02  0.53529404371E+02  0.00000000000E+00 0. -1.
<mgrwt>
<rscale>  0 0.11686569E+03</rscale>
<asrwt>0</asrwt>
<pdfrwt beam="2">  1        4 0.78988223E-02 0.12614959E+03</pdfrwt>
<pdfrwt beam="1">  1       -4 0.55828653E-01 0.12614959E+03</pdfrwt>
<totfact> 0.56893444E+02</totfact>
</mgrwt>
</event>
<event>
 7    1  0.7800420E-006  0.1265705E+03  0.7546771E-02  0.1246943E+00
          2   -1    0    0  501    0  0.00000000000E+00  0.00000000000E+00  0.63388186412E+03  0.63388186412E+03  0.00000000000E+00 0. -1.
         -2   -1    0    0    0  501 -0.00000000000E+00 -0.00000000000E+00 -0.19323808961E+02  0.19323808961E+02  0.00000000000E+00 0.  1.
         23    2    1    2    0    0 -0.19876524276E+02  0.13881725443E+01  0.36296931401E+03  0.38440450906E+03  0.12499240149E+03 0.  0.
          5    1    3    3  502    0 -0.51761025443E+02  0.37311346253E+02  0.11332821483E+03  0.13014113336E+03  0.47000000000E+01 0.  1.
         -5    1    3    3    0  502  0.31884501167E+02 -0.35923173709E+02  0.24964109918E+03  0.25426337570E+03  0.47000000000E+01 0.  1.
        -11    1    1    2    0    0  0.11460515538E+02  0.36898977561E+02  0.48728549864E+02  0.62188017602E+02  0.00000000000E+00 0.  1.
         11    1    1    2    0    0  0.84160087374E+01 -0.38287150105E+02  0.20286019129E+03  0.20661314642E+03  0.00000000000E+00 0. -1.
<mgrwt>
<rscale>  0 0.11769848E+03</rscale>
<asrwt>0</asrwt>
<pdfrwt beam="1">  1        2 0.97520271E-01 0.12657055E+03</pdfrwt>
<pdfrwt beam="2">  1       -2 0.29728942E-02 0.12657055E+03</pdfrwt>
<totfact> 0.19076290E+04</totfact>
</mgrwt>
</event>
<event>
 7    1  0.7800420E-006  0.1270194E+03  0.7546771E-02  0.1242815E+00
          2   -1    0    0  501    0  0.00000000000E+00  0.00000000000E+00  0.51391985268E+03  0.51391985268E+03  0.00000000000E+00 0. -1.
         -2   -1    0    0    0  501 -0.00000000000E+00 -0.00000000000E+00 -0.51431363019E+02  0.51431363019E+02  0.00000000000E+00 0.  1.
         23    2    1    2    0    0  0.37708151295E+02  0.22171536784E+02  0.44414247552E+03  0.46194854997E+03  0.11924949701E+03 0.  0.
          5    1    3    3  502    0  0.74145012052E+02  0.73010980827E+01  0.18026421354E+03  0.19511039318E+03  0.47000000000E+01 0. -1.
         -5    1    3    3    0  502 -0.36436860756E+02  0.14870438701E+02  0.26387826198E+03  0.26683815678E+03  0.47000000000E+01 0.  1.
        -11    1    1    2    0    0 -0.65991526292E+02 -0.27346008981E+02  0.21189468672E+02  0.74509592216E+02  0.00000000000E+00 0.  1.
         11    1    1    2    0    0  0.28283374996E+02  0.51744721972E+01 -0.28434545298E+01  0.28893073519E+02  0.00000000000E+00 0. -1.
<mgrwt>
<rscale>  0 0.12017083E+03</rscale>
<asrwt>0</asrwt>
<pdfrwt beam="1">  1        2 0.79064589E-01 0.12701939E+03</pdfrwt>
<pdfrwt beam="2">  1       -2 0.79125177E-02 0.12701939E+03</pdfrwt>
<totfact> 0.55678230E+03</totfact>
</mgrwt>
</event>
<event>
 7    1  0.7800420E-006  0.1413190E+03  0.7546771E-02  0.1221669E+00
         -2   -1    0    0    0  501 -0.00000000000E+00  0.00000000000E+00  0.73958184800E+02  0.73958184800E+02  0.00000000000E+00 0.  1.
          2   -1    0    0  501    0  0.00000000000E+00 -0.00000000000E+00 -0.23999826409E+03  0.23999826409E+03  0.00000000000E+00 0. -1.
         23    2    1    2    0    0  0.44853401701E+02  0.48316745189E+02 -0.13548045080E+03  0.19577030710E+03  0.12499890032E+03 0.  0.
          5    1    3    3  502    0 -0.35832052019E+02 -0.12883435896E+01 -0.82575505721E+01  0.37092761053E+02  0.47000000000E+01 0. -1.
         -5    1    3    3    0  502  0.80685453720E+02  0.49605088779E+02 -0.12722290023E+03  0.15867754604E+03  0.47000000000E+01 0. -1.
        -11    1    1    2    0    0  0.27183583320E+02 -0.93121055546E-01 -0.10959040617E+02  0.29309664701E+02  0.00000000000E+00 0. -1.
         11    1    1    2    0    0 -0.72036985021E+02 -0.48223624134E+02 -0.19600587868E+02  0.88876477092E+02  0.00000000000E+00 0.  1.
<mgrwt>
<rscale>  0 0.13397860E+03</rscale>
<asrwt>0</asrwt>
<pdfrwt beam="2">  1        2 0.36922809E-01 0.14131900E+03</pdfrwt>
<pdfrwt beam="1">  1       -2 0.11378182E-01 0.14131900E+03</pdfrwt>
<totfact> 0.71647390E+03</totfact>
</mgrwt>
</event>
<event>
 7    1  0.7800420E-006  0.1448729E+03  0.7546771E-02  0.1218158E+00
          2   -1    0    0  501    0  0.00000000000E+00  0.00000000000E+00  0.18571971004E+03  0.18571971004E+03  0.00000000000E+00 0. -1.
         -2   -1    0    0    0  501 -0.00000000000E+00 -0.00000000000E+00 -0.92376466829E+02  0.92376466829E+02  0.00000000000E+00 0.  1.
         23    2    1    2    0    0 -0.12160352084E+02  0.72211267620E+02  0.72975661972E+02  0.16221471018E+03  0.12500329446E+03 0.  0.
          5    1    3    3  502    0  0.43048501234E+02  0.10728261075E+02  0.65311095464E+02  0.79094236420E+02  0.47000000000E+01 0. -1.
         -5    1    3    3    0  502 -0.55208853318E+02  0.61483006546E+02  0.76645665079E+01  0.83120473762E+02  0.47000000000E+01 0. -1.
        -11    1    1    2    0    0  0.44446606135E+02 -0.62669468480E+02  0.27246955788E+02  0.81519075536E+02  0.00000000000E+00 0. -1.
         11    1    1    2    0    0 -0.32286254052E+02 -0.95417991407E+01 -0.68793745488E+01  0.34362391152E+02  0.00000000000E+00 0.  1.
<mgrwt>
<rscale>  0 0.13647102E+03</rscale>
<asrwt>0</asrwt>
<pdfrwt beam="1">  1        2 0.28572263E-01 0.14487293E+03</pdfrwt>
<pdfrwt beam="2">  1       -2 0.14211764E-01 0.14487293E+03</pdfrwt>
<totfact> 0.66178745E+03</totfact>
</mgrwt>
</event>
<event>
 7    1  0.7800420E-006  0.1537060E+03  0.7546771E-02  0.1203568E+00
          1   -1    0    0  501    0  0.00000000000E+00  0.00000000000E+00  0.10332528982E+04  0.10332528982E+04  0.00000000000E+00 0. -1.
         -1   -1    0    0    0  501 -0.00000000000E+00 -0.00000000000E+00 -0.25173378751E+02  0.25173378751E+02  0.00000000000E+00 0.  1.
         23    2    1    2    0    0 -0.84683344632E+02  0.28792149691E+02  0.78614113698E+03  0.80102647808E+03  0.12500109839E+03 0.  0.
          5    1    3    3  502    0 -0.22724133498E+02 -0.25142772529E+02  0.51733870927E+02  0.62024419826E+02  0.47000000000E+01 0. -1.
         -5    1    3    3    0  502 -0.61959211134E+02  0.53934922220E+02  0.73440726605E+03  0.73900205826E+03  0.47000000000E+01 0. -1.
        -11    1    1    2    0    0  0.24762810517E+02  0.26314622719E+02  0.24009594514E+02  0.43383369881E+02  0.00000000000E+00 0.  1.
         11    1    1    2    0    0  0.59920534115E+02 -0.55106772410E+02  0.19792878797E+03  0.21401642900E+03  0.00000000000E+00 0. -1.
<mgrwt>
<rscale>  0 0.14750878E+03</rscale>
<asrwt>0</asrwt>
<pdfrwt beam="1">  1        1 0.15896195E+00 0.15370599E+03</pdfrwt>
<pdfrwt beam="2">  1       -1 0.38728283E-02 0.15370599E+03</pdfrwt>
<totfact> 0.38386409E+03</totfact>
</mgrwt>
</event>
<event>
 7    1  0.7800420E-006  0.1284349E+03  0.7546771E-02  0.1242860E+00
         -1   -1    0    0    0  501 -0.00000000000E+00  0.00000000000E+00  0.17992754183E+03  0.17992754183E+03  0.00000000000E+00 0.  1.
          1   -1    0    0  501    0  0.00000000000E+00 -0.00000000000E+00 -0.77282930642E+02  0.77282930642E+02  0.00000000000E+00 0. -1.
         23    2    1    2    0    0 -0.69733197385E+01 -0.28684222417E+02  0.22602306587E+02  0.13040856424E+03  0.12499647019E+03 0.  0.
          5    1    3    3  502    0 -0.15552971829E+02 -0.76033755684E+02  0.17928740838E+01  0.77771018597E+02  0.47000000000E+01 0. -1.
         -5    1    3    3    0  502  0.85796520906E+01  0.47349533266E+02  0.20809432503E+02  0.52637545646E+02  0.47000000000E+01 0. -1.
        -11    1    1    2    0    0  0.48505751024E+02  0.27919995145E+02  0.37666038229E+02  0.67461577563E+02  0.00000000000E+00 0.  1.
         11    1    1    2    0    0 -0.41532431286E+02  0.76422727207E+00  0.42376266369E+02  0.59340330663E+02  0.00000000000E+00 0. -1.
<mgrwt>
<rscale>  0 0.12014387E+03</rscale>
<asrwt>0</asrwt>
<pdfrwt beam="2">  1        1 0.11889682E-01 0.12843492E+03</pdfrwt>
<pdfrwt beam="1">  1       -1 0.27681160E-01 0.12843492E+03</pdfrwt>
<totfact> 0.56441342E+03</totfact>
</mgrwt>
</event>
<event>
 7    1  0.7800420E-006  0.1356415E+03  0.7546771E-02  0.1231145E+00
          3   -1    0    0  501    0  0.00000000000E+00  0.00000000000E+00  0.11111269750E+04  0.11111269750E+04  0.00000000000E+00 0. -1.
         -3   -1    0    0    0  501 -0.00000000000E+00 -0.00000000000E+00 -0.13531576517E+02  0.13531576517E+02  0.00000000000E+00 0.  1.
         23    2    1    2    0    0 -0.50878308344E+02  0.13611097399E+02  0.70879316540E+03  0.72165529447E+03  0.12499899392E+03 0.  0.
          5    1    3    3  502    0 -0.16160934189E+02 -0.55187127610E+02  0.26645168892E+03  0.27262682805E+03  0.47000000000E+01 0. -1.
         -5    1    3    3    0  502 -0.34717374155E+02  0.68798225009E+02  0.44234147648E+03  0.44902846641E+03  0.47000000000E+01 0. -1.
        -11    1    1    2    0    0  0.54550286768E+02  0.24662213714E+02  0.15686157964E+03  0.16789733094E+03  0.00000000000E+00 0.  1.
         11    1    1    2    0    0 -0.36719784247E+01 -0.38273311113E+02  0.23194065343E+03  0.23510592609E+03  0.00000000000E+00 0. -1.
<mgrwt>
<rscale>  0 0.12754448E+03</rscale>
<asrwt>0</asrwt>
<pdfrwt beam="1">  1        3 0.17094254E+00 0.13564149E+03</pdfrwt>
<pdfrwt beam="2">  1       -3 0.20817819E-02 0.13564149E+03</pdfrwt>
<totfact> 0.51344905E+02</totfact>
</mgrwt>
</event>
<event>
 6    1  0.7800420E-006  0.1359448E+03  0.7546771E-02  0.1263980E+00
         -2   -1    0    0    0  501 -0.00000000000E+00  0.00000000000E+00  0.79536297307E+01  0.79536297307E+01  0.00000000000E+00 0.  1.
          2   -1    0    0  501    0  0.00000000000E+00 -0.00000000000E+00 -0.12755028586E+04  0.12755028586E+04  0.00000000000E+00 0. -1.
          5    1    1    2  502    0  0.19128922965E+02  0.82649243512E+02 -0.81184807015E+03  0.81628193178E+03  0.47000000000E+01 0. -1.
         -5    1    1    2    0  502 -0.40861436687E+01 -0.46028447945E+02 -0.25535998947E+03  0.25954985805E+03  0.47000000000E+01 0.  1.
        -11    1    1    2    0    0  0.39348005788E+01 -0.35241096239E+02 -0.12747395198E+03  0.13231411849E+03  0.00000000000E+00 0.  1.
         11    1    1    2    0    0 -0.18977579875E+02 -0.13796993282E+01 -0.72867217225E+02  0.75310579962E+02  0.00000000000E+00 0. -1.
<mgrwt>
<rscale>  0 0.10817894E+03</rscale>
<asrwt>0</asrwt>
<pdfrwt beam="2">  1        2 0.19623115E+00 0.13594483E+03</pdfrwt>
<pdfrwt beam="1">  1       -2 0.12236357E-02 0.13594483E+03</pdfrwt>
<totfact> 0.27483847E+04</totfact>
</mgrwt>
</event>
<event>
 7    1  0.7800420E-006  0.1609974E+03  0.7546771E-02  0.1194918E+00
          1   -1    0    0  501    0  0.00000000000E+00  0.00000000000E+00  0.11328843970E+03  0.11328843970E+03  0.00000000000E+00 0. -1.
         -1   -1    0    0    0  501 -0.00000000000E+00 -0.00000000000E+00 -0.24777217210E+03  0.24777217210E+03  0.00000000000E+00 0.  1.
         23    2    1    2    0    0 -0.98516650343E+02 -0.24364359164E+02  0.10869431841E+02  0.16136392111E+03  0.12498407137E+03 0.  0.
          5    1    3    3  502    0 -0.22338624816E+01  0.42648787603E+02 -0.33925927618E+01  0.43098827260E+02  0.47000000000E+01 0.  1.
         -5    1    3    3    0  502 -0.96282787861E+02 -0.67013146767E+02  0.14262024603E+02  0.11826509385E+03  0.47000000000E+01 0.  1.
        -11    1    1    2    0    0 -0.48965460123E+01 -0.11672666931E+02  0.50668322549E+01  0.13634518885E+02  0.00000000000E+00 0. -1.
         11    1    1    2    0    0  0.10341319636E+03  0.36037026095E+02 -0.15041999649E+03  0.18606217180E+03  0.00000000000E+00 0.  1.
<mgrwt>
<rscale>  0 0.15461190E+03</rscale>
<asrwt>0</asrwt>
<pdfrwt beam="1">  1        1 0.17428991E-01 0.16099742E+03</pdfrwt>
<pdfrwt beam="2">  1       -1 0.38118796E-01 0.16099742E+03</pdfrwt>
<totfact> 0.20161116E+03</totfact>
</mgrwt>
</event>
<event>
 7    1  0.7800420E-006  0.1336392E+03  0.7546771E-02  0.1234839E+00
         -3   -1    0    0    0  501 -0.00000000000E+00  0.00000000000E+00  0.40354231317E+03  0.40354231317E+03  0.00000000000E+00 0.  1.
          3   -1    0    0  501    0  0.00000000000E+00 -0.00000000000E+00 -0.35602745054E+02  0.35602745054E+02  0.00000000000E+00 0. -1.
         23    2    1    2    0    0 -0.33117684354E+00 -0.47280924944E+02  0.17125176452E+03  0.21722478706E+03  0.12499538281E+03 0.  0.
          5    1    3    3  502    0  0.19352667951E+02  0.37595420393E+02  0.82158533525E+02  0.92520570807E+02  0.47000000000E+01 0. -1.
         -5    1    3    3    0  502 -0.19683844794E+02 -0.84876345337E+02  0.89093230991E+02  0.12470421626E+03  0.47000000000E+01 0. -1.
        -11    1    1    2    0    0 -0.86935178160E+01 -0.15732680766E+02  0.32353628986E+01  0.18263681698E+02  0.00000000000E+00 0. -1.
         11    1    1    2    0    0  0.90246946596E+01  0.63013605709E+02  0.19345244070E+03  0.20365658946E+03  0.00000000000E+00 0.  1.
<mgrwt>
<rscale>  0 0.12514727E+03</rscale>
<asrwt>0</asrwt>
<pdfrwt beam="2">  1        3 0.54773457E-02 0.13363922E+03</pdfrwt>
<pdfrwt beam="1">  1       -3 0.62083430E-01 0.13363922E+03</pdfrwt>
<totfact> 0.11610919E+03</totfact>
</mgrwt>
</event>
<event>
 7    1  0.7800420E-006  0.1389644E+03  0.7546771E-02  0.1226135E+00
          4   -1    0    0  501    0  0.00000000000E+00  0.00000000000E+00  0.27030831457E+03  0.27030831457E+03  0.00000000000E+00 0. -1.
         -4   -1    0    0    0  501 -0.00000000000E+00 -0.00000000000E+00 -0.57071505699E+02  0.57071505699E+02  0.00000000000E+00 0.  1.
         23    2    1    2    0    0 -0.49489106180E+02  0.35164045224E+02  0.12282832989E+03  0.18546672717E+03  0.12500170622E+03 0.  0.
          5    1    3    3  502    0 -0.12457830764E+02 -0.46600115677E+02  0.51526046753E+02  0.70737485271E+02  0.47000000000E+01 0. -1.
         -5    1    3    3    0  502 -0.37031275416E+02  0.81764160901E+02  0.71302283135E+02  0.11472924190E+03  0.47000000000E+01 0. -1.
        -11    1    1    2    0    0  0.55672778523E+02 -0.17292409409E+02  0.97981703481E+01  0.59114210083E+02  0.00000000000E+00 0.  1.
         11    1    1    2    0    0 -0.61836723424E+01 -0.17871635814E+02  0.80610308630E+02  0.82798883011E+02  0.00000000000E+00 0. -1.
<mgrwt>
<rscale>  0 0.13089398E+03</rscale>
<asrwt>0</asrwt>
<pdfrwt beam="1">  1        4 0.41585894E-01 0.13896441E+03</pdfrwt>
<pdfrwt beam="2">  1       -4 0.87802318E-02 0.13896441E+03</pdfrwt>
<totfact> 0.88372591E+02</totfact>
</mgrwt>
</event>
<event>
 7    1  0.7800420E-006  0.1321592E+03  0.7546771E-02  0.1237872E+00
         -2   -1    0    0    0  501 -0.00000000000E+00  0.00000000000E+00  0.18285763018E+02  0.18285763018E+02  0.00000000000E+00 0.  1.
          2   -1    0    0  501    0  0.00000000000E+00 -0.00000000000E+00 -0.77875987682E+03  0.77875987682E+03  0.00000000000E+00 0. -1.
         23    2    1    2    0    0 -0.21892181356E+02  0.36901777344E+02 -0.52262065849E+03  0.53907180486E+03  0.12500019735E+03 0.  0.
          5    1    3    3  502    0 -0.55691245042E+02  0.21396878307E+02 -0.47358773354E+03  0.47735392796E+03  0.47000000000E+01 0. -1.
         -5    1    3    3    0  502  0.33799063686E+02  0.15504899037E+02 -0.49032924951E+02  0.61717876903E+02  0.47000000000E+01 0. -1.
        -11    1    1    2    0    0  0.43210617718E+02 -0.91092251692E+01 -0.49265514844E+02  0.66160610786E+02  0.00000000000E+00 0.  1.
         11    1    1    2    0    0 -0.21318436361E+02 -0.27792552175E+02 -0.18858794046E+03  0.19181322419E+03  0.00000000000E+00 0. -1.
<mgrwt>
<rscale>  0 0.12322361E+03</rscale>
<asrwt>0</asrwt>
<pdfrwt beam="2">  1        2 0.11980921E+00 0.13215922E+03</pdfrwt>
<pdfrwt beam="1">  1       -2 0.28131945E-02 0.13215922E+03</pdfrwt>
<totfact> 0.16255298E+04</totfact>
</mgrwt>
</event>
<event>
 7    1  0.7800420E-006  0.1526981E+03  0.7546771E-02  0.1205246E+00
          2   -1    0    0  501    0  0.00000000000E+00  0.00000000000E+00  0.36429725429E+03  0.36429725429E+03  0.00000000000E+00 0. -1.
         -2   -1    0    0    0  501 -0.00000000000E+00 -0.00000000000E+00 -0.63772876149E+02  0.63772876149E+02  0.00000000000E+00 0.  1.
         23    2    1    2    0    0 -0.49556249953E+02 -0.72398985854E+02  0.24416749292E+03  0.28798344413E+03  0.12497705562E+03 0.  0.
          5    1    3    3  502    0 -0.81790712462E+02 -0.84607195149E+02  0.18322307339E+03  0.21780928065E+03  0.47000000000E+01 0. -1.
         -5    1    3    3    0  502  0.32234462509E+02  0.12208209295E+02  0.60944419535E+02  0.70174163479E+02  0.47000000000E+01 0. -1.
        -11    1    1    2    0    0  0.31808152645E+02  0.14698485575E+01 -0.17353637470E+02  0.36263863044E+02  0.00000000000E+00 0.  1.
         11    1    1    2    0    0  0.17748097308E+02  0.70929137297E+02  0.73710522684E+02  0.10382282326E+03  0.00000000000E+00 0. -1.
<mgrwt>
<rscale>  0 0.14618065E+03</rscale>
<asrwt>0</asrwt>
<pdfrwt beam="1">  1        2 0.56045730E-01 0.15269807E+03</pdfrwt>
<pdfrwt beam="2">  1       -2 0.98112120E-02 0.15269807E+03</pdfrwt>
<totfact> 0.58364192E+03</totfact>
</mgrwt>
</event>
<event>
 7    1  0.7800420E-006  0.1334608E+03  0.7546771E-02  0.1235787E+00
         -1   -1    0    0    0  501 -0.00000000000E+00  0.00000000000E+00  0.13374562491E+03  0.13374562491E+03  0.00000000000E+00 0.  1.
          1   -1    0    0  501    0  0.00000000000E+00 -0.00000000000E+00 -0.12286632062E+03  0.12286632062E+03  0.00000000000E+00 0. -1.
         23    2    1    2    0    0 -0.43607060529E+02  0.16904215630E+02 -0.45202072988E+02  0.14090777641E+03  0.12499778324E+03 0.  0.
          5    1    3    3  502    0  0.29470339049E+02  0.41827059471E+02 -0.13192813737E+00  0.51382012345E+02  0.47000000000E+01 0.  1.
         -5    1    3    3    0  502 -0.73077399577E+02 -0.24922843840E+02 -0.45070144851E+02  0.89525764063E+02  0.47000000000E+01 0.  1.
        -11    1    1    2    0    0  0.43185132685E+02 -0.50567538333E+02  0.29218724720E+02  0.72634464907E+02  0.00000000000E+00 0. -1.
         11    1    1    2    0    0  0.42192784341E+00  0.33663322702E+02  0.26862652557E+02  0.43069704212E+02  0.00000000000E+00 0.  1.
<mgrwt>
<rscale>  0 0.12454178E+03</rscale>
<asrwt>0</asrwt>
<pdfrwt beam="2">  1        1 0.18902511E-01 0.13346076E+03</pdfrwt>
<pdfrwt beam="1">  1       -1 0.20576250E-01 0.13346076E+03</pdfrwt>
<totfact> 0.50442015E+03</totfact>
</mgrwt>
</event>
<event>
 7    1  0.7800420E-006  0.1371182E+03  0.7546771E-02  0.1228383E+00
         -2   -1    0    0    0  501 -0.00000000000E+00  0.00000000000E+00  0.58550149262E+02  0.58550149262E+02  0.00000000000E+00 0.  1.
          2   -1    0    0  501    0  0.00000000000E+00 -0.00000000000E+00 -0.39714478784E+03  0.39714478784E+03  0.00000000000E+00 0. -1.
         23    2    1    2    0    0 -0.31265340452E+02  0.46873789327E+02 -0.31631534655E+03  0.34475615083E+03  0.12500692554E+03 0.  0.
          5    1    3    3  502    0 -0.27073573162E+02  0.86385109205E+02 -0.26239956067E+03  0.27761661495E+03  0.47000000000E+01 0.  1.
         -5    1    3    3    0  502 -0.41917672899E+01 -0.39511319878E+02 -0.53915785879E+02  0.67139535882E+02  0.47000000000E+01 0.  1.
        -11    1    1    2    0    0 -0.16760584896E+01  0.24345164245E+02  0.96251535381E+01  0.26232418395E+02  0.00000000000E+00 0.  1.
         11    1    1    2    0    0  0.32941398942E+02 -0.71218953572E+02 -0.31904445570E+02  0.84706367879E+02  0.00000000000E+00 0. -1.
<mgrwt>
<rscale>  0 0.12937710E+03</rscale>
<asrwt>0</asrwt>
<pdfrwt beam="2">  1        2 0.61099196E-01 0.13711822E+03</pdfrwt>
<pdfrwt beam="1">  1       -2 0.90077156E-02 0.13711822E+03</pdfrwt>
<totfact> 0.60467220E+03</totfact>
</mgrwt>
</event>
<event>
 7    1  0.7800420E-006  0.1402920E+03  0.7546771E-02  0.1222797E+00
          2   -1    0    0  501    0  0.00000000000E+00  0.00000000000E+00  0.24606385962E+03  0.24606385962E+03  0.00000000000E+00 0. -1.
         -2   -1    0    0    0  501 -0.00000000000E+00 -0.00000000000E+00 -0.65723135017E+02  0.65723135017E+02  0.00000000000E+00 0.  1.
         23    2    1    2    0    0 -0.63645274040E+02  0.21440687282E+01  0.95676049985E+02  0.16981095657E+03  0.12500614582E+03 0.  0.
          5    1    3    3  502    0 -0.95310586773E+02 -0.97100116970E+01  0.95951920004E+02  0.13567333279E+03  0.47000000000E+01 0. -1.
         -5    1    3    3    0  502  0.31665312732E+02  0.11854080425E+02 -0.27587001946E+00  0.34137623781E+02  0.47000000000E+01 0. -1.
        -11    1    1    2    0    0  0.39823471018E+02  0.45619978543E+02  0.43163718806E+02  0.74365300425E+02  0.00000000000E+00 0.  1.
         11    1    1    2    0    0  0.23821803022E+02 -0.47764047271E+02  0.41500955816E+02  0.67610737643E+02  0.00000000000E+00 0. -1.
<mgrwt>
<rscale>  0 0.13319014E+03</rscale>
<asrwt>0</asrwt>
<pdfrwt beam="1">  1        2 0.37855978E-01 0.14029203E+03</pdfrwt>
<pdfrwt beam="2">  1       -2 0.10111252E-01 0.14029203E+03</pdfrwt>
<totfact> 0.84044516E+03</totfact>
</mgrwt>
</event>
<event>
 7    1  0.7800420E-006  0.1285532E+03  0.7546771E-02  0.1236490E+00
         -1   -1    0    0    0  501 -0.00000000000E+00  0.00000000000E+00  0.11272630740E+03  0.11272630740E+03  0.00000000000E+00 0.  1.
          1   -1    0    0  501    0  0.00000000000E+00 -0.00000000000E+00 -0.13894526254E+03  0.13894526254E+03  0.00000000000E+00 0. -1.
         23    2    1    2    0    0  0.17831741322E+01  0.29971778076E+02 -0.49299362890E+02  0.13768203187E+03  0.12499771009E+03 0.  0.
          5    1    3    3  502    0 -0.45083636654E+02 -0.63912224800E+01  0.16783602006E+02  0.48756141306E+02  0.47000000000E+01 0. -1.
         -5    1    3    3    0  502  0.46866810786E+02  0.36363000556E+02 -0.66082964896E+02  0.88925890561E+02  0.47000000000E+01 0. -1.
        -11    1    1    2    0    0 -0.11661640678E+02 -0.19443255788E+02 -0.41783498744E+02  0.47538351110E+02  0.00000000000E+00 0. -1.
         11    1    1    2    0    0  0.98784665461E+01 -0.10528522288E+02  0.64863906497E+02  0.66451186964E+02  0.00000000000E+00 0.  1.
<mgrwt>
<rscale>  0 0.12409543E+03</rscale>
<asrwt>0</asrwt>
<pdfrwt beam="2">  1        1 0.21376194E-01 0.12855316E+03</pdfrwt>
<pdfrwt beam="1">  1       -1 0.17342509E-01 0.12855316E+03</pdfrwt>
<totfact> 0.56547767E+03</totfact>
</mgrwt>
</event>
<event>
 7    1  0.7800420E-006  0.1374211E+03  0.7546771E-02  0.1228916E+00
         -2   -1    0    0    0  501 -0.00000000000E+00  0.00000000000E+00  0.38751008801E+02  0.38751008801E+02  0.00000000000E+00 0.  1.
          2   -1    0    0  501    0  0.00000000000E+00 -0.00000000000E+00 -0.41352990064E+03  0.41352990064E+03  0.00000000000E+00 0. -1.
         23    2    1    2    0    0 -0.25702919245E+02  0.50964338703E+02 -0.26852254251E+03  0.30164370538E+03  0.12500626096E+03 0.  0.
          5    1    3    3  502    0  0.45009870276E+02  0.44215152221E+02 -0.95592381141E+02  0.11463359647E+03  0.47000000000E+01 0. -1.
         -5    1    3    3    0  502 -0.70712789521E+02  0.67491864825E+01 -0.17293016137E+03  0.18701010891E+03  0.47000000000E+01 0. -1.
        -11    1    1    2    0    0  0.75716348503E+01 -0.29215099917E+02 -0.11663729737E+03  0.12047867386E+03  0.00000000000E+00 0. -1.
         11    1    1    2    0    0  0.18131284395E+02 -0.21749238786E+02  0.10380948047E+02  0.30158530202E+02  0.00000000000E+00 0.  1.
<mgrwt>
<rscale>  0 0.12902051E+03</rscale>
<asrwt>0</asrwt>
<pdfrwt beam="2">  1        2 0.63619982E-01 0.13742114E+03</pdfrwt>
<pdfrwt beam="1">  1       -2 0.59616939E-02 0.13742114E+03</pdfrwt>
<totfact> 0.10917489E+04</totfact>
</mgrwt>
</event>
<event>
 7    1  0.7800420E-006  0.1474885E+03  0.7546771E-02  0.1209023E+00
          3   -1    0    0  501    0  0.00000000000E+00  0.00000000000E+00  0.21783466953E+03  0.21783466953E+03  0.00000000000E+00 0. -1.
         -3   -1    0    0    0  501 -0.00000000000E+00 -0.00000000000E+00 -0.34912308841E+03  0.34912308841E+03  0.00000000000E+00 0.  1.
         23    2    1    2    0    0 -0.95286055554E+02 -0.21494578828E+02  0.17788727813E+03  0.23107733368E+03  0.11050520855E+03 0.  0.
          5    1    3    3  502    0 -0.12893889410E+02 -0.70479254628E+01  0.13697420448E+03  0.13784030010E+03  0.47000000000E+01 0. -1.
         -5    1    3    3    0  502 -0.82392166144E+02 -0.14446653366E+02  0.40913073652E+02  0.93237033581E+02  0.47000000000E+01 0.  1.
        -11    1    1    2    0    0  0.34964510324E+02  0.40220303825E+02 -0.22151307533E+03  0.22783378232E+03  0.00000000000E+00 0.  1.
         11    1    1    2    0    0  0.60321545230E+02 -0.18725724997E+02 -0.87662621676E+02  0.10804664194E+03  0.00000000000E+00 0. -1.
<mgrwt>
<rscale>  0 0.14324906E+03</rscale>
<asrwt>0</asrwt>
<pdfrwt beam="1">  1        3 0.33513027E-01 0.14748848E+03</pdfrwt>
<pdfrwt beam="2">  1       -3 0.53711244E-01 0.14748848E+03</pdfrwt>
<totfact> 0.71641309E+01</totfact>
</mgrwt>
</event>
<event>
 7    1  0.7800420E-006  0.1419096E+03  0.7546771E-02  0.1221581E+00
         -2   -1    0    0    0  501 -0.00000000000E+00  0.00000000000E+00  0.21319785835E+03  0.21319785835E+03  0.00000000000E+00 0.  1.
          2   -1    0    0  501    0  0.00000000000E+00 -0.00000000000E+00 -0.76651566527E+02  0.76651566527E+02  0.00000000000E+00 0. -1.
         23    2    1    2    0    0 -0.36206612217E+02 -0.56606689570E+02  0.64547589056E+02  0.15589973553E+03  0.12499240062E+03 0.  0.
          5    1    3    3  502    0  0.30528080036E+02 -0.41648757644E+02  0.70020902736E+02  0.87129785401E+02  0.47000000000E+01 0. -1.
         -5    1    3    3    0  502 -0.66734692253E+02 -0.14957931925E+02 -0.54733136807E+01  0.68769950126E+02  0.47000000000E+01 0. -1.
        -11    1    1    2    0    0  0.51676410970E+02  0.34683263554E+02  0.84010260634E+02  0.10455192066E+03  0.00000000000E+00 0.  1.
         11    1    1    2    0    0 -0.15469798753E+02  0.21923426016E+02 -0.12011557866E+02  0.29397768692E+02  0.00000000000E+00 0. -1.
<mgrwt>
<rscale>  0 0.13404008E+03</rscale>
<asrwt>0</asrwt>
<pdfrwt beam="2">  1        2 0.11792549E-01 0.14190961E+03</pdfrwt>
<pdfrwt beam="1">  1       -2 0.32799670E-01 0.14190961E+03</pdfrwt>
<totfact> 0.43332219E+03</totfact>
</mgrwt>
</event>
<event>
 7    1  0.7800420E-006  0.1471488E+03  0.7546771E-02  0.1213546E+00
          1   -1    0    0  501    0  0.00000000000E+00  0.00000000000E+00  0.49655051605E+03  0.49655051605E+03  0.00000000000E+00 0. -1.
         -1   -1    0    0    0  501 -0.00000000000E+00 -0.00000000000E+00 -0.42495230358E+02  0.42495230358E+02  0.00000000000E+00 0.  1.
         23    2    1    2    0    0  0.62379836145E+02  0.46207135122E+02  0.35194988565E+03  0.38147277859E+03  0.12500566186E+03 0.  0.
          5    1    3    3  502    0  0.67418187528E+02  0.61532974470E+02  0.35299626587E+03  0.36463676813E+03  0.47000000000E+01 0. -1.
         -5    1    3    3    0  502 -0.50383513822E+01 -0.15325839348E+02 -0.10463802181E+01  0.16836010452E+02  0.47000000000E+01 0. -1.
        -11    1    1    2    0    0  0.83737823789E+01 -0.35257893460E+02  0.44892428807E+01  0.36515648484E+02  0.00000000000E+00 0.  1.
         11    1    1    2    0    0 -0.70753618524E+02 -0.10949241662E+02  0.97616157162E+02  0.12105731934E+03  0.00000000000E+00 0. -1.
<mgrwt>
<rscale>  0 0.13983852E+03</rscale>
<asrwt>0</asrwt>
<pdfrwt beam="1">  1        1 0.76392383E-01 0.14714876E+03</pdfrwt>
<pdfrwt beam="2">  1       -1 0.65377281E-02 0.14714876E+03</pdfrwt>
<totfact> 0.51720481E+03</totfact>
</mgrwt>
</event>
<event>
 7    1  0.7800420E-006  0.1324394E+03  0.7546771E-02  0.1239939E+00
          4   -1    0    0  501    0  0.00000000000E+00  0.00000000000E+00  0.14404085136E+03  0.14404085136E+03  0.00000000000E+00 0. -1.
         -4   -1    0    0    0  501 -0.00000000000E+00 -0.00000000000E+00 -0.97790000988E+02  0.97790000988E+02  0.00000000000E+00 0.  1.
         23    2    1    2    0    0  0.13615365634E+02  0.41577564157E+02  0.60509706122E+02  0.14560775591E+03  0.12500448802E+03 0.  0.
          5    1    3    3  502    0  0.12678803919E+02  0.68233848099E+01  0.95124549490E+02  0.96322793589E+02  0.47000000000E+01 0.  1.
         -5    1    3    3    0  502  0.93656171569E+00  0.34754179347E+02 -0.34614843368E+02  0.49284962325E+02  0.47000000000E+01 0.  1.
        -11    1    1    2    0    0 -0.12600703918E+02  0.15673237119E+02 -0.30654378493E+02  0.36662228817E+02  0.00000000000E+00 0.  1.
         11    1    1    2    0    0 -0.10146617163E+01 -0.57250801277E+02  0.16395522744E+02  0.59560867617E+02  0.00000000000E+00 0. -1.
<mgrwt>
<rscale>  0 0.12193472E+03</rscale>
<asrwt>0</asrwt>
<pdfrwt beam="1">  1        4 0.22160131E-01 0.13243940E+03</pdfrwt>
<pdfrwt beam="2">  1       -4 0.15044615E-01 0.13243940E+03</pdfrwt>
<totfact> 0.11514150E+03</totfact>
</mgrwt>
</event>
<event>
 7    1  0.7800420E-006  0.1498081E+03  0.7546771E-02  0.1209713E+00
         -1   -1    0    0    0  501 -0.00000000000E+00  0.00000000000E+00  0.33911718238E+02  0.33911718238E+02  0.00000000000E+00 0.  1.
          1   -1    0    0  501    0  0.00000000000E+00 -0.00000000000E+00 -0.60705422382E+03  0.60705422382E+03  0.00000000000E+00 0. -1.
         23    2    1    2    0    0  0.75530372676E+02 -0.33368489402E+02 -0.40923810750E+03  0.43579615811E+03  0.12499667799E+03 0.  0.
          5    1    3    3  502    0  0.10702220496E+03 -0.43788369342E+02 -0.30053358702E+03  0.32204611560E+03  0.47000000000E+01 0.  1.
         -5    1    3    3    0  502 -0.31491832281E+02  0.10419879941E+02 -0.10870452048E+03  0.11375004251E+03  0.47000000000E+01 0.  1.
        -11    1    1    2    0    0 -0.35505894411E+02 -0.25258623489E+02 -0.10224717618E+03  0.11114473283E+03  0.00000000000E+00 0. -1.
         11    1    1    2    0    0 -0.40024478265E+02  0.58627112891E+02 -0.61657221899E+02  0.94025051123E+02  0.00000000000E+00 0.  1.
<mgrwt>
<rscale>  0 0.14272133E+03</rscale>
<asrwt>0</asrwt>
<pdfrwt beam="2">  1        1 0.93392954E-01 0.14980809E+03</pdfrwt>
<pdfrwt beam="1">  1       -1 0.52171876E-02 0.14980809E+03</pdfrwt>
<totfact> 0.55413059E+03</totfact>
</mgrwt>
</event>
<event>
 7    1  0.7800420E-006  0.1429258E+03  0.7546771E-02  0.1220040E+00
          1   -1    0    0  501    0  0.00000000000E+00  0.00000000000E+00  0.19620878526E+03  0.19620878526E+03  0.00000000000E+00 0. -1.
         -1   -1    0    0    0  501 -0.00000000000E+00 -0.00000000000E+00 -0.12356705573E+03  0.12356705573E+03  0.00000000000E+00 0.  1.
         23    2    1    2    0    0  0.51100463282E+02 -0.46805873000E+02  0.12890934734E+03  0.19247179167E+03  0.12500289462E+03 0.  0.
          5    1    3    3  502    0 -0.88353060236E+01 -0.70306467427E+02  0.36765645988E+02  0.79967898057E+02  0.47000000000E+01 0. -1.
         -5    1    3    3    0  502  0.59935769305E+02  0.23500594427E+02  0.92143701350E+02  0.11250389362E+03  0.47000000000E+01 0. -1.
        -11    1    1    2    0    0 -0.50326614291E+02  0.34872802698E+02  0.81659348729E+01  0.61770243373E+02  0.00000000000E+00 0. -1.
         11    1    1    2    0    0 -0.77384899098E+00  0.11933070302E+02 -0.64433552681E+02  0.65533805934E+02  0.00000000000E+00 0.  1.
<mgrwt>
<rscale>  0 0.13512749E+03</rscale>
<asrwt>0</asrwt>
<pdfrwt beam="1">  1        1 0.30185967E-01 0.14292575E+03</pdfrwt>
<pdfrwt beam="2">  1       -1 0.19010316E-01 0.14292575E+03</pdfrwt>
<totfact> 0.31886808E+03</totfact>
</mgrwt>
</event>
<event>
 7    1  0.7800420E-006  0.1275652E+03  0.7546771E-02  0.1242670E+00
         -1   -1    0    0    0  501 -0.00000000000E+00  0.00000000000E+00  0.20230123189E+02  0.20230123189E+02  0.00000000000E+00 0.  1.
          1   -1    0    0  501    0  0.00000000000E+00 -0.00000000000E+00 -0.68603112963E+03  0.68603112963E+03  0.00000000000E+00 0. -1.
         23    2    1    2    0    0 -0.18352253738E+02 -0.17558577092E+02 -0.45621349151E+03  0.47371259238E+03  0.12501104550E+03 0.  0.
          5    1    3    3  502    0 -0.62771294783E+02 -0.34548587753E+01 -0.37239921316E+03  0.37769754495E+03  0.47000000000E+01 0. -1.
         -5    1    3    3    0  502  0.44419041045E+02 -0.14103718316E+02 -0.83814278344E+02  0.96015047425E+02  0.47000000000E+01 0. -1.
        -11    1    1    2    0    0  0.55558341786E+02  0.26788552704E+02 -0.14261183597E+03  0.15537854310E+03  0.00000000000E+00 0.  1.
         11    1    1    2    0    0 -0.37206088047E+02 -0.92299756124E+01 -0.66975678969E+02  0.77170117344E+02  0.00000000000E+00 0. -1.
<mgrwt>
<rscale>  0 0.12025905E+03</rscale>
<asrwt>0</asrwt>
<pdfrwt beam="2">  1        1 0.10554326E+00 0.12756516E+03</pdfrwt>
<pdfrwt beam="1">  1       -1 0.31123265E-02 0.12756516E+03</pdfrwt>
<totfact> 0.98928433E+03</totfact>
</mgrwt>
</event>
<event>
 7    1  0.7800420E-006  0.1310436E+03  0.7546771E-02  0.1238820E+00
         -2   -1    0    0    0  501 -0.00000000000E+00  0.00000000000E+00  0.99433858292E+02  0.99433858292E+02  0.00000000000E+00 0.  1.
          2   -1    0    0  501    0  0.00000000000E+00 -0.00000000000E+00 -0.23036528202E+03  0.23036528202E+03  0.00000000000E+00 0. -1.
         23    2    1    2    0    0  0.15686485577E+02  0.36067251043E+02 -0.17619304453E+03  0.21958234479E+03  0.12500201909E+03 0.  0.
          5    1    3    3  502    0 -0.45556553021E+02  0.48233426936E+02 -0.71988021959E+02  0.98011368232E+02  0.47000000000E+01 0.  1.
         -5    1    3    3    0  502  0.61243038598E+02 -0.12166175894E+02 -0.10420502257E+03  0.12157097656E+03  0.47000000000E+01 0.  1.
        -11    1    1    2    0    0 -0.20648884738E+02  0.10583215199E+02 -0.19458274299E+02  0.30282095760E+02  0.00000000000E+00 0. -1.
         11    1    1    2    0    0  0.49623991608E+01 -0.46650466242E+02  0.64719895094E+02  0.79934699768E+02  0.00000000000E+00 0.  1.
<mgrwt>
<rscale>  0 0.12263015E+03</rscale>
<asrwt>0</asrwt>
<pdfrwt beam="2">  1        2 0.35440812E-01 0.13104357E+03</pdfrwt>
<pdfrwt beam="1">  1       -2 0.15297517E-01 0.13104357E+03</pdfrwt>
<totfact> 0.46229348E+03</totfact>
</mgrwt>
</event>
<event>
 7    1  0.7800420E-006  0.1678737E+03  0.7546771E-02  0.1184059E+00
          1   -1    0    0  501    0  0.00000000000E+00  0.00000000000E+00  0.40476180678E+03  0.40476180678E+03  0.00000000000E+00 0. -1.
         -1   -1    0    0    0  501 -0.00000000000E+00 -0.00000000000E+00 -0.14386271640E+03  0.14386271640E+03  0.00000000000E+00 0.  1.
         23    2    1    2    0    0  0.11972533582E+03 -0.27336189157E+02  0.33754659649E+03  0.37698709170E+03  0.11445583963E+03 0.  0.
          5    1    3    3  502    0  0.53289424531E+02 -0.70277130198E+02  0.16650292244E+03  0.18847798539E+03  0.47000000000E+01 0. -1.
         -5    1    3    3    0  502  0.66435911293E+02  0.42940941041E+02  0.17104367406E+03  0.18850910631E+03  0.47000000000E+01 0.  1.
        -11    1    1    2    0    0 -0.12169741943E+02 -0.17015952542E+02  0.13116817714E+02  0.24692026382E+02  0.00000000000E+00 0. -1.
         11    1    1    2    0    0 -0.10755559388E+03  0.44352141699E+02 -0.89764323831E+02  0.14694540510E+03  0.00000000000E+00 0.  1.
<mgrwt>
<rscale>  0 0.16417816E+03</rscale>
<asrwt>0</asrwt>
<pdfrwt beam="1">  1        1 0.62271047E-01 0.16787365E+03</pdfrwt>
<pdfrwt beam="2">  1       -1 0.22132726E-01 0.16787365E+03</pdfrwt>
<totfact> 0.10156600E+03</totfact>
</mgrwt>
</event>
<event>
 7    1  0.7800420E-006  0.1513124E+03  0.7546771E-02  0.1207830E+00
          2   -1    0    0  501    0  0.00000000000E+00  0.00000000000E+00  0.28127628278E+03  0.28127628278E+03  0.00000000000E+00 0. -1.
         -2   -1    0    0    0  501 -0.00000000000E+00 -0.00000000000E+00 -0.72570859325E+02  0.72570859325E+02  0.00000000000E+00 0.  1.
         23    2    1    2    0    0  0.47992017969E+02 -0.70482253264E+02  0.15934430919E+03  0.21974084849E+03  0.12499779922E+03 0.  0.
          5    1    3    3  502    0 -0.42517422104E+02 -0.17284549708E+02  0.45252390780E+02  0.64624729882E+02  0.47000000000E+01 0.  1.
         -5    1    3    3    0  502  0.90509440074E+02 -0.53197703556E+02  0.11409191841E+03  0.15511611861E+03  0.47000000000E+01 0.  1.
        -11    1    1    2    0    0 -0.50437201045E+02  0.34811463042E+02 -0.12602908062E+02  0.62566624490E+02  0.00000000000E+00 0.  1.
         11    1    1    2    0    0  0.24451830761E+01  0.35670790222E+02  0.61964022329E+02  0.71539669125E+02  0.00000000000E+00 0. -1.
<mgrwt>
<rscale>  0 0.14416673E+03</rscale>
<asrwt>0</asrwt>
<pdfrwt beam="1">  1        2 0.43273274E-01 0.15131236E+03</pdfrwt>
<pdfrwt beam="2">  1       -2 0.11164748E-01 0.15131236E+03</pdfrwt>
<totfact> 0.62621108E+03</totfact>
</mgrwt>
</event>
<event>
 7    1  0.7800420E-006  0.1277238E+03  0.7546771E-02  0.1242960E+00
         -4   -1    0    0    0  501 -0.00000000000E+00  0.00000000000E+00  0.14791290823E+03  0.14791290823E+03  0.00000000000E+00 0.  1.
          4   -1    0    0  501    0  0.00000000000E+00 -0.00000000000E+00 -0.13922194128E+03  0.13922194128E+03  0.00000000000E+00 0. -1.
         23    2    1    2    0    0 -0.16988141331E+01  0.26193189851E+02 -0.82416920827E+02  0.15200630604E+03  0.12499759627E+03 0.  0.
          5    1    3    3  502    0 -0.17179594546E+02  0.37852491525E+02  0.20913043652E+02  0.46769594591E+02  0.47000000000E+01 0. -1.
         -5    1    3    3    0  502  0.15480780413E+02 -0.11659301674E+02 -0.10332996448E+03  0.10523671145E+03  0.47000000000E+01 0. -1.
        -11    1    1    2    0    0  0.32985414225E+02 -0.45149272089E+02  0.78617247038E+02  0.96473653676E+02  0.00000000000E+00 0.  1.
         11    1    1    2    0    0 -0.31286600092E+02  0.18956082239E+02  0.12490640730E+02  0.38654889794E+02  0.00000000000E+00 0. -1.
<mgrwt>
<rscale>  0 0.12008292E+03</rscale>
<asrwt>0</asrwt>
<pdfrwt beam="2">  1        4 0.21418760E-01 0.12772380E+03</pdfrwt>
<pdfrwt beam="1">  1       -4 0.22755832E-01 0.12772380E+03</pdfrwt>
<totfact> 0.58116491E+02</totfact>
</mgrwt>
</event>
<event>
 7    1  0.7800420E-006  0.1536029E+03  0.7546771E-02  0.1204316E+00
         -2   -1    0    0    0  501 -0.00000000000E+00  0.00000000000E+00  0.32045069992E+02  0.32045069992E+02  0.00000000000E+00 0.  1.
          2   -1    0    0  501    0  0.00000000000E+00 -0.00000000000E+00 -0.78383287782E+03  0.78383287782E+03  0.00000000000E+00 0. -1.
         23    2    1    2    0    0 -0.23966387465E+02 -0.85973080513E+02 -0.58764717905E+03  0.60739036648E+03  0.12501236716E+03 0.  0.
          5    1    3    3  502    0  0.14735247681E+02 -0.50231949452E+02 -0.51421350809E+03  0.51689263698E+03  0.47000000000E+01 0. -1.
         -5    1    3    3    0  502 -0.38701635146E+02 -0.35741131061E+02 -0.73433670968E+02  0.90497729499E+02  0.47000000000E+01 0. -1.
        -11    1    1    2    0    0  0.57441926123E+02  0.67082149700E+02 -0.97464525558E+02  0.13152537180E+03  0.00000000000E+00 0.  1.
         11    1    1    2    0    0 -0.33475538658E+02  0.18890930813E+02 -0.66676103216E+02  0.76962209528E+02  0.00000000000E+00 0. -1.
<mgrwt>
<rscale>  0 0.14691529E+03</rscale>
<asrwt>0</asrwt>
<pdfrwt beam="2">  1        2 0.12058967E+00 0.15360290E+03</pdfrwt>
<pdfrwt beam="1">  1       -2 0.49300110E-02 0.15360290E+03</pdfrwt>
<totfact> 0.70783556E+03</totfact>
</mgrwt>
</event>
<event>
 7    1  0.7800420E-006  0.2292637E+03  0.7546771E-02  0.1130600E+00
          2   -1    0    0  501    0  0.00000000000E+00  0.00000000000E+00  0.24033237399E+03  0.24033237399E+03  0.00000000000E+00 0.  1.
         -2   -1    0    0    0  501 -0.00000000000E+00 -0.00000000000E+00 -0.22499125195E+03  0.22499125195E+03  0.00000000000E+00 0. -1.
         23    2    1    2    0    0 -0.13149423891E+03 -0.14016642843E+03  0.83387697010E+02  0.24395771017E+03  0.12499797524E+03 0.  0.
          5    1    3    3  502    0 -0.93322634420E+02 -0.93956795101E+02 -0.10004135427E+02  0.13288779540E+03  0.47000000000E+01 0.  1.
         -5    1    3    3    0  502 -0.38171604493E+02 -0.46209633325E+02  0.93391832436E+02  0.11106991477E+03  0.47000000000E+01 0.  1.
        -11    1    1    2    0    0  0.75180050127E+02  0.84415680139E+02 -0.83620188199E+02  0.14060719350E+03  0.00000000000E+00 0. -1.
         11    1    1    2    0    0  0.56314188785E+02  0.55750748287E+02  0.15573613223E+02  0.80758722265E+02  0.00000000000E+00 0.  1.
<mgrwt>
<rscale>  0 0.22446095E+03</rscale>
<asrwt>0</asrwt>
<pdfrwt beam="1">  1        2 0.36974211E-01 0.22926373E+03</pdfrwt>
<pdfrwt beam="2">  1       -2 0.34614039E-01 0.22926373E+03</pdfrwt>
<totfact> 0.10898915E+03</totfact>
</mgrwt>
</event>
<event>
 7    1  0.7800420E-006  0.4079628E+03  0.7546771E-02  0.1041670E+00
          2   -1    0    0  501    0  0.00000000000E+00  0.00000000000E+00  0.13564949566E+04  0.13564949566E+04  0.00000000000E+00 0. -1.
         -2   -1    0    0    0  501 -0.00000000000E+00 -0.00000000000E+00 -0.12206791994E+03  0.12206791994E+03  0.00000000000E+00 0.  1.
         23    2    1    2    0    0  0.11357631627E+03  0.37136367255E+03  0.70535872316E+03  0.81484023538E+03  0.12499249555E+03 0.  0.
          5    1    3    3  502    0  0.23757909002E+02  0.14430508397E+03  0.15732887312E+03  0.21485543935E+03  0.47000000000E+01 0. -1.
         -5    1    3    3    0  502  0.89818407271E+02  0.22705858858E+03  0.54802985004E+03  0.59998479603E+03  0.47000000000E+01 0. -1.
        -11    1    1    2    0    0 -0.10068621391E+03 -0.27772616284E+03  0.32724061669E+03  0.44085820442E+03  0.00000000000E+00 0.  1.
         11    1    1    2    0    0 -0.12890102365E+02 -0.93637509710E+02  0.20182769677E+03  0.22286443671E+03  0.00000000000E+00 0. -1.
<mgrwt>
<rscale>  0 0.40615195E+03</rscale>
<asrwt>0</asrwt>
<pdfrwt beam="1">  1        2 0.20869152E+00 0.40796284E+03</pdfrwt>
<pdfrwt beam="2">  1       -2 0.18779681E-01 0.40796284E+03</pdfrwt>
<totfact> 0.37855712E+02</totfact>
</mgrwt>
</event>
<event>
 7    1  0.7800420E-006  0.1295078E+03  0.7546771E-02  0.1242126E+00
          1   -1    0    0  501    0  0.00000000000E+00  0.00000000000E+00  0.63483571569E+02  0.63483571569E+02  0.00000000000E+00 0. -1.
         -1   -1    0    0    0  501 -0.00000000000E+00 -0.00000000000E+00 -0.23319779463E+03  0.23319779463E+03  0.00000000000E+00 0.  1.
         23    2    1    2    0    0 -0.11813184146E+02 -0.31735746023E+02 -0.42117627078E+02  0.13618426942E+03  0.12500220730E+03 0.  0.
          5    1    3    3  502    0 -0.29238798318E+02 -0.35681247939E+02 -0.80888478647E+02  0.93236767207E+02  0.47000000000E+01 0.  1.
         -5    1    3    3    0  502  0.17425614171E+02  0.39455019157E+01  0.38770851569E+02  0.42947502209E+02  0.47000000000E+01 0.  1.
        -11    1    1    2    0    0 -0.17903234117E+02 -0.25167750194E+02 -0.58688949933E+02  0.66319938826E+02  0.00000000000E+00 0.  1.
         11    1    1    2    0    0  0.29716418263E+02  0.56903496218E+02 -0.68907646048E+02  0.94177157953E+02  0.00000000000E+00 0. -1.
<mgrwt>
<rscale>  0 0.12059072E+03</rscale>
<asrwt>0</asrwt>
<pdfrwt beam="1">  1        1 0.97667035E-02 0.12950776E+03</pdfrwt>
<pdfrwt beam="2">  1       -1 0.35876583E-01 0.12950776E+03</pdfrwt>
<totfact> 0.47229236E+03</totfact>
</mgrwt>
</event>
<event>
 7    1  0.7800420E-006  0.1355970E+03  0.7546771E-02  0.1230953E+00
          1   -1    0    0  501    0  0.00000000000E+00  0.00000000000E+00  0.31337013916E+03  0.31337013916E+03  0.00000000000E+00 0. -1.
         -1   -1    0    0    0  501 -0.00000000000E+00 -0.00000000000E+00 -0.11790598036E+03  0.11790598036E+03  0.00000000000E+00 0.  1.
         23    2    1    2    0    0 -0.49224383075E+02  0.18418219404E+02  0.26938108904E+03  0.30158367298E+03  0.12499707988E+03 0.  0.
          5    1    3    3  502    0  0.78190723754E+01 -0.13308420146E+02  0.21743052759E+03  0.21802838409E+03  0.47000000000E+01 0. -1.
         -5    1    3    3    0  502 -0.57043455450E+02  0.31726639550E+02  0.51950561453E+02  0.83555288894E+02  0.47000000000E+01 0. -1.
        -11    1    1    2    0    0 -0.20260382160E+02 -0.29326066660E+02 -0.31418163225E+02  0.47514232093E+02  0.00000000000E+00 0.  1.
         11    1    1    2    0    0  0.69484765234E+02  0.10907847256E+02 -0.42498767017E+02  0.82178214445E+02  0.00000000000E+00 0. -1.
<mgrwt>
<rscale>  0 0.12767112E+03</rscale>
<asrwt>0</asrwt>
<pdfrwt beam="1">  1        1 0.48210790E-01 0.13559698E+03</pdfrwt>
<pdfrwt beam="2">  1       -1 0.18139382E-01 0.13559698E+03</pdfrwt>
<totfact> 0.19198493E+03</totfact>
</mgrwt>
</event>
<event>
 7    1  0.7800420E-006  0.1254729E+03  0.7546771E-02  0.1249363E+00
         -1   -1    0    0    0  501 -0.00000000000E+00  0.00000000000E+00  0.49645362856E+02  0.49645362856E+02  0.00000000000E+00 0.  1.
          1   -1    0    0  501    0  0.00000000000E+00 -0.00000000000E+00 -0.27889889370E+03  0.27889889370E+03  0.00000000000E+00 0. -1.
         23    2    1    2    0    0 -0.73026519256E+01 -0.80573576599E+01 -0.19072115392E+03  0.22829370563E+03  0.12500083097E+03 0.  0.
          5    1    3    3  502    0  0.31296562269E+02  0.20576901755E+01 -0.18501341508E+03  0.18771191400E+03  0.47000000000E+01 0.  1.
         -5    1    3    3    0  502 -0.38599214194E+02 -0.10115047835E+02 -0.57077388348E+01  0.40581791628E+02  0.47000000000E+01 0.  1.
        -11    1    1    2    0    0  0.32511334767E+02 -0.31438149698E+02 -0.23969517979E+02  0.51184782278E+02  0.00000000000E+00 0.  1.
         11    1    1    2    0    0 -0.25208682841E+02  0.39495507358E+02 -0.14562858949E+02  0.49065768646E+02  0.00000000000E+00 0. -1.
<mgrwt>
<rscale>  0 0.11628031E+03</rscale>
<asrwt>0</asrwt>
<pdfrwt beam="2">  1        1 0.42907522E-01 0.12547294E+03</pdfrwt>
<pdfrwt beam="1">  1       -1 0.76377482E-02 0.12547294E+03</pdfrwt>
<totfact> 0.83794544E+03</totfact>
</mgrwt>
</event>
<event>
 6    1  0.7800420E-006  0.1394065E+03  0.7546771E-02  0.1229553E+00
         -1   -1    0    0    0  501 -0.00000000000E+00  0.00000000000E+00  0.11513570934E+03  0.11513570934E+03  0.00000000000E+00 0.  1.
          1   -1    0    0  501    0  0.00000000000E+00 -0.00000000000E+00 -0.23056244231E+03  0.23056244231E+03  0.00000000000E+00 0. -1.
          5    1    1    2  502    0 -0.23679767676E+02  0.34635627673E+02 -0.10929602190E+03  0.11716684047E+03  0.47000000000E+01 0. -1.
         -5    1    1    2    0  502  0.73193183214E+02 -0.42274553397E+02 -0.69343514686E+02  0.10943031099E+03  0.47000000000E+01 0.  1.
        -11    1    1    2    0    0  0.23437554986E+02  0.12309952111E+02  0.85401764536E+01  0.27817054455E+02  0.00000000000E+00 0.  1.
         11    1    1    2    0    0 -0.72950970525E+02 -0.46710263861E+01  0.54672627161E+02  0.91283945733E+02  0.00000000000E+00 0. -1.
<mgrwt>
<rscale>  0 0.12859670E+03</rscale>
<asrwt>0</asrwt>
<pdfrwt beam="2">  1        1 0.35471145E-01 0.13940655E+03</pdfrwt>
<pdfrwt beam="1">  1       -1 0.17713186E-01 0.13940655E+03</pdfrwt>
<totfact> 0.29176451E+03</totfact>
</mgrwt>
</event>
<event>
 7    1  0.7800420E-006  0.1347888E+03  0.7546771E-02  0.1232036E+00
         -1   -1    0    0    0  501 -0.00000000000E+00  0.00000000000E+00  0.42520288401E+02  0.42520288401E+02  0.00000000000E+00 0.  1.
          1   -1    0    0  501    0  0.00000000000E+00 -0.00000000000E+00 -0.36902321256E+03  0.36902321256E+03  0.00000000000E+00 0. -1.
         23    2    1    2    0    0  0.14854781309E+01 -0.50402114089E+02 -0.23737508104E+03  0.27297428616E+03  0.12500180822E+03 0.  0.
          5    1    3    3  502    0 -0.46277760735E+02 -0.14554137881E+02 -0.19126965706E+03  0.19738192871E+03  0.47000000000E+01 0. -1.
         -5    1    3    3    0  502  0.47763238866E+02 -0.35847976208E+02 -0.46105423975E+02  0.75592357452E+02  0.47000000000E+01 0. -1.
        -11    1    1    2    0    0 -0.18901399587E+02  0.21946053731E+02  0.12544114202E+02  0.31563380392E+02  0.00000000000E+00 0.  1.
         11    1    1    2    0    0  0.17415921456E+02  0.28456060359E+02 -0.10167195733E+03  0.10700583441E+03  0.00000000000E+00 0. -1.
<mgrwt>
<rscale>  0 0.12696133E+03</rscale>
<asrwt>0</asrwt>
<pdfrwt beam="2">  1        1 0.56772803E-01 0.13478884E+03</pdfrwt>
<pdfrwt beam="1">  1       -1 0.65415827E-02 0.13478884E+03</pdfrwt>
<totfact> 0.75055365E+03</totfact>
</mgrwt>
</event>
<event>
 7    1  0.7800420E-006  0.1782081E+03  0.7546771E-02  0.1175178E+00
          2   -1    0    0  501    0  0.00000000000E+00  0.00000000000E+00  0.69679889575E+03  0.69679889575E+03  0.00000000000E+00 0. -1.
         -2   -1    0    0    0  501 -0.00000000000E+00 -0.00000000000E+00 -0.55119245542E+02  0.55119245542E+02  0.00000000000E+00 0.  1.
         23    2    1    2    0    0  0.12664466075E+03 -0.97329460162E+01  0.53077586474E+03  0.55989388078E+03  0.12499815522E+03 0.  0.
          5    1    3    3  502    0 -0.32764272795E+01 -0.42447576231E+02  0.15971547961E+03  0.16535917311E+03  0.47000000000E+01 0.  1.
         -5    1    3    3    0  502  0.12992108803E+03  0.32714630215E+02  0.37106038513E+03  0.39453470767E+03  0.47000000000E+01 0.  1.
        -11    1    1    2    0    0 -0.12337737992E+03  0.36329700378E+02  0.10071288966E+03  0.16335516872E+03  0.00000000000E+00 0. -1.
         11    1    1    2    0    0 -0.32672808391E+01 -0.26596754361E+02  0.10190895807E+02  0.28669091789E+02  0.00000000000E+00 0.  1.
<mgrwt>
<rscale>  0 0.17258553E+03</rscale>
<asrwt>0</asrwt>
<pdfrwt beam="1">  1        2 0.10719982E+00 0.17820813E+03</pdfrwt>
<pdfrwt beam="2">  1       -2 0.84798844E-02 0.17820813E+03</pdfrwt>
<totfact> 0.35825372E+03</totfact>
</mgrwt>
</event>
<event>
 7    1  0.7800420E-006  0.1246644E+03  0.7546771E-02  0.1249042E+00
          1   -1    0    0  501    0  0.00000000000E+00  0.00000000000E+00  0.37191239358E+03  0.37191239358E+03  0.00000000000E+00 0. -1.
         -1   -1    0    0    0  501 -0.00000000000E+00 -0.00000000000E+00 -0.35831697741E+02  0.35831697741E+02  0.00000000000E+00 0.  1.
         23    2    1    2    0    0 -0.18660733893E+02 -0.58540593386E+01  0.25092656415E+03  0.28018807903E+03  0.12312077824E+03 0.  0.
          5    1    3    3  502    0 -0.22217019525E+02  0.68549655904E+00  0.26369883026E+03  0.26467570524E+03  0.47000000000E+01 0. -1.
         -5    1    3    3    0  502  0.35562856321E+01 -0.65395558976E+01 -0.12772266115E+02  0.15512373788E+02  0.47000000000E+01 0.  1.
        -11    1    1    2    0    0  0.23838284646E+02  0.42056929322E+02  0.75637557301E+02  0.89766860218E+02  0.00000000000E+00 0.  1.
         11    1    1    2    0    0 -0.51775507530E+01 -0.36202869983E+02  0.95165743946E+01  0.37789152081E+02  0.00000000000E+00 0. -1.
<mgrwt>
<rscale>  0 0.11646718E+03</rscale>
<asrwt>0</asrwt>
<pdfrwt beam="1">  1        1 0.57217289E-01 0.12466443E+03</pdfrwt>
<pdfrwt beam="2">  1       -1 0.55125691E-02 0.12466443E+03</pdfrwt>
<totfact> 0.95352448E+03</totfact>
</mgrwt>
</event>
<event>
 7    1  0.7800420E-006  0.1356414E+03  0.7546771E-02  0.1231336E+00
          3   -1    0    0  501    0  0.00000000000E+00  0.00000000000E+00  0.16034452014E+03  0.16034452014E+03  0.00000000000E+00 0. -1.
         -3   -1    0    0    0  501 -0.00000000000E+00 -0.00000000000E+00 -0.10174732018E+03  0.10174732018E+03  0.00000000000E+00 0.  1.
         23    2    1    2    0    0  0.44391193144E+02  0.28301206106E+02  0.75321658221E+02  0.15515138123E+03  0.12500825015E+03 0.  0.
          5    1    3    3  502    0  0.56342175349E+02  0.39960725793E+02  0.10203145224E+03  0.12330372085E+03  0.47000000000E+01 0.  1.
         -5    1    3    3    0  502 -0.11950982204E+02 -0.11659519687E+02 -0.26709794022E+02  0.31847660380E+02  0.47000000000E+01 0.  1.
        -11    1    1    2    0    0 -0.69781236848E+02 -0.52527541750E+01 -0.19185776365E+02  0.72561053308E+02  0.00000000000E+00 0. -1.
         11    1    1    2    0    0  0.25390043703E+02 -0.23048451931E+02  0.24613181027E+01  0.34379405790E+02  0.00000000000E+00 0.  1.
<mgrwt>
<rscale>  0 0.12741940E+03</rscale>
<asrwt>0</asrwt>
<pdfrwt beam="1">  1        3 0.24668388E-01 0.13564144E+03</pdfrwt>
<pdfrwt beam="2">  1       -3 0.15653434E-01 0.13564144E+03</pdfrwt>
<totfact> 0.12218569E+03</totfact>
</mgrwt>
</event>
<event>
 7    1  0.7800420E-006  0.1267974E+03  0.7546771E-02  0.1246525E+00
          2   -1    0    0  501    0  0.00000000000E+00  0.00000000000E+00  0.89816434588E+03  0.89816434588E+03  0.00000000000E+00 0. -1.
         -2   -1    0    0    0  501 -0.00000000000E+00 -0.00000000000E+00 -0.22870354218E+02  0.22870354218E+02  0.00000000000E+00 0.  1.
         23    2    1    2    0    0 -0.20943368816E+02 -0.40149997536E+01  0.76533573781E+03  0.77576825130E+03  0.12499137265E+03 0.  0.
          5    1    3    3  502    0  0.16985462087E+02 -0.45732072149E+02  0.14926926411E+03  0.15710929812E+03  0.47000000000E+01 0.  1.
         -5    1    3    3    0  502 -0.37928830903E+02  0.41717072396E+02  0.61606647370E+03  0.61865895319E+03  0.47000000000E+01 0.  1.
        -11    1    1    2    0    0 -0.33260083028E+02 -0.16239586760E+02  0.40565856617E+02  0.54913987510E+02  0.00000000000E+00 0.  1.
         11    1    1    2    0    0  0.54203451844E+02  0.20254586514E+02  0.69392397239E+02  0.90352461290E+02  0.00000000000E+00 0. -1.
<mgrwt>
<rscale>  0 0.11794584E+03</rscale>
<asrwt>0</asrwt>
<pdfrwt beam="1">  1        2 0.13817910E+00 0.12679743E+03</pdfrwt>
<pdfrwt beam="2">  1       -2 0.35185167E-02 0.12679743E+03</pdfrwt>
<totfact> 0.97409184E+03</totfact>
</mgrwt>
</event>
<event>
 7    1  0.7800420E-006  0.1398320E+03  0.7546771E-02  0.1224913E+00
         -2   -1    0    0    0  501 -0.00000000000E+00  0.00000000000E+00  0.11165394869E+02  0.11165394869E+02  0.00000000000E+00 0.  1.
          2   -1    0    0  501    0  0.00000000000E+00 -0.00000000000E+00 -0.14043156265E+04  0.14043156265E+04  0.00000000000E+00 0. -1.
         23    2    1    2    0    0  0.37558050186E+02 -0.50209186049E+02 -0.82233004079E+03  0.83413409684E+03  0.12498570328E+03 0.  0.
          5    1    3    3  502    0 -0.41402068938E+02  0.18700609904E+01 -0.17434325386E+03  0.17926318252E+03  0.47000000000E+01 0.  1.
         -5    1    3    3    0  502  0.78960119124E+02 -0.52079247039E+02 -0.64798678693E+03  0.65487091432E+03  0.47000000000E+01 0.  1.
        -11    1    1    2    0    0 -0.57402491676E+02  0.14623050192E+01 -0.28693948462E+03  0.29262852257E+03  0.00000000000E+00 0. -1.
         11    1    1    2    0    0  0.19844441490E+02  0.48746881029E+02 -0.28388070624E+03  0.28871840199E+03  0.00000000000E+00 0.  1.
<mgrwt>
<rscale>  0 0.13172892E+03</rscale>
<asrwt>0</asrwt>
<pdfrwt beam="2">  1        2 0.21604850E+00 0.13983203E+03</pdfrwt>
<pdfrwt beam="1">  1       -2 0.17177535E-02 0.13983203E+03</pdfrwt>
<totfact> 0.14407410E+04</totfact>
</mgrwt>
</event>
<event>
 7    1  0.7800420E-006  0.1367309E+03  0.7546771E-02  0.1231201E+00
         -1   -1    0    0    0  501 -0.00000000000E+00  0.00000000000E+00  0.76949324409E+02  0.76949324409E+02  0.00000000000E+00 0.  1.
          1   -1    0    0  501    0  0.00000000000E+00 -0.00000000000E+00 -0.19410766454E+03  0.19410766454E+03  0.00000000000E+00 0. -1.
         23    2    1    2    0    0 -0.11013981579E+02 -0.54305214308E+02 -0.91475905477E+02  0.16450894169E+03  0.12499994609E+03 0.  0.
          5    1    3    3  502    0  0.15256924406E+02 -0.88834873674E+02 -0.45352693077E+02  0.10101170869E+03  0.47000000000E+01 0. -1.
         -5    1    3    3    0  502 -0.26270905985E+02  0.34529659366E+02 -0.46123212400E+02  0.63497233005E+02  0.47000000000E+01 0. -1.
        -11    1    1    2    0    0 -0.34123667123E+01  0.73452658609E+02 -0.34213204486E+02  0.81101668691E+02  0.00000000000E+00 0.  1.
         11    1    1    2    0    0  0.14426348291E+02 -0.19147444301E+02  0.85307698286E+01  0.25446378566E+02  0.00000000000E+00 0. -1.
<mgrwt>
<rscale>  0 0.12750788E+03</rscale>
<asrwt>0</asrwt>
<pdfrwt beam="2">  1        1 0.29862718E-01 0.13673094E+03</pdfrwt>
<pdfrwt beam="1">  1       -1 0.11838358E-01 0.13673094E+03</pdfrwt>
<totfact> 0.67778324E+03</totfact>
</mgrwt>
</event>
<event>
 7    1  0.7800420E-006  0.1357485E+03  0.7546771E-02  0.1230146E+00
          3   -1    0    0  501    0  0.00000000000E+00  0.00000000000E+00  0.35761593357E+03  0.35761593357E+03  0.00000000000E+00 0. -1.
         -3   -1    0    0    0  501 -0.00000000000E+00 -0.00000000000E+00 -0.44212636190E+02  0.44212636190E+02  0.00000000000E+00 0.  1.
         23    2    1    2    0    0 -0.52664828432E+02 -0.53580781969E+01  0.22263587668E+03  0.26075732205E+03  0.12500141705E+03 0.  0.
          5    1    3    3  502    0  0.24633978471E+02  0.77419922574E+01  0.15470059589E+03  0.15691123512E+03  0.47000000000E+01 0. -1.
         -5    1    3    3    0  502 -0.77298806903E+02 -0.13100070454E+02  0.67935280788E+02  0.10384608693E+03  0.47000000000E+01 0. -1.
        -11    1    1    2    0    0 -0.26035789821E+02  0.11850030770E+02  0.18811007461E+02  0.34236524102E+02  0.00000000000E+00 0.  1.
         11    1    1    2    0    0  0.78700618253E+02 -0.64919525735E+01  0.71956413244E+02  0.10683472361E+03  0.00000000000E+00 0. -1.
<mgrwt>
<rscale>  0 0.12820341E+03</rscale>
<asrwt>0</asrwt>
<pdfrwt beam="1">  1        3 0.55017834E-01 0.13574847E+03</pdfrwt>
<pdfrwt beam="2">  1       -3 0.68019443E-02 0.13574847E+03</pdfrwt>
<totfact> 0.10552034E+03</totfact>
</mgrwt>
</event>
<event>
 7    1  0.7800420E-006  0.1378249E+03  0.7546771E-02  0.1224330E+00
         -1   -1    0    0    0  501 -0.00000000000E+00  0.00000000000E+00  0.17999802502E+02  0.17999802502E+02  0.00000000000E+00 0.  1.
          1   -1    0    0  501    0  0.00000000000E+00 -0.00000000000E+00 -0.93377213004E+03  0.93377213004E+03  0.00000000000E+00 0. -1.
         23    2    1    2    0    0 -0.50183426817E+02 -0.29099740181E+02 -0.58807346286E+03  0.60400837013E+03  0.12502216709E+03 0.  0.
          5    1    3    3  502    0 -0.88110744136E+02 -0.34846924216E+02 -0.47864401092E+03  0.48795490627E+03  0.47000000000E+01 0.  1.
         -5    1    3    3    0  502  0.37927317319E+02  0.57471840348E+01 -0.10942945194E+03  0.11605346386E+03  0.47000000000E+01 0.  1.
        -11    1    1    2    0    0  0.56804848021E+02  0.58026550243E+02 -0.28044532070E+03  0.29196480815E+03  0.00000000000E+00 0. -1.
         11    1    1    2    0    0 -0.66214212039E+01 -0.28926810063E+02 -0.47253543979E+02  0.55798754267E+02  0.00000000000E+00 0.  1.
<mgrwt>
<rscale>  0 0.13212959E+03</rscale>
<asrwt>0</asrwt>
<pdfrwt beam="2">  1        1 0.14365726E+00 0.13782494E+03</pdfrwt>
<pdfrwt beam="1">  1       -1 0.27692002E-02 0.13782494E+03</pdfrwt>
<totfact> 0.73938352E+03</totfact>
</mgrwt>
</event>
<event>
 7    1  0.7800420E-006  0.1460511E+03  0.7546771E-02  0.1215054E+00
         -2   -1    0    0    0  501 -0.00000000000E+00  0.00000000000E+00  0.81299051443E+02  0.81299051443E+02  0.00000000000E+00 0.  1.
          2   -1    0    0  501    0  0.00000000000E+00 -0.00000000000E+00 -0.33352708994E+03  0.33352708994E+03  0.00000000000E+00 0. -1.
         23    2    1    2    0    0  0.67189919737E+02 -0.34522373865E+02 -0.25727329624E+03  0.29583861418E+03  0.12499862828E+03 0.  0.
          5    1    3    3  502    0  0.53213726199E+01 -0.63275755843E+02 -0.18803105612E+03  0.19851928458E+03  0.47000000000E+01 0.  1.
         -5    1    3    3    0  502  0.61868547117E+02  0.28753381978E+02 -0.69242240122E+02  0.97319329604E+02  0.47000000000E+01 0.  1.
        -11    1    1    2    0    0 -0.10339266356E+02  0.86444873842E+01  0.43565056400E+02  0.45601992610E+02  0.00000000000E+00 0.  1.
         11    1    1    2    0    0 -0.56850653381E+02  0.25877886481E+02 -0.38519798655E+02  0.73385534590E+02  0.00000000000E+00 0. -1.
<mgrwt>
<rscale>  0 0.13872553E+03</rscale>
<asrwt>0</asrwt>
<pdfrwt beam="2">  1        2 0.51311861E-01 0.14605114E+03</pdfrwt>
<pdfrwt beam="1">  1       -2 0.12507546E-01 0.14605114E+03</pdfrwt>
<totfact> 0.43489586E+03</totfact>
</mgrwt>
</event>
<event>
 7    1  0.7800420E-006  0.1324439E+03  0.7546771E-02  0.1258023E+00
         -4   -1    0    0    0  501 -0.00000000000E+00  0.00000000000E+00  0.75621062555E+02  0.75621062555E+02  0.00000000000E+00 0.  1.
          4   -1    0    0  501    0  0.00000000000E+00 -0.00000000000E+00 -0.20906114162E+03  0.20906114162E+03  0.00000000000E+00 0. -1.
         23    2    1    2    0    0 -0.12280927222E+02  0.42052753809E+02 -0.16476108277E+03  0.21139440567E+03  0.12498849979E+03 0.  0.
          5    1    3    3  502    0  0.88207062667E+00  0.80201008668E+02 -0.14599386671E+03  0.16664116825E+03  0.47000000000E+01 0. -1.
         -5    1    3    3    0  502 -0.13162997849E+02 -0.38148254859E+02 -0.18767216056E+02  0.44753237421E+02  0.47000000000E+01 0. -1.
        -11    1    1    2    0    0  0.11267702015E+02 -0.68025789610E+01 -0.11734755332E+02  0.17633509915E+02  0.00000000000E+00 0. -1.
         11    1    1    2    0    0  0.10132252070E+01 -0.35250174848E+02  0.43055759033E+02  0.55654288586E+02  0.00000000000E+00 0.  1.
<mgrwt>
<rscale>  0 0.11138666E+03</rscale>
<asrwt>0</asrwt>
<pdfrwt beam="2">  1        4 0.32163253E-01 0.13244388E+03</pdfrwt>
<pdfrwt beam="1">  1       -4 0.11634009E-01 0.13244388E+03</pdfrwt>
<totfact> 0.89679574E+02</totfact>
</mgrwt>
</event>
<event>
 7    1  0.7800420E-006  0.1604879E+03  0.7546771E-02  0.1191196E+00
          2   -1    0    0  501    0  0.00000000000E+00  0.00000000000E+00  0.34772148976E+03  0.34772148976E+03  0.00000000000E+00 0. -1.
         -2   -1    0    0    0  501 -0.00000000000E+00 -0.00000000000E+00 -0.11680744571E+03  0.11680744571E+03  0.00000000000E+00 0.  1.
         23    2    1    2    0    0 -0.10597538379E+03  0.43664589425E+02  0.26580664481E+03  0.31049884895E+03  0.11233425317E+03 0.  0.
          5    1    3    3  502    0  0.19347981522E+02  0.67674889101E+01  0.83873342325E+02  0.86469479285E+02  0.47000000000E+01 0. -1.
         -5    1    3    3    0  502 -0.12532336531E+03  0.36897100515E+02  0.18193330249E+03  0.22402936966E+03  0.47000000000E+01 0.  1.
        -11    1    1    2    0    0  0.66030597717E+01 -0.35790141469E+02  0.18630941120E+02  0.40885774932E+02  0.00000000000E+00 0.  1.
         11    1    1    2    0    0  0.99372324015E+02 -0.78744479558E+01 -0.53523541881E+02  0.11314431159E+03  0.00000000000E+00 0. -1.
<mgrwt>
<rscale>  0 0.15780591E+03</rscale>
<asrwt>0</asrwt>
<pdfrwt beam="1">  1        2 0.53495613E-01 0.16048789E+03</pdfrwt>
<pdfrwt beam="2">  1       -2 0.17970376E-01 0.16048789E+03</pdfrwt>
<totfact> 0.23063017E+03</totfact>
</mgrwt>
</event>
<event>
 7    1  0.7800420E-006  0.1349282E+03  0.7546771E-02  0.1232488E+00
         -2   -1    0    0    0  501 -0.00000000000E+00  0.00000000000E+00  0.29604225409E+02  0.29604225409E+02  0.00000000000E+00 0.  1.
          2   -1    0    0  501    0  0.00000000000E+00 -0.00000000000E+00 -0.48568738105E+03  0.48568738105E+03  0.00000000000E+00 0. -1.
         23    2    1    2    0    0 -0.29832633393E+02  0.41135922144E+02 -0.24940391340E+03  0.28356292008E+03  0.12499386993E+03 0.  0.
          5    1    3    3  502    0  0.29129905186E+01 -0.25822787975E+02 -0.17895860965E+03  0.18089658886E+03  0.47000000000E+01 0.  1.
         -5    1    3    3    0  502 -0.32745623912E+02  0.66958710119E+02 -0.70445303745E+02  0.10266633122E+03  0.47000000000E+01 0.  1.
        -11    1    1    2    0    0  0.48860126544E+02 -0.43980201170E+01 -0.51488249378E+02  0.71117468816E+02  0.00000000000E+00 0.  1.
         11    1    1    2    0    0 -0.19027493151E+02 -0.36737902027E+02 -0.15519099286E+03  0.16061121756E+03  0.00000000000E+00 0. -1.
<mgrwt>
<rscale>  0 0.12666645E+03</rscale>
<asrwt>0</asrwt>
<pdfrwt beam="2">  1        2 0.74721134E-01 0.13492819E+03</pdfrwt>
<pdfrwt beam="1">  1       -2 0.45544963E-02 0.13492819E+03</pdfrwt>
<totfact> 0.13738527E+04</totfact>
</mgrwt>
</event>
<event>
 7    1  0.7800420E-006  0.2117501E+03  0.7546771E-02  0.1143982E+00
          2   -1    0    0  501    0  0.00000000000E+00  0.00000000000E+00  0.11621529247E+04  0.11621529247E+04  0.00000000000E+00 0. -1.
         -2   -1    0    0    0  501 -0.00000000000E+00 -0.00000000000E+00 -0.46924147258E+02  0.46924147258E+02  0.00000000000E+00 0.  1.
         23    2    1    2    0    0  0.49298161226E+02 -0.16365295836E+03  0.87746967442E+03  0.90265781571E+03  0.12500201300E+03 0.  0.
          5    1    3    3  502    0  0.55451747961E+02 -0.34444271543E+02  0.14846287101E+03  0.16224863100E+03  0.47000000000E+01 0.  1.
         -5    1    3    3    0  502 -0.61535867353E+01 -0.12920868682E+03  0.72900680341E+03  0.74040918471E+03  0.47000000000E+01 0.  1.
        -11    1    1    2    0    0 -0.41122500458E+02  0.50353290165E+02  0.34566440263E+02  0.73629835439E+02  0.00000000000E+00 0.  1.
         11    1    1    2    0    0 -0.81756607681E+01  0.11329966819E+03  0.20319266276E+03  0.23278942081E+03  0.00000000000E+00 0. -1.
<mgrwt>
<rscale>  0 0.20697766E+03</rscale>
<asrwt>0</asrwt>
<pdfrwt beam="1">  1        2 0.17879274E+00 0.21175010E+03</pdfrwt>
<pdfrwt beam="2">  1       -2 0.72191005E-02 0.21175010E+03</pdfrwt>
<totfact> 0.23284549E+03</totfact>
</mgrwt>
</event>
<event>
 7    1  0.7800420E-006  0.1702307E+03  0.7546771E-02  0.1183746E+00
          2   -1    0    0  501    0  0.00000000000E+00  0.00000000000E+00  0.22004635673E+03  0.22004635673E+03  0.00000000000E+00 0. -1.
         -2   -1    0    0    0  501 -0.00000000000E+00 -0.00000000000E+00 -0.12310904305E+03  0.12310904305E+03  0.00000000000E+00 0.  1.
         23    2    1    2    0    0 -0.92977555232E+02  0.68615868431E+02  0.94751898999E+02  0.19482403520E+03  0.12500207659E+03 0.  0.
          5    1    3    3  502    0 -0.30675479194E+02 -0.18873077927E+02 -0.16694701379E+02  0.39974756389E+02  0.47000000000E+01 0. -1.
         -5    1    3    3    0  502 -0.62302076037E+02  0.87488946358E+02  0.11144660038E+03  0.15484927881E+03  0.47000000000E+01 0. -1.
        -11    1    1    2    0    0  0.41337678111E+02 -0.84222900948E+02 -0.47491418411E+01  0.93940699508E+02  0.00000000000E+00 0.  1.
         11    1    1    2    0    0  0.51639877120E+02  0.15607032518E+02  0.69345565223E+01  0.54390665074E+02  0.00000000000E+00 0. -1.
<mgrwt>
<rscale>  0 0.16446551E+03</rscale>
<asrwt>0</asrwt>
<pdfrwt beam="1">  1        2 0.33853286E-01 0.17023067E+03</pdfrwt>
<pdfrwt beam="2">  1       -2 0.18939853E-01 0.17023067E+03</pdfrwt>
<totfact> 0.34527902E+03</totfact>
</mgrwt>
</event>
<event>
 7    1  0.7800420E-006  0.1427248E+03  0.7546771E-02  0.1217635E+00
          1   -1    0    0  501    0  0.00000000000E+00  0.00000000000E+00  0.49778715609E+03  0.49778715609E+03  0.00000000000E+00 0. -1.
         -1   -1    0    0    0  501 -0.00000000000E+00 -0.00000000000E+00 -0.35224295398E+02  0.35224295398E+02  0.00000000000E+00 0.  1.
         23    2    1    2    0    0 -0.47755389114E+02  0.49651621746E+02  0.27851048373E+03  0.31295118798E+03  0.12499798311E+03 0.  0.
          5    1    3    3  502    0  0.28771983933E+02  0.15152131431E+02  0.18205705637E+03  0.18499804301E+03  0.47000000000E+01 0. -1.
         -5    1    3    3    0  502 -0.76527373047E+02  0.34499490315E+02  0.96453427362E+02  0.12795314497E+03  0.47000000000E+01 0. -1.
        -11    1    1    2    0    0  0.63145840258E+02  0.47849134651E+01  0.10922801497E+03  0.12625787814E+03  0.00000000000E+00 0.  1.
         11    1    1    2    0    0 -0.15390451144E+02 -0.54436535211E+02  0.74824361998E+02  0.93802385367E+02  0.00000000000E+00 0. -1.
<mgrwt>
<rscale>  0 0.13684754E+03</rscale>
<asrwt>0</asrwt>
<pdfrwt beam="1">  1        1 0.76582634E-01 0.14272476E+03</pdfrwt>
<pdfrwt beam="2">  1       -1 0.54191227E-02 0.14272476E+03</pdfrwt>
<totfact> 0.68090808E+03</totfact>
</mgrwt>
</event>
<event>
 7    1  0.7800420E-006  0.1393343E+03  0.7546771E-02  0.1223387E+00
          1   -1    0    0  501    0  0.00000000000E+00  0.00000000000E+00  0.10708058730E+04  0.10708058730E+04  0.00000000000E+00 0. -1.
         -1   -1    0    0    0  501 -0.00000000000E+00 -0.00000000000E+00 -0.15179427389E+02  0.15179427389E+02  0.00000000000E+00 0.  1.
         23    2    1    2    0    0  0.13869043001E+02  0.59990741759E+02  0.61927501638E+03  0.63475632736E+03  0.12499123872E+03 0.  0.
          5    1    3    3  502    0  0.67951057553E+02  0.17789660302E+02  0.32924172368E+03  0.33668385891E+03  0.47000000000E+01 0. -1.
         -5    1    3    3    0  502 -0.54082014551E+02  0.42201081457E+02  0.29003329269E+03  0.29807246844E+03  0.47000000000E+01 0. -1.
        -11    1    1    2    0    0  0.76808475240E+01 -0.69292932085E+02  0.41022690514E+03  0.41610890348E+03  0.00000000000E+00 0. -1.
         11    1    1    2    0    0 -0.21549890525E+02  0.93021903256E+01  0.26124524109E+02  0.35120069568E+02  0.00000000000E+00 0.  1.
<mgrwt>
<rscale>  0 0.13278099E+03</rscale>
<asrwt>0</asrwt>
<pdfrwt beam="1">  1        1 0.16473931E+00 0.13933431E+03</pdfrwt>
<pdfrwt beam="2">  1       -1 0.23352974E-02 0.13933431E+03</pdfrwt>
<totfact> 0.75182458E+03</totfact>
</mgrwt>
</event>
<event>
 6    1  0.7800420E-006  0.1353289E+03  0.7546771E-02  0.1237931E+00
         -1   -1    0    0    0  501 -0.00000000000E+00  0.00000000000E+00  0.20767638462E+02  0.20767638462E+02  0.00000000000E+00 0.  1.
          1   -1    0    0  501    0  0.00000000000E+00 -0.00000000000E+00 -0.63703186258E+03  0.63703186258E+03  0.00000000000E+00 0. -1.
          5    1    1    2  502    0  0.53529842269E+02  0.52083553534E+02 -0.17608031208E+03  0.19132304322E+03  0.47000000000E+01 0. -1.
         -5    1    1    2    0  502 -0.32649087397E+02 -0.45372717399E+02 -0.22874589639E+03  0.23552371750E+03  0.47000000000E+01 0.  1.
        -11    1    1    2    0    0  0.20389219338E+02 -0.26534979526E+02 -0.34010109378E+02  0.47712817393E+02  0.00000000000E+00 0.  1.
         11    1    1    2    0    0 -0.41269974210E+02  0.19824143391E+02 -0.17742790627E+03  0.18323992293E+03  0.00000000000E+00 0. -1.
<mgrwt>
<rscale>  0 0.12318671E+03</rscale>
<asrwt>0</asrwt>
<pdfrwt beam="2">  1        1 0.98004913E-01 0.13532885E+03</pdfrwt>
<pdfrwt beam="1">  1       -1 0.31950209E-02 0.13532885E+03</pdfrwt>
<totfact> 0.10605369E+04</totfact>
</mgrwt>
</event>
<event>
 7    1  0.7800420E-006  0.1396209E+03  0.7546771E-02  0.1223945E+00
          2   -1    0    0  501    0  0.00000000000E+00  0.00000000000E+00  0.20015778645E+03  0.20015778645E+03  0.00000000000E+00 0. -1.
         -2   -1    0    0    0  501 -0.00000000000E+00 -0.00000000000E+00 -0.84999638754E+02  0.84999638754E+02  0.00000000000E+00 0.  1.
         23    2    1    2    0    0 -0.36000460099E+02 -0.50797295225E+02  0.98919060267E+02  0.17111104552E+03  0.12497044085E+03 0.  0.
          5    1    3    3  502    0 -0.84019779200E+01  0.41223304628E+02  0.40437656722E+02  0.58542703718E+02  0.47000000000E+01 0. -1.
         -5    1    3    3    0  502 -0.27598482179E+02 -0.92020599852E+02  0.58481403545E+02  0.11256834180E+03  0.47000000000E+01 0. -1.
        -11    1    1    2    0    0 -0.10237765801E+02  0.14956854748E+02 -0.32954446357E+02  0.37610037055E+02  0.00000000000E+00 0.  1.
         11    1    1    2    0    0  0.46238225901E+02  0.35840440476E+02  0.49193533785E+02  0.76436342627E+02  0.00000000000E+00 0. -1.
<mgrwt>
<rscale>  0 0.13239493E+03</rscale>
<asrwt>0</asrwt>
<pdfrwt beam="1">  1        2 0.30793505E-01 0.13962095E+03</pdfrwt>
<pdfrwt beam="2">  1       -2 0.13076868E-01 0.13962095E+03</pdfrwt>
<totfact> 0.69642408E+03</totfact>
</mgrwt>
</event>
<event>
 7    1  0.7800420E-006  0.1323547E+03  0.7546771E-02  0.1237480E+00
         -2   -1    0    0    0  501 -0.00000000000E+00  0.00000000000E+00  0.26342719556E+02  0.26342719556E+02  0.00000000000E+00 0.  1.
          2   -1    0    0  501    0  0.00000000000E+00 -0.00000000000E+00 -0.55701636144E+03  0.55701636144E+03  0.00000000000E+00 0. -1.
         23    2    1    2    0    0 -0.18066149250E+02 -0.39566344988E+02 -0.37999256123E+03  0.40238302652E+03  0.12500348811E+03 0.  0.
          5    1    3    3  502    0 -0.20689139457E+02 -0.44912384808E+02 -0.44155281061E+02  0.66460075581E+02  0.47000000000E+01 0. -1.
         -5    1    3    3    0  502  0.26229902065E+01  0.53460398207E+01 -0.33583728017E+03  0.33592295094E+03  0.47000000000E+01 0. -1.
        -11    1    1    2    0    0  0.48391343290E+02  0.18582703898E+02 -0.12694395032E+03  0.13711967588E+03  0.00000000000E+00 0. -1.
         11    1    1    2    0    0 -0.30325194040E+02  0.20983641090E+02 -0.23737130335E+02  0.43856378595E+02  0.00000000000E+00 0.  1.
<mgrwt>
<rscale>  0 0.12347013E+03</rscale>
<asrwt>0</asrwt>
<pdfrwt beam="2">  1        2 0.85694819E-01 0.13235465E+03</pdfrwt>
<pdfrwt beam="1">  1       -2 0.40527264E-02 0.13235465E+03</pdfrwt>
<totfact> 0.14031067E+04</totfact>
</mgrwt>
</event>
<event>
 7    1  0.7800420E-006  0.1456910E+03  0.7546771E-02  0.1216183E+00
         -1   -1    0    0    0  501 -0.00000000000E+00  0.00000000000E+00  0.45821310921E+02  0.45821310921E+02  0.00000000000E+00 0.  1.
          1   -1    0    0  501    0  0.00000000000E+00 -0.00000000000E+00 -0.39415229082E+03  0.39415229082E+03  0.00000000000E+00 0. -1.
         23    2    1    2    0    0  0.27083634603E+02  0.69763471547E+02 -0.23888685358E+03  0.27980849953E+03  0.12500160946E+03 0.  0.
          5    1    3    3  502    0  0.64857050587E+02  0.82771033098E+02 -0.16603635978E+03  0.19659003967E+03  0.47000000000E+01 0. -1.
         -5    1    3    3    0  502 -0.37773415985E+02 -0.13007561551E+02 -0.72850493807E+02  0.83218459855E+02  0.47000000000E+01 0. -1.
        -11    1    1    2    0    0  0.71889692126E+00 -0.21368070237E+02  0.13402760675E+02  0.25233811288E+02  0.00000000000E+00 0.  1.
         11    1    1    2    0    0 -0.27802531524E+02 -0.48395401310E+02 -0.12284688700E+03  0.13493129093E+03  0.00000000000E+00 0. -1.
<mgrwt>
<rscale>  0 0.13790018E+03</rscale>
<asrwt>0</asrwt>
<pdfrwt beam="2">  1        1 0.60638810E-01 0.14569100E+03</pdfrwt>
<pdfrwt beam="1">  1       -1 0.70494329E-02 0.14569100E+03</pdfrwt>
<totfact> 0.62068133E+03</totfact>
</mgrwt>
</event>
<event>
 7    1  0.7800420E-006  0.1510478E+03  0.7546771E-02  0.1207803E+00
         -1   -1    0    0    0  501 -0.00000000000E+00  0.00000000000E+00  0.26409113572E+03  0.26409113572E+03  0.00000000000E+00 0.  1.
          1   -1    0    0  501    0  0.00000000000E+00 -0.00000000000E+00 -0.89560553975E+02  0.89560553975E+02  0.00000000000E+00 0. -1.
         23    2    1    2    0    0 -0.60969105894E+02 -0.58935605786E+02  0.16568661916E+02  0.15195377631E+03  0.12499916829E+03 0.  0.
          5    1    3    3  502    0 -0.82741044108E+02 -0.59916896234E+02 -0.24557952500E+02  0.10517270495E+03  0.47000000000E+01 0.  1.
         -5    1    3    3    0  502  0.21771938214E+02  0.98129044751E+00  0.41126614416E+02  0.46781071363E+02  0.47000000000E+01 0.  1.
        -11    1    1    2    0    0 -0.15472376601E+02  0.29790469943E+02  0.87532599320E+02  0.93748719889E+02  0.00000000000E+00 0.  1.
         11    1    1    2    0    0  0.76441482495E+02  0.29145135844E+02  0.70429320508E+02  0.10794919350E+03  0.00000000000E+00 0. -1.
<mgrwt>
<rscale>  0 0.14418733E+03</rscale>
<asrwt>0</asrwt>
<pdfrwt beam="2">  1        1 0.13778547E-01 0.15104777E+03</pdfrwt>
<pdfrwt beam="1">  1       -1 0.40629405E-01 0.15104777E+03</pdfrwt>
<totfact> 0.24387027E+03</totfact>
</mgrwt>
</event>
<event>
 7    1  0.7800420E-006  0.1674687E+03  0.7546771E-02  0.1187160E+00
         -3   -1    0    0    0  501 -0.00000000000E+00  0.00000000000E+00  0.29069039141E+03  0.29069039141E+03  0.00000000000E+00 0.  1.
          3   -1    0    0  501    0  0.00000000000E+00 -0.00000000000E+00 -0.12483761227E+03  0.12483761227E+03  0.00000000000E+00 0. -1.
         23    2    1    2    0    0 -0.84986272261E+02  0.71952998338E+02 -0.32104471345E+02  0.17051821125E+03  0.12508342354E+03 0.  0.
          5    1    3    3  502    0 -0.11618078140E+02  0.58551440578E+02  0.35615224419E+02  0.69669111835E+02  0.47000000000E+01 0.  1.
         -5    1    3    3    0  502 -0.73368194121E+02  0.13401557760E+02 -0.67719695764E+02  0.10084909942E+03  0.47000000000E+01 0.  1.
        -11    1    1    2    0    0  0.17909079060E+02  0.21329387531E+02  0.54589826928E+02  0.61283987217E+02  0.00000000000E+00 0.  1.
         11    1    1    2    0    0  0.67077193201E+02 -0.93282385869E+02  0.14336742356E+03  0.18372580521E+03  0.00000000000E+00 0. -1.
<mgrwt>
<rscale>  0 0.16136879E+03</rscale>
<asrwt>0</asrwt>
<pdfrwt beam="2">  1        3 0.19205787E-01 0.16746869E+03</pdfrwt>
<pdfrwt beam="1">  1       -3 0.44721598E-01 0.16746869E+03</pdfrwt>
<totfact> 0.28790047E+02</totfact>
</mgrwt>
</event>
<event>
 7    1  0.7800420E-006  0.1692678E+03  0.7546771E-02  0.1185226E+00
         -2   -1    0    0    0  501 -0.00000000000E+00  0.00000000000E+00  0.56106085068E+02  0.56106085068E+02  0.00000000000E+00 0.  1.
          2   -1    0    0  501    0  0.00000000000E+00 -0.00000000000E+00 -0.93485311354E+03  0.93485311354E+03  0.00000000000E+00 0. -1.
         23    2    1    2    0    0 -0.72982491419E+02 -0.87768885745E+02 -0.81377480383E+03  0.83119253387E+03  0.12498710193E+03 0.  0.
          5    1    3    3  502    0 -0.94802085730E+02 -0.18836638721E+02 -0.45610154271E+03  0.46625418141E+03  0.47000000000E+01 0.  1.
         -5    1    3    3    0  502  0.21819594311E+02 -0.68932247024E+02 -0.35767326112E+03  0.36493835246E+03  0.47000000000E+01 0.  1.
        -11    1    1    2    0    0  0.85531493996E+02  0.69289095079E+02 -0.77059605157E+02  0.13436814321E+03  0.00000000000E+00 0. -1.
         11    1    1    2    0    0 -0.12549002576E+02  0.18479790665E+02  0.12087380511E+02  0.25398521538E+02  0.00000000000E+00 0.  1.
<mgrwt>
<rscale>  0 0.16311295E+03</rscale>
<asrwt>0</asrwt>
<pdfrwt beam="2">  1        2 0.14382356E+00 0.16926783E+03</pdfrwt>
<pdfrwt beam="1">  1       -2 0.86317054E-02 0.16926783E+03</pdfrwt>
<totfact> 0.24002032E+03</totfact>
</mgrwt>
</event>
<event>
 7    1  0.7800420E-006  0.2786130E+03  0.7546771E-02  0.1097508E+00
         -2   -1    0    0    0  501 -0.00000000000E+00  0.00000000000E+00  0.81402844309E+02  0.81402844309E+02  0.00000000000E+00 0.  1.
          2   -1    0    0  501    0  0.00000000000E+00 -0.00000000000E+00 -0.16918555435E+04  0.16918555435E+04  0.00000000000E+00 0. -1.
         23    2    1    2    0    0 -0.24152825696E+03  0.60537470405E+02 -0.14071371547E+04  0.14344546654E+04  0.12499812297E+03 0.  0.
          5    1    3    3  502    0 -0.14116348935E+02 -0.28079710375E+02 -0.10785520244E+03  0.11243921085E+03  0.47000000000E+01 0. -1.
         -5    1    3    3    0  502 -0.22741190802E+03  0.88617180781E+02 -0.12992819523E+04  0.13220154546E+04  0.47000000000E+01 0. -1.
        -11    1    1    2    0    0  0.24855588742E+03 -0.43874479260E+02 -0.18402750300E+03  0.31236376384E+03  0.00000000000E+00 0. -1.
         11    1    1    2    0    0 -0.70276304658E+01 -0.16662991146E+02 -0.19288041500E+02  0.26439958563E+02  0.00000000000E+00 0.  1.
<mgrwt>
<rscale>  0 0.27669454E+03</rscale>
<asrwt>0</asrwt>
<pdfrwt beam="2">  1        2 0.26028545E+00 0.27861302E+03</pdfrwt>
<pdfrwt beam="1">  1       -2 0.12523515E-01 0.27861302E+03</pdfrwt>
<totfact> 0.49858208E+02</totfact>
</mgrwt>
</event>
<event>
 6    1  0.7800420E-006  0.1458903E+03  0.7546771E-02  0.1225886E+00
          2   -1    0    0  501    0  0.00000000000E+00  0.00000000000E+00  0.14771703009E+04  0.14771703009E+04  0.00000000000E+00 0. -1.
         -2   -1    0    0    0  501 -0.00000000000E+00 -0.00000000000E+00 -0.96370572477E+02  0.96370572477E+02  0.00000000000E+00 0.  1.
          5    1    1    2  502    0  0.58716223776E+02  0.38861598115E+02  0.53995824782E+03  0.54455010617E+03  0.47000000000E+01 0. -1.
         -5    1    1    2    0  502 -0.44945852996E+02 -0.54178434517E+02  0.90919802526E+03  0.91193123184E+03  0.47000000000E+01 0.  1.
        -11    1    1    2    0    0 -0.25855758895E+02  0.30253970852E+02 -0.83563219384E+02  0.92556116244E+02  0.00000000000E+00 0.  1.
         11    1    1    2    0    0  0.12085388115E+02 -0.14937134450E+02  0.15206674679E+02  0.24503419072E+02  0.00000000000E+00 0. -1.
<mgrwt>
<rscale>  0 0.13106379E+03</rscale>
<asrwt>0</asrwt>
<pdfrwt beam="1">  1        2 0.22725695E+00 0.14589032E+03</pdfrwt>
<pdfrwt beam="2">  1       -2 0.14826243E-01 0.14589032E+03</pdfrwt>
<totfact> 0.50265636E+02</totfact>
</mgrwt>
</event>
<event>
 7    1  0.7800420E-006  0.1273967E+03  0.7546771E-02  0.1244588E+00
         -1   -1    0    0    0  501 -0.00000000000E+00  0.00000000000E+00  0.37213381421E+02  0.37213381421E+02  0.00000000000E+00 0.  1.
          1   -1    0    0  501    0  0.00000000000E+00 -0.00000000000E+00 -0.58971385473E+03  0.58971385473E+03  0.00000000000E+00 0. -1.
         23    2    1    2    0    0  0.24554143083E+02 -0.13952090021E+01 -0.50076003005E+03  0.51671126396E+03  0.12500028024E+03 0.  0.
          5    1    3    3  502    0 -0.20270923899E+02 -0.51983090810E+02 -0.16679040142E+03  0.17593828489E+03  0.47000000000E+01 0.  1.
         -5    1    3    3    0  502  0.44825066983E+02  0.50587881808E+02 -0.33396962863E+03  0.34077297907E+03  0.47000000000E+01 0.  1.
        -11    1    1    2    0    0 -0.22535583961E+02  0.44499374746E+02 -0.11446994187E+02  0.51176953535E+02  0.00000000000E+00 0.  1.
         11    1    1    2    0    0 -0.20185591226E+01 -0.43104165744E+02 -0.40293449073E+02  0.59039018654E+02  0.00000000000E+00 0. -1.
<mgrwt>
<rscale>  0 0.11910095E+03</rscale>
<asrwt>0</asrwt>
<pdfrwt beam="2">  1        1 0.90725209E-01 0.12739671E+03</pdfrwt>
<pdfrwt beam="1">  1       -1 0.57251355E-02 0.12739671E+03</pdfrwt>
<totfact> 0.49807814E+03</totfact>
</mgrwt>
</event>
<event>
 7    1  0.7800420E-006  0.1306406E+03  0.7546771E-02  0.1241552E+00
          1   -1    0    0  501    0  0.00000000000E+00  0.00000000000E+00  0.48357243374E+03  0.48357243374E+03  0.00000000000E+00 0. -1.
         -1   -1    0    0    0  501 -0.00000000000E+00 -0.00000000000E+00 -0.26886517464E+02  0.26886517464E+02  0.00000000000E+00 0.  1.
         23    2    1    2    0    0 -0.32352525714E+02  0.19906378928E+02  0.29128721382E+03  0.31924161726E+03  0.12499607758E+03 0.  0.
          5    1    3    3  502    0 -0.54308703413E+02  0.15114039472E+02  0.29082728948E+03  0.29627769366E+03  0.47000000000E+01 0.  1.
         -5    1    3    3    0  502  0.21956177699E+02  0.47923394557E+01  0.45992434486E+00  0.22963923598E+02  0.47000000000E+01 0.  1.
        -11    1    1    2    0    0  0.32239169391E+02  0.30979917937E+02  0.69175391727E+02  0.82367191157E+02  0.00000000000E+00 0.  1.
         11    1    1    2    0    0  0.11335632264E+00 -0.50886296865E+02  0.96223310725E+02  0.10885014279E+03  0.00000000000E+00 0. -1.
<mgrwt>
<rscale>  0 0.12094152E+03</rscale>
<asrwt>0</asrwt>
<pdfrwt beam="1">  1        1 0.74395753E-01 0.13064061E+03</pdfrwt>
<pdfrwt beam="2">  1       -1 0.41363877E-02 0.13064061E+03</pdfrwt>
<totfact> 0.10475518E+04</totfact>
</mgrwt>
</event>
<event>
 7    1  0.7800420E-006  0.3966338E+03  0.7546771E-02  0.1045790E+00
         -1   -1    0    0    0  501 -0.00000000000E+00  0.00000000000E+00  0.59846639164E+03  0.59846639164E+03  0.00000000000E+00 0.  1.
          1   -1    0    0  501    0  0.00000000000E+00 -0.00000000000E+00 -0.35702635162E+03  0.35702635162E+03  0.00000000000E+00 0. -1.
         23    2    1    2    0    0  0.13232573962E+03  0.35239703539E+03 -0.13154975910E+03  0.41787999526E+03  0.12499831761E+03 0.  0.
          5    1    3    3  502    0  0.49856977898E+02  0.26964143593E+03 -0.12320815047E+03  0.30065688178E+03  0.47000000000E+01 0. -1.
         -5    1    3    3    0  502  0.82468761724E+02  0.82755599452E+02 -0.83416086369E+01  0.11722311349E+03  0.47000000000E+01 0. -1.
        -11    1    1    2    0    0 -0.12884787937E+03 -0.26772123495E+03  0.32450158002E+03  0.43997467097E+03  0.00000000000E+00 0. -1.
         11    1    1    2    0    0 -0.34778602501E+01 -0.84675800439E+02  0.48488219105E+02  0.97638077019E+02  0.00000000000E+00 0.  1.
<mgrwt>
<rscale>  0 0.39424816E+03</rscale>
<asrwt>0</asrwt>
<pdfrwt beam="2">  1        1 0.54927131E-01 0.39663377E+03</pdfrwt>
<pdfrwt beam="1">  1       -1 0.92071753E-01 0.39663377E+03</pdfrwt>
<totfact> 0.84219570E+01</totfact>
</mgrwt>
</event>
<event>
 7    1  0.7800420E-006  0.1330989E+03  0.7546771E-02  0.1237451E+00
          2   -1    0    0  501    0  0.00000000000E+00  0.00000000000E+00  0.33269171097E+03  0.33269171097E+03  0.00000000000E+00 0. -1.
         -2   -1    0    0    0  501 -0.00000000000E+00 -0.00000000000E+00 -0.45915424234E+02  0.45915424234E+02  0.00000000000E+00 0.  1.
         23    2    1    2    0    0  0.13421071014E+02  0.43701883186E+02  0.22740321364E+03  0.26349104494E+03  0.12500131779E+03 0.  0.
          5    1    3    3  502    0  0.55203281349E+02  0.63933210093E+02  0.12473722914E+03  0.15071935495E+03  0.47000000000E+01 0.  1.
         -5    1    3    3    0  502 -0.41782210335E+02 -0.20231326907E+02  0.10266598450E+03  0.11277168998E+03  0.47000000000E+01 0.  1.
        -11    1    1    2    0    0 -0.17606817455E+02  0.27879313633E+01 -0.17628923841E+02  0.25070930138E+02  0.00000000000E+00 0.  1.
         11    1    1    2    0    0  0.41857464410E+01 -0.46489814549E+02  0.77001996945E+02  0.90045160134E+02  0.00000000000E+00 0. -1.
<mgrwt>
<rscale>  0 0.12348825E+03</rscale>
<asrwt>0</asrwt>
<pdfrwt beam="1">  1        2 0.51183339E-01 0.13309887E+03</pdfrwt>
<pdfrwt beam="2">  1       -2 0.70639116E-02 0.13309887E+03</pdfrwt>
<totfact> 0.10604118E+04</totfact>
</mgrwt>
</event>
<event>
 7    1  0.7800420E-006  0.2586859E+03  0.7546771E-02  0.1110519E+00
          2   -1    0    0  501    0  0.00000000000E+00  0.00000000000E+00  0.10830286977E+04  0.10830286977E+04  0.00000000000E+00 0. -1.
         -2   -1    0    0    0  501 -0.00000000000E+00 -0.00000000000E+00 -0.62625673862E+02  0.62625673862E+02  0.00000000000E+00 0.  1.
         23    2    1    2    0    0  0.21490969906E+03  0.71465156490E+02  0.36864151064E+03  0.45034979076E+03  0.12499969331E+03 0.  0.
          5    1    3    3  502    0  0.79052289204E+01 -0.17127034315E+02  0.89984489108E+02  0.92060448775E+02  0.47000000000E+01 0. -1.
         -5    1    3    3    0  502  0.20700447014E+03  0.88592190805E+02  0.27865702153E+03  0.35828934198E+03  0.47000000000E+01 0. -1.
        -11    1    1    2    0    0 -0.20552533630E+03 -0.43600734865E+02  0.60070968561E+03  0.63639124313E+03  0.00000000000E+00 0.  1.
         11    1    1    2    0    0 -0.93843627553E+01 -0.27864421626E+02  0.51051827633E+02  0.58913337722E+02  0.00000000000E+00 0. -1.
<mgrwt>
<rscale>  0 0.25445911E+03</rscale>
<asrwt>0</asrwt>
<pdfrwt beam="1">  1        2 0.16661979E+00 0.25868585E+03</pdfrwt>
<pdfrwt beam="2">  1       -2 0.96347198E-02 0.25868585E+03</pdfrwt>
<totfact> 0.16467946E+03</totfact>
</mgrwt>
</event>
<event>
 7    1  0.7800420E-006  0.1433883E+03  0.7546771E-02  0.1219197E+00
          1   -1    0    0  501    0  0.00000000000E+00  0.00000000000E+00  0.15963243363E+03  0.15963243363E+03  0.00000000000E+00 0. -1.
         -1   -1    0    0    0  501 -0.00000000000E+00 -0.00000000000E+00 -0.13757947563E+03  0.13757947563E+03  0.00000000000E+00 0.  1.
         23    2    1    2    0    0 -0.18839535111E+02  0.67679173191E+02  0.84314835178E+02  0.16634058695E+03  0.12499920347E+03 0.  0.
          5    1    3    3  502    0  0.43962974118E+02  0.13185788002E+02 -0.22839685129E+01  0.46194313619E+02  0.47000000000E+01 0.  1.
         -5    1    3    3    0  502 -0.62802509230E+02  0.54493385189E+02  0.86598803691E+02  0.12014627333E+03  0.47000000000E+01 0.  1.
        -11    1    1    2    0    0  0.53386385079E+02 -0.37105765687E+02 -0.19267294478E+02  0.67809826689E+02  0.00000000000E+00 0. -1.
         11    1    1    2    0    0 -0.34546849968E+02 -0.30573407504E+02 -0.42994582694E+02  0.63061495622E+02  0.00000000000E+00 0.  1.
<mgrwt>
<rscale>  0 0.13572672E+03</rscale>
<asrwt>0</asrwt>
<pdfrwt beam="1">  1        1 0.24558836E-01 0.14338828E+03</pdfrwt>
<pdfrwt beam="2">  1       -1 0.21166073E-01 0.14338828E+03</pdfrwt>
<totfact> 0.34736391E+03</totfact>
</mgrwt>
</event>
<event>
 7    1  0.7800420E-006  0.1254862E+03  0.7546771E-02  0.1249633E+00
          3   -1    0    0  501    0  0.00000000000E+00  0.00000000000E+00  0.13756020871E+03  0.13756020871E+03  0.00000000000E+00 0. -1.
         -3   -1    0    0    0  501 -0.00000000000E+00 -0.00000000000E+00 -0.86588948161E+02  0.86588948161E+02  0.00000000000E+00 0.  1.
         23    2    1    2    0    0 -0.15031785819E+01  0.11046107783E+02  0.38673513840E+02  0.13131039644E+03  0.12499001359E+03 0.  0.
          5    1    3    3  502    0 -0.44874089069E+02  0.49635022296E+02  0.17332011548E+02  0.69280646161E+02  0.47000000000E+01 0.  1.
         -5    1    3    3    0  502  0.43370910487E+02 -0.38588914513E+02  0.21341502292E+02  0.62029750280E+02  0.47000000000E+01 0.  1.
        -11    1    1    2    0    0  0.40278004814E+02 -0.22536804098E+02  0.22180079101E+02  0.51207236985E+02  0.00000000000E+00 0. -1.
         11    1    1    2    0    0 -0.38774826232E+02  0.11490696314E+02 -0.98823323885E+01  0.41631523448E+02  0.00000000000E+00 0.  1.
<mgrwt>
<rscale>  0 0.11612300E+03</rscale>
<asrwt>0</asrwt>
<pdfrwt beam="1">  1        3 0.21163109E-01 0.12548617E+03</pdfrwt>
<pdfrwt beam="2">  1       -3 0.13321377E-01 0.12548617E+03</pdfrwt>
<totfact> 0.20862757E+03</totfact>
</mgrwt>
</event>
<event>
 7    1  0.7800420E-006  0.1485123E+03  0.7546771E-02  0.1211637E+00
          1   -1    0    0  501    0  0.00000000000E+00  0.00000000000E+00  0.10354073733E+03  0.10354073733E+03  0.00000000000E+00 0. -1.
         -1   -1    0    0    0  501 -0.00000000000E+00 -0.00000000000E+00 -0.23612537229E+03  0.23612537229E+03  0.00000000000E+00 0.  1.
         23    2    1    2    0    0 -0.13764272280E+02 -0.79011030169E+02  0.14062335633E+02  0.14917660870E+03  0.12499485277E+03 0.  0.
          5    1    3    3  502    0 -0.20014706037E+02 -0.10317073513E+03 -0.19600732168E+02  0.10700966193E+03  0.47000000000E+01 0.  1.
         -5    1    3    3    0  502  0.62504337565E+01  0.24159704962E+02  0.33663067801E+02  0.42166946768E+02  0.47000000000E+01 0.  1.
        -11    1    1    2    0    0  0.49769705957E+02  0.25720161023E+02 -0.54837630404E+02  0.78394617305E+02  0.00000000000E+00 0. -1.
         11    1    1    2    0    0 -0.36005433677E+02  0.53290869146E+02 -0.91809340185E+02  0.11209488362E+03  0.00000000000E+00 0.  1.
<mgrwt>
<rscale>  0 0.14126499E+03</rscale>
<asrwt>0</asrwt>
<pdfrwt beam="1">  1        1 0.15929344E-01 0.14851233E+03</pdfrwt>
<pdfrwt beam="2">  1       -1 0.36326980E-01 0.14851233E+03</pdfrwt>
<totfact> 0.24538442E+03</totfact>
</mgrwt>
</event>
<event>
 7    1  0.7800420E-006  0.1705622E+03  0.7546771E-02  0.1183545E+00
         -2   -1    0    0    0  501 -0.00000000000E+00  0.00000000000E+00  0.19995949037E+03  0.19995949037E+03  0.00000000000E+00 0. -1.
          2   -1    0    0  501    0  0.00000000000E+00 -0.00000000000E+00 -0.18023749439E+03  0.18023749439E+03  0.00000000000E+00 0.  1.
         23    2    1    2    0    0  0.97342443627E+02  0.63167632467E+02 -0.92815409365E+02  0.19418079309E+03  0.12500311622E+03 0.  0.
          5    1    3    3  502    0  0.25914348528E+00 -0.22898935066E+02  0.12951175212E+02  0.26725480760E+02  0.47000000000E+01 0.  1.
         -5    1    3    3    0  502  0.97083300142E+02  0.86066567533E+02 -0.10576658458E+03  0.16745531233E+03  0.47000000000E+01 0.  1.
        -11    1    1    2    0    0 -0.28952205337E+02 -0.25454961999E+02 -0.10796419481E+02  0.40034334737E+02  0.00000000000E+00 0.  1.
         11    1    1    2    0    0 -0.68390238290E+02 -0.37712670469E+02  0.12333382482E+03  0.14598185693E+03  0.00000000000E+00 0. -1.
<mgrwt>
<rscale>  0 0.16464942E+03</rscale>
<asrwt>0</asrwt>
<pdfrwt beam="2">  1        2 0.27728845E-01 0.17056225E+03</pdfrwt>
<pdfrwt beam="1">  1       -2 0.30762998E-01 0.17056225E+03</pdfrwt>
<totfact> 0.18381946E+03</totfact>
</mgrwt>
</event>
<event>
 7    1  0.7800420E-006  0.1987899E+03  0.7546771E-02  0.1155187E+00
         -2   -1    0    0    0  501 -0.00000000000E+00  0.00000000000E+00  0.31185603579E+02  0.31185603579E+02  0.00000000000E+00 0.  1.
          2   -1    0    0  501    0  0.00000000000E+00 -0.00000000000E+00 -0.20888891963E+04  0.20888891963E+04  0.00000000000E+00 0. -1.
         23    2    1    2    0    0  0.33995784195E+02 -0.15078800279E+03 -0.17703101536E+04  0.17814363535E+04  0.12499882517E+03 0.  0.
          5    1    3    3  502    0  0.31287635954E+02 -0.22992691115E+02 -0.12078678359E+03  0.12696108497E+03  0.47000000000E+01 0.  1.
         -5    1    3    3    0  502  0.27081482414E+01 -0.12779531168E+03 -0.16495233700E+04  0.16544752685E+04  0.47000000000E+01 0.  1.
        -11    1    1    2    0    0 -0.39715618244E+02  0.16165807436E+03 -0.27262837596E+03  0.31943214415E+03  0.00000000000E+00 0.  1.
         11    1    1    2    0    0  0.57198340487E+01 -0.10870071570E+02 -0.14765063187E+02  0.19206302310E+02  0.00000000000E+00 0. -1.
<mgrwt>
<rscale>  0 0.19367645E+03</rscale>
<asrwt>0</asrwt>
<pdfrwt beam="2">  1        2 0.32136764E+00 0.19878994E+03</pdfrwt>
<pdfrwt beam="1">  1       -2 0.47977842E-02 0.19878994E+03</pdfrwt>
<totfact> 0.14015446E+03</totfact>
</mgrwt>
</event>
<event>
 7    1  0.7800420E-006  0.1892763E+03  0.7546771E-02  0.1163972E+00
          2   -1    0    0  501    0  0.00000000000E+00  0.00000000000E+00  0.25361645533E+03  0.25361645533E+03  0.00000000000E+00 0. -1.
         -2   -1    0    0    0  501 -0.00000000000E+00 -0.00000000000E+00 -0.16005854569E+03  0.16005854569E+03  0.00000000000E+00 0.  1.
         23    2    1    2    0    0 -0.37624614637E+02 -0.13706168413E+03  0.14331243960E+03  0.23741098502E+03  0.12499601426E+03 0.  0.
          5    1    3    3  502    0 -0.62034053534E+02 -0.81487767154E+02  0.14370864100E+03  0.17652972411E+03  0.47000000000E+01 0. -1.
         -5    1    3    3    0  502  0.24409438897E+02 -0.55573916972E+02 -0.39620140181E+00  0.60881260914E+02  0.47000000000E+01 0. -1.
        -11    1    1    2    0    0  0.50494937123E+02  0.77878155386E+02 -0.65601139221E+02  0.11365850267E+03  0.00000000000E+00 0. -1.
         11    1    1    2    0    0 -0.12870322486E+02  0.59183528740E+02  0.15846609252E+02  0.62605513334E+02  0.00000000000E+00 0.  1.
<mgrwt>
<rscale>  0 0.18401600E+03</rscale>
<asrwt>0</asrwt>
<pdfrwt beam="1">  1        2 0.39017916E-01 0.18927631E+03</pdfrwt>
<pdfrwt beam="2">  1       -2 0.24624392E-01 0.18927631E+03</pdfrwt>
<totfact> 0.18937631E+03</totfact>
</mgrwt>
</event>
<event>
 7    1  0.7800420E-006  0.2331467E+03  0.7546771E-02  0.1127303E+00
          2   -1    0    0  501    0  0.00000000000E+00  0.00000000000E+00  0.28762529892E+03  0.28762529892E+03  0.00000000000E+00 0.  1.
         -2   -1    0    0    0  501 -0.00000000000E+00 -0.00000000000E+00 -0.17805577631E+03  0.17805577631E+03  0.00000000000E+00 0. -1.
         23    2    1    2    0    0  0.50719388381E+02 -0.19015267150E+03  0.79809616835E+02  0.24642844672E+03  0.12500763807E+03 0.  0.
          5    1    3    3  502    0  0.81451614988E+02 -0.66777201659E+02  0.44078458090E+02  0.11427405967E+03  0.47000000000E+01 0.  1.
         -5    1    3    3    0  502 -0.30732226607E+02 -0.12337546984E+03  0.35731158746E+02  0.13215438705E+03  0.47000000000E+01 0.  1.
        -11    1    1    2    0    0  0.23645439535E+02  0.18072621079E+02  0.38210546248E+01  0.30005447871E+02  0.00000000000E+00 0.  1.
         11    1    1    2    0    0 -0.74364827917E+02  0.17208005042E+03  0.25938851147E+02  0.18924718065E+03  0.00000000000E+00 0. -1.
<mgrwt>
<rscale>  0 0.22905972E+03</rscale>
<asrwt>0</asrwt>
<pdfrwt beam="1">  1        2 0.44250046E-01 0.23314674E+03</pdfrwt>
<pdfrwt beam="2">  1       -2 0.27393196E-01 0.23314674E+03</pdfrwt>
<totfact> 0.13765582E+03</totfact>
</mgrwt>
</event>
<event>
 7    1  0.7800420E-006  0.2981620E+03  0.7546771E-02  0.1086853E+00
          1   -1    0    0  501    0  0.00000000000E+00  0.00000000000E+00  0.39777672514E+03  0.39777672514E+03  0.00000000000E+00 0. -1.
         -1   -1    0    0    0  501 -0.00000000000E+00 -0.00000000000E+00 -0.22723968020E+03  0.22723968020E+03  0.00000000000E+00 0.  1.
         23    2    1    2    0    0 -0.18817527128E+03  0.19460631783E+03  0.14388984757E+03  0.33106621823E+03  0.12497600153E+03 0.  0.
          5    1    3    3  502    0 -0.30661882424E+02 -0.12277603874E+02 -0.97617399383E+00  0.33375642411E+02  0.47000000000E+01 0. -1.
         -5    1    3    3    0  502 -0.15751338885E+03  0.20688392170E+03  0.14486602157E+03  0.29769057582E+03  0.47000000000E+01 0. -1.
        -11    1    1    2    0    0  0.96033193964E+02 -0.40590540683E+02 -0.24956543343E+02  0.10720445602E+03  0.00000000000E+00 0.  1.
         11    1    1    2    0    0  0.92142077315E+02 -0.15401577714E+03  0.51603740711E+02  0.18674573108E+03  0.00000000000E+00 0. -1.
<mgrwt>
<rscale>  0 0.29679710E+03</rscale>
<asrwt>0</asrwt>
<pdfrwt beam="1">  1        1 0.61196419E-01 0.29816196E+03</pdfrwt>
<pdfrwt beam="2">  1       -1 0.34959951E-01 0.29816196E+03</pdfrwt>
<totfact> 0.48029518E+02</totfact>
</mgrwt>
</event>
<event>
 7    1  0.7800420E-006  0.2736430E+03  0.7546771E-02  0.1101263E+00
          2   -1    0    0  501    0  0.00000000000E+00  0.00000000000E+00  0.16378826335E+04  0.16378826335E+04  0.00000000000E+00 0. -1.
         -2   -1    0    0    0  501 -0.00000000000E+00 -0.00000000000E+00 -0.44728218312E+02  0.44728218312E+02  0.00000000000E+00 0.  1.
         23    2    1    2    0    0 -0.37081063050E+02  0.24061293144E+03  0.96310485210E+03  0.10012249626E+04  0.12494351361E+03 0.  0.
          5    1    3    3  502    0 -0.20564017432E+02 -0.85487911604E+01  0.10911940950E+03  0.11146791545E+03  0.47000000000E+01 0. -1.
         -5    1    3    3    0  502 -0.16517045618E+02  0.24916172260E+03  0.85398544259E+03  0.88975704716E+03  0.47000000000E+01 0. -1.
        -11    1    1    2    0    0  0.16338905727E+02 -0.84912698063E+02  0.12148509817E+03  0.14911658261E+03  0.00000000000E+00 0.  1.
         11    1    1    2    0    0  0.20742157322E+02 -0.15570023338E+03  0.50856446496E+03  0.53226930663E+03  0.00000000000E+00 0. -1.
<mgrwt>
<rscale>  0 0.27002854E+03</rscale>
<asrwt>0</asrwt>
<pdfrwt beam="1">  1        2 0.25198190E+00 0.27364296E+03</pdfrwt>
<pdfrwt beam="2">  1       -2 0.68812656E-02 0.27364296E+03</pdfrwt>
<totfact> 0.13794374E+03</totfact>
</mgrwt>
</event>
<event>
 7    1  0.7800420E-006  0.1453838E+03  0.7546771E-02  0.1215812E+00
          2   -1    0    0  501    0  0.00000000000E+00  0.00000000000E+00  0.89014368885E+03  0.89014368885E+03  0.00000000000E+00 0. -1.
         -2   -1    0    0    0  501 -0.00000000000E+00 -0.00000000000E+00 -0.23972250270E+02  0.23972250270E+02  0.00000000000E+00 0.  1.
         23    2    1    2    0    0  0.74222856492E+02  0.14063765464E+01  0.66392160633E+03  0.67965311894E+03  0.12500180961E+03 0.  0.
          5    1    3    3  502    0  0.94059355981E+02  0.31288414496E+02  0.35463530118E+03  0.36825862403E+03  0.47000000000E+01 0.  1.
         -5    1    3    3    0  502 -0.19836499489E+02 -0.29882037950E+02  0.30928630515E+03  0.31139449491E+03  0.47000000000E+01 0.  1.
        -11    1    1    2    0    0 -0.30860093430E+02 -0.21603229233E+02  0.17582236890E+03  0.17981254207E+03  0.00000000000E+00 0. -1.
         11    1    1    2    0    0 -0.43362763062E+02  0.20196852686E+02  0.26427463347E+02  0.54650278112E+02  0.00000000000E+00 0.  1.
<mgrwt>
<rscale>  0 0.13817054E+03</rscale>
<asrwt>0</asrwt>
<pdfrwt beam="1">  1        2 0.13694516E+00 0.14538385E+03</pdfrwt>
<pdfrwt beam="2">  1       -2 0.36880392E-02 0.14538385E+03</pdfrwt>
<totfact> 0.92639418E+03</totfact>
</mgrwt>
</event>
<event>
 7    1  0.7800420E-006  0.1842739E+03  0.7546771E-02  0.1168742E+00
         -1   -1    0    0    0  501 -0.00000000000E+00  0.00000000000E+00  0.11717484029E+03  0.11717484029E+03  0.00000000000E+00 0.  1.
          1   -1    0    0  501    0  0.00000000000E+00 -0.00000000000E+00 -0.26828699148E+03  0.26828699148E+03  0.00000000000E+00 0. -1.
         23    2    1    2    0    0 -0.10883466686E+03 -0.80540776527E+02 -0.44100614838E+02  0.18947755323E+03  0.12500031022E+03 0.  0.
          5    1    3    3  502    0 -0.90149134231E+02 -0.51768214959E+02 -0.86086015684E+02  0.13505445783E+03  0.47000000000E+01 0. -1.
         -5    1    3    3    0  502 -0.18685532630E+02 -0.28772561568E+02  0.41985400846E+02  0.54423095402E+02  0.47000000000E+01 0. -1.
        -11    1    1    2    0    0  0.77663652614E+02  0.41456965923E+01 -0.73238098271E+02  0.10682999942E+03  0.00000000000E+00 0. -1.
         11    1    1    2    0    0  0.31171014246E+02  0.76395079935E+02 -0.33773438078E+02  0.89154279129E+02  0.00000000000E+00 0.  1.
<mgrwt>
<rscale>  0 0.17903363E+03</rscale>
<asrwt>0</asrwt>
<pdfrwt beam="2">  1        1 0.41274922E-01 0.18427392E+03</pdfrwt>
<pdfrwt beam="1">  1       -1 0.18026899E-01 0.18427392E+03</pdfrwt>
<totfact> 0.23758651E+03</totfact>
</mgrwt>
</event>
<event>
 7    1  0.7800420E-006  0.1206194E+03  0.7546771E-02  0.1254825E+00
         -2   -1    0    0    0  501 -0.00000000000E+00  0.00000000000E+00  0.31003331011E+02  0.31003331011E+02  0.00000000000E+00 0.  1.
          2   -1    0    0  501    0  0.00000000000E+00 -0.00000000000E+00 -0.10750410278E+04  0.10750410278E+04  0.00000000000E+00 0. -1.
         23    2    1    2    0    0 -0.17818819010E+02 -0.76329424876E+01 -0.99157049706E+03  0.99887992008E+03  0.11905155181E+03 0.  0.
          5    1    3    3  502    0 -0.19140931880E+02 -0.49475295526E+02 -0.83636884636E+03  0.83806271680E+03  0.47000000000E+01 0. -1.
         -5    1    3    3    0  502  0.13221128696E+01  0.41842353038E+02 -0.15520165070E+03  0.16081720328E+03  0.47000000000E+01 0.  1.
        -11    1    1    2    0    0  0.39133176062E+02  0.32230182125E+02 -0.68960027214E+01  0.51163902920E+02  0.00000000000E+00 0.  1.
         11    1    1    2    0    0 -0.21314357052E+02 -0.24597239637E+02 -0.45571197031E+02  0.56000535830E+02  0.00000000000E+00 0. -1.
<mgrwt>
<rscale>  0 0.11316144E+03</rscale>
<asrwt>0</asrwt>
<pdfrwt beam="2">  1        2 0.16539094E+00 0.12061942E+03</pdfrwt>
<pdfrwt beam="1">  1       -2 0.47697430E-02 0.12061942E+03</pdfrwt>
<totfact> 0.48455574E+03</totfact>
</mgrwt>
</event>
<event>
 7    1  0.7800420E-006  0.1279805E+03  0.7546771E-02  0.1242413E+00
         -1   -1    0    0    0  501 -0.00000000000E+00  0.00000000000E+00  0.13178650324E+03  0.13178650324E+03  0.00000000000E+00 0.  1.
          1   -1    0    0  501    0  0.00000000000E+00 -0.00000000000E+00 -0.10466053649E+03  0.10466053649E+03  0.00000000000E+00 0. -1.
         23    2    1    2    0    0  0.19630395132E+02 -0.19180967981E+02 -0.12531051108E+02  0.12859249758E+03  0.12500296495E+03 0.  0.
          5    1    3    3  502    0  0.64053675562E+02  0.14296472577E+02  0.13225099041E+02  0.67113752136E+02  0.47000000000E+01 0.  1.
         -5    1    3    3    0  502 -0.44423280430E+02 -0.33477440558E+02 -0.25756150150E+02  0.61478745441E+02  0.47000000000E+01 0.  1.
        -11    1    1    2    0    0  0.30199290981E+02  0.36549307027E+02  0.21379974256E+02  0.52009156108E+02  0.00000000000E+00 0.  1.
         11    1    1    2    0    0 -0.49829686112E+02 -0.17368339046E+02  0.18277043606E+02  0.55845386043E+02  0.00000000000E+00 0. -1.
<mgrwt>
<rscale>  0 0.12041543E+03</rscale>
<asrwt>0</asrwt>
<pdfrwt beam="2">  1        1 0.16101621E-01 0.12798048E+03</pdfrwt>
<pdfrwt beam="1">  1       -1 0.20274847E-01 0.12798048E+03</pdfrwt>
<totfact> 0.63249556E+03</totfact>
</mgrwt>
</event>
<event>
 7    1  0.7800420E-006  0.1225039E+03  0.7546771E-02  0.1246510E+00
          1   -1    0    0  501    0  0.00000000000E+00  0.00000000000E+00  0.86062310250E+02  0.86062310250E+02  0.00000000000E+00 0. -1.
         -1   -1    0    0    0  501 -0.00000000000E+00 -0.00000000000E+00 -0.16021948069E+03  0.16021948069E+03  0.00000000000E+00 0.  1.
         23    2    1    2    0    0 -0.89193275424E+01  0.34910587929E+02 -0.98437573091E+01  0.12289877940E+03  0.11708504117E+03 0.  0.
          5    1    3    3  502    0 -0.40317415740E+02  0.41711383041E+02 -0.46087126739E+02  0.74239118652E+02  0.47000000000E+01 0. -1.
         -5    1    3    3    0  502  0.31398088198E+02 -0.68007951116E+01  0.36243369429E+02  0.48659660749E+02  0.47000000000E+01 0.  1.
        -11    1    1    2    0    0  0.34700029502E+02 -0.59884615934E+02 -0.38796664931E+02  0.79343811875E+02  0.00000000000E+00 0.  1.
         11    1    1    2    0    0 -0.25780701960E+02  0.24974028005E+02 -0.25516748198E+02  0.44039199663E+02  0.00000000000E+00 0. -1.
<mgrwt>
<rscale>  0 0.11795463E+03</rscale>
<asrwt>0</asrwt>
<pdfrwt beam="1">  1        1 0.13240356E-01 0.12250392E+03</pdfrwt>
<pdfrwt beam="2">  1       -1 0.24649150E-01 0.12250392E+03</pdfrwt>
<totfact> 0.59174890E+03</totfact>
</mgrwt>
</event>
<event>
 7    1  0.7800420E-006  0.1261662E+03  0.7546771E-02  0.1248382E+00
         -1   -1    0    0    0  501 -0.00000000000E+00  0.00000000000E+00  0.67944007045E+02  0.67944007045E+02  0.00000000000E+00 0.  1.
          1   -1    0    0  501    0  0.00000000000E+00 -0.00000000000E+00 -0.32452140738E+03  0.32452140738E+03  0.00000000000E+00 0. -1.
         23    2    1    2    0    0 -0.78085116855E+01  0.15252709239E+02 -0.27060811278E+03  0.29857439266E+03  0.12499719701E+03 0.  0.
          5    1    3    3  502    0  0.33808479542E+02  0.49969877843E+02 -0.79724552770E+02  0.10009044058E+03  0.47000000000E+01 0.  1.
         -5    1    3    3    0  502 -0.41616991227E+02 -0.34717168604E+02 -0.19088356001E+03  0.19848395209E+03  0.47000000000E+01 0.  1.
        -11    1    1    2    0    0  0.25160280787E+02  0.31462472036E+02  0.17530666387E+02  0.43934623475E+02  0.00000000000E+00 0.  1.
         11    1    1    2    0    0 -0.17351769101E+02 -0.46715181275E+02 -0.34999539494E+01  0.49956398290E+02  0.00000000000E+00 0. -1.
<mgrwt>
<rscale>  0 0.11685232E+03</rscale>
<asrwt>0</asrwt>
<pdfrwt beam="2">  1        1 0.49926371E-01 0.12616623E+03</pdfrwt>
<pdfrwt beam="1">  1       -1 0.10452924E-01 0.12616623E+03</pdfrwt>
<totfact> 0.43227978E+03</totfact>
</mgrwt>
</event>
<event>
 7    1  0.7800420E-006  0.1188171E+03  0.7546771E-02  0.1254838E+00
         -2   -1    0    0    0  501 -0.00000000000E+00  0.00000000000E+00  0.84213190853E+01  0.84213190853E+01  0.00000000000E+00 0.  1.
          2   -1    0    0  501    0  0.00000000000E+00 -0.00000000000E+00 -0.14918950863E+04  0.14918950863E+04  0.00000000000E+00 0. -1.
         23    2    1    2    0    0  0.34796795818E+02 -0.37641439355E+01 -0.10022379698E+04  0.10092563885E+04  0.11354525041E+03 0.  0.
          5    1    3    3  502    0 -0.19445309623E+02 -0.44266088139E+02 -0.32221487716E+03  0.32585598612E+03  0.47000000000E+01 0. -1.
         -5    1    3    3    0  502  0.54242105442E+02  0.40501944204E+02 -0.68002309265E+03  0.68340040242E+03  0.47000000000E+01 0.  1.
        -11    1    1    2    0    0  0.19718879405E+01  0.43309850629E+02 -0.23606692191E+03  0.24001504771E+03  0.00000000000E+00 0.  1.
         11    1    1    2    0    0 -0.36768683759E+02 -0.39545706693E+02 -0.24516887551E+03  0.25104496916E+03  0.00000000000E+00 0. -1.
<mgrwt>
<rscale>  0 0.11315437E+03</rscale>
<asrwt>0</asrwt>
<pdfrwt beam="2">  1        2 0.22952228E+00 0.11881713E+03</pdfrwt>
<pdfrwt beam="1">  1       -2 0.12955878E-02 0.11881713E+03</pdfrwt>
<totfact> 0.19275893E+04</totfact>
</mgrwt>
</event>
<event>
 7    1  0.7800420E-006  0.1693853E+03  0.7546771E-02  0.1185117E+00
         -2   -1    0    0    0  501 -0.00000000000E+00  0.00000000000E+00  0.20414722769E+02  0.20414722769E+02  0.00000000000E+00 0.  1.
          2   -1    0    0  501    0  0.00000000000E+00 -0.00000000000E+00 -0.13308767827E+04  0.13308767827E+04  0.00000000000E+00 0. -1.
         23    2    1    2    0    0 -0.30791767865E+02 -0.11008153538E+03 -0.89578929664E+03  0.91166323615E+03  0.12500125910E+03 0.  0.
          5    1    3    3  502    0 -0.42458823787E+02  0.12790261817E+02 -0.29026459625E+03  0.29366982880E+03  0.47000000000E+01 0. -1.
         -5    1    3    3    0  502  0.11667055922E+02 -0.12287179720E+03 -0.60552470039E+03  0.61799340735E+03  0.47000000000E+01 0. -1.
        -11    1    1    2    0    0  0.54696923452E+02  0.10845939825E+03 -0.33066999417E+03  0.35227523266E+03  0.00000000000E+00 0.  1.
         11    1    1    2    0    0 -0.23905155588E+02  0.16221371319E+01 -0.84002769133E+02  0.87353036665E+02  0.00000000000E+00 0. -1.
<mgrwt>
<rscale>  0 0.16321273E+03</rscale>
<asrwt>0</asrwt>
<pdfrwt beam="2">  1        2 0.20475030E+00 0.16938534E+03</pdfrwt>
<pdfrwt beam="1">  1       -2 0.31407262E-02 0.16938534E+03</pdfrwt>
<totfact> 0.65766476E+03</totfact>
</mgrwt>
</event>
<event>
 7    1  0.7800420E-006  0.1295575E+03  0.7546771E-02  0.1242892E+00
         -1   -1    0    0    0  501 -0.00000000000E+00  0.00000000000E+00  0.10726867026E+03  0.10726867026E+03  0.00000000000E+00 0.  1.
          1   -1    0    0  501    0  0.00000000000E+00 -0.00000000000E+00 -0.16186246459E+03  0.16186246459E+03  0.00000000000E+00 0. -1.
         23    2    1    2    0    0 -0.46573179205E+01  0.33748357318E+02 -0.99517091879E+02  0.16336704848E+03  0.12499799487E+03 0.  0.
          5    1    3    3  502    0 -0.62376587001E+02  0.47696090103E+01 -0.34466207652E+02  0.71579307386E+02  0.47000000000E+01 0. -1.
         -5    1    3    3    0  502  0.57719269081E+02  0.28978748307E+02 -0.65050884227E+02  0.91787741095E+02  0.47000000000E+01 0. -1.
        -11    1    1    2    0    0  0.17403480179E+02  0.25497457545E+02  0.30655223435E+02  0.43505679944E+02  0.00000000000E+00 0.  1.
         11    1    1    2    0    0 -0.12746162258E+02 -0.59245814862E+02  0.14268074120E+02  0.62258406421E+02  0.00000000000E+00 0. -1.
<mgrwt>
<rscale>  0 0.12012429E+03</rscale>
<asrwt>0</asrwt>
<pdfrwt beam="2">  1        1 0.24901917E-01 0.12955748E+03</pdfrwt>
<pdfrwt beam="1">  1       -1 0.16502872E-01 0.12955748E+03</pdfrwt>
<totfact> 0.50493207E+03</totfact>
</mgrwt>
</event>
<event>
 6    1  0.7800420E-006  0.2669572E+03  0.7546771E-02  0.1129057E+00
          2   -1    0    0  501    0  0.00000000000E+00  0.00000000000E+00  0.12810792750E+04  0.12810792750E+04  0.00000000000E+00 0. -1.
         -2   -1    0    0    0  501 -0.00000000000E+00 -0.00000000000E+00 -0.32221839171E+02  0.32221839171E+02  0.00000000000E+00 0.  1.
          5    1    1    2  502    0  0.76856239695E+01  0.58651967367E+02  0.60371574955E+03  0.60662502285E+03  0.47000000000E+01 0. -1.
         -5    1    1    2    0  502 -0.10642641201E+03 -0.96677079125E+02  0.25680540031E+03  0.29435377088E+03  0.47000000000E+01 0.  1.
        -11    1    1    2    0    0  0.25183845855E+02  0.51656202090E+02  0.10999005332E+03  0.12409835267E+03  0.00000000000E+00 0. -1.
         11    1    1    2    0    0  0.73556942188E+02 -0.13631090331E+02  0.27834623261E+03  0.28822396773E+03  0.00000000000E+00 0.  1.
<mgrwt>
<rscale>  0 0.22659845E+03</rscale>
<asrwt>0</asrwt>
<pdfrwt beam="1">  1        2 0.19708908E+00 0.26695718E+03</pdfrwt>
<pdfrwt beam="2">  1       -2 0.49572070E-02 0.26695718E+03</pdfrwt>
<totfact> 0.35631840E+03</totfact>
</mgrwt>
</event>
<event>
 7    1  0.7800420E-006  0.1301123E+03  0.7546771E-02  0.1238704E+00
          2   -1    0    0  501    0  0.00000000000E+00  0.00000000000E+00  0.12482981564E+03  0.12482981564E+03  0.00000000000E+00 0. -1.
         -2   -1    0    0    0  501 -0.00000000000E+00 -0.00000000000E+00 -0.10985632246E+03  0.10985632246E+03  0.00000000000E+00 0.  1.
         23    2    1    2    0    0  0.17660845933E+02  0.31490836541E+02  0.20060671569E+02  0.13164965375E+03  0.12500249007E+03 0.  0.
          5    1    3    3  502    0 -0.14526978141E+02 -0.75940231910E+00  0.65421539471E+02  0.67183908881E+02  0.47000000000E+01 0.  1.
         -5    1    3    3    0  502  0.32187824074E+02  0.32250238860E+02 -0.45360867902E+02  0.64465744873E+02  0.47000000000E+01 0.  1.
        -11    1    1    2    0    0  0.49563054709E+01 -0.21200638811E+02  0.43398957887E+02  0.48554109977E+02  0.00000000000E+00 0. -1.
         11    1    1    2    0    0 -0.22617151404E+02 -0.10290197730E+02 -0.48486136271E+02  0.54482374374E+02  0.00000000000E+00 0.  1.
<mgrwt>
<rscale>  0 0.12270265E+03</rscale>
<asrwt>0</asrwt>
<pdfrwt beam="1">  1        2 0.19204587E-01 0.13011226E+03</pdfrwt>
<pdfrwt beam="2">  1       -2 0.16900973E-01 0.13011226E+03</pdfrwt>
<totfact> 0.76866536E+03</totfact>
</mgrwt>
</event>
<event>
 7    1  0.7800420E-006  0.1616828E+03  0.7546771E-02  0.1194722E+00
          2   -1    0    0  501    0  0.00000000000E+00  0.00000000000E+00  0.27064698302E+03  0.27064698302E+03  0.00000000000E+00 0. -1.
         -2   -1    0    0    0  501 -0.00000000000E+00 -0.00000000000E+00 -0.94581445563E+02  0.94581445563E+02  0.00000000000E+00 0.  1.
         23    2    1    2    0    0 -0.18134269651E+02 -0.10080424236E+03  0.16173810057E+03  0.22869309171E+03  0.12510383689E+03 0.  0.
          5    1    3    3  502    0 -0.15651122647E+02 -0.16026729038E+02 -0.18507085090E+02  0.29434943219E+02  0.47000000000E+01 0. -1.
         -5    1    3    3    0  502 -0.24831470045E+01 -0.84777513320E+02  0.18024518566E+03  0.19925814849E+03  0.47000000000E+01 0. -1.
        -11    1    1    2    0    0  0.83456164529E+01 -0.63238159498E+01  0.26289445908E+02  0.28297966858E+02  0.00000000000E+00 0. -1.
         11    1    1    2    0    0  0.97886531984E+01  0.10712805831E+03 -0.11962009025E+02  0.10823737002E+03  0.00000000000E+00 0.  1.
<mgrwt>
<rscale>  0 0.15477755E+03</rscale>
<asrwt>0</asrwt>
<pdfrwt beam="1">  1        2 0.41637997E-01 0.16168277E+03</pdfrwt>
<pdfrwt beam="2">  1       -2 0.14550992E-01 0.16168277E+03</pdfrwt>
<totfact> 0.42729602E+03</totfact>
</mgrwt>
</event>
<event>
 7    1  0.7800420E-006  0.1322427E+03  0.7546771E-02  0.1237122E+00
          2   -1    0    0  501    0  0.00000000000E+00  0.00000000000E+00  0.11401782984E+03  0.11401782984E+03  0.00000000000E+00 0. -1.
         -2   -1    0    0    0  501 -0.00000000000E+00 -0.00000000000E+00 -0.12407107471E+03  0.12407107471E+03  0.00000000000E+00 0.  1.
         23    2    1    2    0    0 -0.36807893328E+02  0.22538278804E+02  0.16941791788E+02  0.13332349153E+03  0.12500133624E+03 0.  0.
          5    1    3    3  502    0 -0.17834716061E+02 -0.44984482069E+02  0.35993812212E+02  0.60492356885E+02  0.47000000000E+01 0.  1.
         -5    1    3    3    0  502 -0.18973177267E+02  0.67522760874E+02 -0.19052020424E+02  0.72831134646E+02  0.47000000000E+01 0.  1.
        -11    1    1    2    0    0 -0.49813552268E+01  0.17885555090E+02 -0.40959077868E+02  0.44970579722E+02  0.00000000000E+00 0.  1.
         11    1    1    2    0    0  0.41789248554E+02 -0.40423833894E+02  0.13964041209E+02  0.59794833291E+02  0.00000000000E+00 0. -1.
<mgrwt>
<rscale>  0 0.12369543E+03</rscale>
<asrwt>0</asrwt>
<pdfrwt beam="1">  1        2 0.17541205E-01 0.13224269E+03</pdfrwt>
<pdfrwt beam="2">  1       -2 0.19087858E-01 0.13224269E+03</pdfrwt>
<totfact> 0.69675493E+03</totfact>
</mgrwt>
</event>
<event>
 7    1  0.7800420E-006  0.1469421E+03  0.7546771E-02  0.1213429E+00
         -1   -1    0    0    0  501 -0.00000000000E+00  0.00000000000E+00  0.47679267389E+03  0.47679267389E+03  0.00000000000E+00 0.  1.
          1   -1    0    0  501    0  0.00000000000E+00 -0.00000000000E+00 -0.41679002583E+02  0.41679002583E+02  0.00000000000E+00 0. -1.
         23    2    1    2    0    0  0.70470646904E+02  0.31627357624E+02  0.15588734628E+03  0.21422617643E+03  0.12500235243E+03 0.  0.
          5    1    3    3  502    0  0.86808817577E+02  0.17860976951E+02  0.41875695240E+02  0.98134851906E+02  0.47000000000E+01 0. -1.
         -5    1    3    3    0  502 -0.16338170673E+02  0.13766380673E+02  0.11401165104E+03  0.11609132453E+03  0.47000000000E+01 0. -1.
        -11    1    1    2    0    0 -0.53319124914E+02 -0.64300750686E+02  0.18206918212E+03  0.20031650630E+03  0.00000000000E+00 0. -1.
         11    1    1    2    0    0 -0.17151521990E+02  0.32673393062E+02  0.97157142918E+02  0.10392899374E+03  0.00000000000E+00 0.  1.
<mgrwt>
<rscale>  0 0.13992534E+03</rscale>
<asrwt>0</asrwt>
<pdfrwt beam="2">  1        1 0.64121546E-02 0.14694213E+03</pdfrwt>
<pdfrwt beam="1">  1       -1 0.73352715E-01 0.14694213E+03</pdfrwt>
<totfact> 0.22370866E+03</totfact>
</mgrwt>
</event>
<event>
 7    1  0.7800420E-006  0.1718239E+03  0.7546771E-02  0.1182169E+00
         -2   -1    0    0    0  501 -0.00000000000E+00  0.00000000000E+00  0.30494686266E+03  0.30494686266E+03  0.00000000000E+00 0.  1.
          2   -1    0    0  501    0  0.00000000000E+00 -0.00000000000E+00 -0.86904295601E+02  0.86904295601E+02  0.00000000000E+00 0. -1.
         23    2    1    2    0    0  0.55676189248E+02 -0.10389783250E+03  0.84566120891E+02  0.19150688685E+03  0.12501544409E+03 0.  0.
          5    1    3    3  502    0  0.24478801019E+02  0.10196405855E+02 -0.20012616105E+02  0.33552543795E+02  0.47000000000E+01 0.  1.
         -5    1    3    3    0  502  0.31197388229E+02 -0.11409423836E+03  0.10457873700E+03  0.15795434306E+03  0.47000000000E+01 0.  1.
        -11    1    1    2    0    0 -0.24863976781E+02  0.11353978272E+03  0.94985980011E+02  0.15010608249E+03  0.00000000000E+00 0.  1.
         11    1    1    2    0    0 -0.30812212467E+02 -0.96419502140E+01  0.38490466156E+02  0.50238188920E+02  0.00000000000E+00 0. -1.
<mgrwt>
<rscale>  0 0.16592202E+03</rscale>
<asrwt>0</asrwt>
<pdfrwt beam="2">  1        2 0.13369892E-01 0.17182392E+03</pdfrwt>
<pdfrwt beam="1">  1       -2 0.46914902E-01 0.17182392E+03</pdfrwt>
<totfact> 0.19131340E+03</totfact>
</mgrwt>
</event>
<event>
 7    1  0.7800420E-006  0.1772290E+03  0.7546771E-02  0.1176150E+00
         -2   -1    0    0    0  501 -0.00000000000E+00  0.00000000000E+00  0.15258767684E+03  0.15258767684E+03  0.00000000000E+00 0.  1.
          2   -1    0    0  501    0  0.00000000000E+00 -0.00000000000E+00 -0.23654289083E+03  0.23654289083E+03  0.00000000000E+00 0. -1.
         23    2    1    2    0    0  0.11237012769E+03 -0.56199875976E+02 -0.13747475776E+03  0.22429761235E+03  0.12499855291E+03 0.  0.
          5    1    3    3  502    0  0.75973126134E+01 -0.61249088218E+02 -0.89594334660E+02  0.10889630283E+03  0.47000000000E+01 0. -1.
         -5    1    3    3    0  502  0.10477281508E+03  0.50492122421E+01 -0.47880423098E+02  0.11540130952E+03  0.47000000000E+01 0. -1.
        -11    1    1    2    0    0 -0.23944654150E+02  0.56181782099E+02 -0.76095442858E+00  0.61076330553E+02  0.00000000000E+00 0. -1.
         11    1    1    2    0    0 -0.88425473541E+02  0.18093876444E-01  0.54280498190E+02  0.10375662476E+03  0.00000000000E+00 0.  1.
<mgrwt>
<rscale>  0 0.17163832E+03</rscale>
<asrwt>0</asrwt>
<pdfrwt beam="2">  1        2 0.36391214E-01 0.17722898E+03</pdfrwt>
<pdfrwt beam="1">  1       -2 0.23475027E-01 0.17722898E+03</pdfrwt>
<totfact> 0.22142232E+03</totfact>
</mgrwt>
</event>
<event>
 6    1  0.7800420E-006  0.1634912E+03  0.7546771E-02  0.1210596E+00
         -2   -1    0    0    0  501 -0.00000000000E+00  0.00000000000E+00  0.92746216754E+02  0.92746216754E+02  0.00000000000E+00 0.  1.
          2   -1    0    0  501    0  0.00000000000E+00 -0.00000000000E+00 -0.51305675831E+03  0.51305675831E+03  0.00000000000E+00 0. -1.
          5    1    1    2  502    0 -0.56925596122E+02 -0.27243190846E+01 -0.39531528901E+03  0.39942986010E+03  0.47000000000E+01 0. -1.
         -5    1    1    2    0  502  0.58615439056E+02 -0.25917571475E+02 -0.76502015812E+02  0.99910653237E+02  0.47000000000E+01 0.  1.
        -11    1    1    2    0    0  0.40194744608E+02 -0.18987555119E+01  0.14503835080E+02  0.42773636724E+02  0.00000000000E+00 0. -1.
         11    1    1    2    0    0 -0.41884587542E+02  0.30540646071E+02  0.37002928191E+02  0.63688825007E+02  0.00000000000E+00 0.  1.
<mgrwt>
<rscale>  0 0.14205090E+03</rscale>
<asrwt>0</asrwt>
<pdfrwt beam="2">  1        2 0.78931807E-01 0.16349122E+03</pdfrwt>
<pdfrwt beam="1">  1       -2 0.14268649E-01 0.16349122E+03</pdfrwt>
<totfact> 0.22164340E+03</totfact>
</mgrwt>
</event>
<event>
 7    1  0.7800420E-006  0.1307581E+03  0.7546771E-02  0.1240294E+00
          2   -1    0    0  501    0  0.00000000000E+00  0.00000000000E+00  0.41345860982E+03  0.41345860982E+03  0.00000000000E+00 0. -1.
         -2   -1    0    0    0  501 -0.00000000000E+00 -0.00000000000E+00 -0.31827924023E+02  0.31827924023E+02  0.00000000000E+00 0.  1.
         23    2    1    2    0    0 -0.19510319199E+02 -0.33075812201E+02  0.23244140985E+03  0.26669585423E+03  0.12499203072E+03 0.  0.
          5    1    3    3  502    0 -0.24323452060E+02 -0.42813148596E+02  0.24470413923E+03  0.24965336322E+03  0.47000000000E+01 0.  1.
         -5    1    3    3    0  502  0.48131328605E+01  0.97373363954E+01 -0.12262729379E+02  0.17042491010E+02  0.47000000000E+01 0.  1.
        -11    1    1    2    0    0 -0.21479055701E+02 -0.21164920610E+02  0.43892518818E+02  0.53252764307E+02  0.00000000000E+00 0.  1.
         11    1    1    2    0    0  0.40989374900E+02  0.54240732810E+02  0.10529675714E+03  0.12533791531E+03  0.00000000000E+00 0. -1.
<mgrwt>
<rscale>  0 0.12171529E+03</rscale>
<asrwt>0</asrwt>
<pdfrwt beam="1">  1        2 0.63609013E-01 0.13075806E+03</pdfrwt>
<pdfrwt beam="2">  1       -2 0.48966040E-02 0.13075806E+03</pdfrwt>
<totfact> 0.14633737E+04</totfact>
</mgrwt>
</event>
<event>
 7    1  0.7800420E-006  0.1172802E+03  0.7546771E-02  0.1255037E+00
         -2   -1    0    0    0  501 -0.00000000000E+00  0.00000000000E+00  0.40664488921E+02  0.40664488921E+02  0.00000000000E+00 0.  1.
          2   -1    0    0  501    0  0.00000000000E+00 -0.00000000000E+00 -0.38191068364E+03  0.38191068364E+03  0.00000000000E+00 0. -1.
         23    2    1    2    0    0 -0.56367088170E+01  0.18866104183E+02 -0.28168669137E+03  0.30512624592E+03  0.11561544655E+03 0.  0.
          5    1    3    3  502    0 -0.43641618220E+02  0.30890803184E+02 -0.24479306398E+03  0.25060839318E+03  0.47000000000E+01 0. -1.
         -5    1    3    3    0  502  0.38004909403E+02 -0.12024699002E+02 -0.36893627394E+02  0.54517852737E+02  0.47000000000E+01 0.  1.
        -11    1    1    2    0    0  0.17051041895E+02 -0.58003825999E+02 -0.35790258709E+02  0.70257558160E+02  0.00000000000E+00 0.  1.
         11    1    1    2    0    0 -0.11414333078E+02  0.39137721816E+02 -0.23769244642E+02  0.47191368484E+02  0.00000000000E+00 0. -1.
<mgrwt>
<rscale>  0 0.11304270E+03</rscale>
<asrwt>0</asrwt>
<pdfrwt beam="2">  1        2 0.58755489E-01 0.11728015E+03</pdfrwt>
<pdfrwt beam="1">  1       -2 0.62560753E-02 0.11728015E+03</pdfrwt>
<totfact> 0.10914374E+04</totfact>
</mgrwt>
</event>
<event>
 7    1  0.7800420E-006  0.1291179E+03  0.7546771E-02  0.1238149E+00
          2   -1    0    0  501    0  0.00000000000E+00  0.00000000000E+00  0.94211753179E+03  0.94211753179E+03  0.00000000000E+00 0. -1.
         -2   -1    0    0    0  501 -0.00000000000E+00 -0.00000000000E+00 -0.16320095012E+02  0.16320095012E+02  0.00000000000E+00 0.  1.
         23    2    1    2    0    0 -0.26689054303E+02 -0.18348682265E+02  0.65186735236E+03  0.66453177446E+03  0.12498981730E+03 0.  0.
          5    1    3    3  502    0 -0.72716787906E+02 -0.32936123069E+02  0.43697097650E+03  0.44422769359E+03  0.47000000000E+01 0. -1.
         -5    1    3    3    0  502  0.46027733603E+02  0.14587440804E+02  0.21489637586E+03  0.22030408087E+03  0.47000000000E+01 0. -1.
        -11    1    1    2    0    0  0.49676300787E+02 -0.17208035501E+02  0.82331959261E+02  0.97685223352E+02  0.00000000000E+00 0.  1.
         11    1    1    2    0    0 -0.22987246483E+02  0.35556717766E+02  0.19159812516E+03  0.19622062899E+03  0.00000000000E+00 0. -1.
<mgrwt>
<rscale>  0 0.12304973E+03</rscale>
<asrwt>0</asrwt>
<pdfrwt beam="1">  1        2 0.14494112E+00 0.12911791E+03</pdfrwt>
<pdfrwt beam="2">  1       -2 0.25107846E-02 0.12911791E+03</pdfrwt>
<totfact> 0.15024658E+04</totfact>
</mgrwt>
</event>
<event>
 7    1  0.7800420E-006  0.2354752E+03  0.7546771E-02  0.1125612E+00
          4   -1    0    0  501    0  0.00000000000E+00  0.00000000000E+00  0.12674524217E+04  0.12674524217E+04  0.00000000000E+00 0. -1.
         -4   -1    0    0    0  501 -0.00000000000E+00 -0.00000000000E+00 -0.41112702237E+02  0.41112702237E+02  0.00000000000E+00 0.  1.
         23    2    1    2    0    0  0.14626219788E+03  0.13576017265E+03  0.58626283896E+03  0.63178533356E+03  0.12500054537E+03 0.  0.
          5    1    3    3  502    0  0.15515030783E+03  0.14167633759E+03  0.46886822538E+03  0.51381251972E+03  0.47000000000E+01 0.  1.
         -5    1    3    3    0  502 -0.88881099477E+01 -0.59161649412E+01  0.11739461358E+03  0.11797281384E+03  0.47000000000E+01 0.  1.
        -11    1    1    2    0    0 -0.98891837149E+02 -0.32373925791E+02  0.35236551469E+03  0.36740865868E+03  0.00000000000E+00 0.  1.
         11    1    1    2    0    0 -0.47370360732E+02 -0.10338624686E+03  0.28771136581E+03  0.30937113171E+03  0.00000000000E+00 0. -1.
<mgrwt>
<rscale>  0 0.23146686E+03</rscale>
<asrwt>0</asrwt>
<pdfrwt beam="1">  1        4 0.19499265E+00 0.23547525E+03</pdfrwt>
<pdfrwt beam="2">  1       -4 0.63250321E-02 0.23547525E+03</pdfrwt>
<totfact> 0.45941120E+01</totfact>
</mgrwt>
</event>
<event>
 7    1  0.7800420E-006  0.1419124E+03  0.7546771E-02  0.1221661E+00
         -2   -1    0    0    0  501 -0.00000000000E+00  0.00000000000E+00  0.36947972245E+02  0.36947972245E+02  0.00000000000E+00 0.  1.
          2   -1    0    0  501    0  0.00000000000E+00 -0.00000000000E+00 -0.44597991386E+03  0.44597991386E+03  0.00000000000E+00 0. -1.
         23    2    1    2    0    0  0.24448276513E+02 -0.62578186160E+02 -0.25790428310E+03  0.29437007379E+03  0.12500149398E+03 0.  0.
          5    1    3    3  502    0  0.19844606971E+02 -0.24967339730E+02 -0.25394539547E+03  0.25598345720E+03  0.47000000000E+01 0. -1.
         -5    1    3    3    0  502  0.46036695427E+01 -0.37610846430E+02 -0.39588876321E+01  0.38386616597E+02  0.47000000000E+01 0. -1.
        -11    1    1    2    0    0 -0.29916854956E+02 -0.71832391413E+01 -0.91795212578E+02  0.96814142496E+02  0.00000000000E+00 0. -1.
         11    1    1    2    0    0  0.54685784427E+01  0.69761425301E+02 -0.59332445936E+02  0.91743669814E+02  0.00000000000E+00 0.  1.
<mgrwt>
<rscale>  0 0.13398387E+03</rscale>
<asrwt>0</asrwt>
<pdfrwt beam="2">  1        2 0.68612293E-01 0.14191237E+03</pdfrwt>
<pdfrwt beam="1">  1       -2 0.56843036E-02 0.14191237E+03</pdfrwt>
<totfact> 0.10842319E+04</totfact>
</mgrwt>
</event>
<event>
 7    1  0.1792247E-005  0.1448410E+03  0.7546771E-02  0.1217068E+00
          1   -1    0    0  501    0  0.00000000000E+00  0.00000000000E+00  0.10946154606E+04  0.10946154606E+04  0.00000000000E+00 0. -1.
         -1   -1    0    0    0  501 -0.00000000000E+00 -0.00000000000E+00 -0.17717582211E+02  0.17717582211E+02  0.00000000000E+00 0.  1.
         23    2    1    2    0    0 -0.70217734947E+02 -0.20577189200E+02  0.77904986613E+03  0.79239989705E+03  0.12499980763E+03 0.  0.
          5    1    3    3  502    0 -0.25649059451E+02  0.49979721075E+02  0.21863298442E+03  0.22578378739E+03  0.47000000000E+01 0.  1.
         -5    1    3    3    0  502 -0.44568675496E+02 -0.70556910275E+02  0.56041688171E+03  0.56661610966E+03  0.47000000000E+01 0.  1.
        -11    1    1    2    0    0  0.48613860417E+02 -0.22527811611E+02  0.76517205726E+02  0.93411415217E+02  0.00000000000E+00 0.  1.
         11    1    1    2    0    0  0.21603874530E+02  0.43105000812E+02  0.22133080656E+03  0.22652173057E+03  0.00000000000E+00 0. -1.
<mgrwt>
<rscale>  0 0.13725728E+03</rscale>
<asrwt>0</asrwt>
<pdfrwt beam="1">  1        1 0.16840233E+00 0.14484096E+03</pdfrwt>
<pdfrwt beam="2">  1       -1 0.27257827E-02 0.14484096E+03</pdfrwt>
<totfact> 0.57873662E+03</totfact>
</mgrwt>
</event>
<event>
 6    1  0.7800420E-006  0.1713647E+03  0.7546771E-02  0.1200212E+00
         -1   -1    0    0    0  501 -0.00000000000E+00  0.00000000000E+00  0.44851279691E+02  0.44851279691E+02  0.00000000000E+00 0.  1.
          1   -1    0    0  501    0  0.00000000000E+00 -0.00000000000E+00 -0.14993279170E+04  0.14993279170E+04  0.00000000000E+00 0. -1.
          5    1    1    2  502    0  0.19449966757E+02  0.57491755190E+02 -0.11398394460E+04  0.11414638215E+04  0.47000000000E+01 0. -1.
         -5    1    1    2    0  502  0.20541026721E+02 -0.67987713860E+02 -0.28997282736E+03  0.29858096661E+03  0.47000000000E+01 0.  1.
        -11    1    1    2    0    0 -0.93110063509E+00  0.47328404614E+02 -0.14356727846E+02  0.49466761226E+02  0.00000000000E+00 0. -1.
         11    1    1    2    0    0 -0.39059892843E+02 -0.36832445944E+02 -0.10307636069E+02  0.54667647329E+02  0.00000000000E+00 0.  1.
<mgrwt>
<rscale>  0 0.15021226E+03</rscale>
<asrwt>0</asrwt>
<pdfrwt beam="2">  1        1 0.23066579E+00 0.17136468E+03</pdfrwt>
<pdfrwt beam="1">  1       -1 0.69001983E-02 0.17136468E+03</pdfrwt>
<totfact> 0.78233409E+02</totfact>
</mgrwt>
</event>
<event>
 7    1  0.7800420E-006  0.1388426E+03  0.7546771E-02  0.1226164E+00
          2   -1    0    0  501    0  0.00000000000E+00  0.00000000000E+00  0.15587500509E+03  0.15587500509E+03  0.00000000000E+00 0. -1.
         -2   -1    0    0    0  501 -0.00000000000E+00 -0.00000000000E+00 -0.10052852623E+03  0.10052852623E+03  0.00000000000E+00 0.  1.
         23    2    1    2    0    0 -0.57821130253E+02  0.16983366929E+02  0.46561051543E+02  0.14644180905E+03  0.12508218922E+03 0.  0.
          5    1    3    3  502    0 -0.80065928705E+02 -0.96976941273E+01 -0.84317295352E+01  0.81226733738E+02  0.47000000000E+01 0.  1.
         -5    1    3    3    0  502  0.22244798452E+02  0.26681061056E+02  0.54992781079E+02  0.65215075312E+02  0.47000000000E+01 0.  1.
        -11    1    1    2    0    0  0.22528406649E+01 -0.30564054432E+02 -0.28360171905E+02  0.41755671051E+02  0.00000000000E+00 0.  1.
         11    1    1    2    0    0  0.55568289588E+02  0.13580687503E+02  0.37145599220E+02  0.68206051214E+02  0.00000000000E+00 0. -1.
<mgrwt>
<rscale>  0 0.13087444E+03</rscale>
<asrwt>0</asrwt>
<pdfrwt beam="1">  1        2 0.23980770E-01 0.13884262E+03</pdfrwt>
<pdfrwt beam="2">  1       -2 0.15465927E-01 0.13884262E+03</pdfrwt>
<totfact> 0.69678881E+03</totfact>
</mgrwt>
</event>
<event>
 7    1  0.7800420E-006  0.1610133E+03  0.7546771E-02  0.1193984E+00
          1   -1    0    0  501    0  0.00000000000E+00  0.00000000000E+00  0.21814157600E+03  0.21814157600E+03  0.00000000000E+00 0. -1.
         -1   -1    0    0    0  501 -0.00000000000E+00 -0.00000000000E+00 -0.11305658031E+03  0.11305658031E+03  0.00000000000E+00 0.  1.
         23    2    1    2    0    0  0.10112375214E+03 -0.85897069014E+01  0.10360016307E+03  0.19146347905E+03  0.12500189482E+03 0.  0.
          5    1    3    3  502    0  0.74240846204E+02  0.43070009937E+02  0.10149001683E+03  0.13300015984E+03  0.47000000000E+01 0.  1.
         -5    1    3    3    0  502  0.26882905937E+02 -0.51659716838E+02  0.21101462339E+01  0.58463319205E+02  0.47000000000E+01 0.  1.
        -11    1    1    2    0    0 -0.38692050977E+02 -0.38551902236E+02  0.21959682543E+02  0.58868936055E+02  0.00000000000E+00 0. -1.
         11    1    1    2    0    0 -0.62431701164E+02  0.47141609137E+02 -0.20474849926E+02  0.80865741212E+02  0.00000000000E+00 0.  1.
<mgrwt>
<rscale>  0 0.15540542E+03</rscale>
<asrwt>0</asrwt>
<pdfrwt beam="1">  1        1 0.33560242E-01 0.16101326E+03</pdfrwt>
<pdfrwt beam="2">  1       -1 0.17393320E-01 0.16101326E+03</pdfrwt>
<totfact> 0.32384740E+03</totfact>
</mgrwt>
</event>
<event>
 7    1  0.7800420E-006  0.1306778E+03  0.7546771E-02  0.1239523E+00
         -4   -1    0    0    0  501 -0.00000000000E+00  0.00000000000E+00  0.37498446476E+02  0.37498446476E+02  0.00000000000E+00 0.  1.
          4   -1    0    0  501    0  0.00000000000E+00 -0.00000000000E+00 -0.35754467825E+03  0.35754467825E+03  0.00000000000E+00 0. -1.
         23    2    1    2    0    0  0.30972852338E+01 -0.37982007047E+02 -0.19937885839E+03  0.23838754078E+03  0.12499785754E+03 0.  0.
          5    1    3    3  502    0  0.37903108420E+02 -0.68622636400E+01 -0.58409258272E+01  0.39242103724E+02  0.47000000000E+01 0.  1.
         -5    1    3    3    0  502 -0.34805823187E+02 -0.31119743407E+02 -0.19353793256E+03  0.19914543705E+03  0.47000000000E+01 0.  1.
        -11    1    1    2    0    0  0.22449462818E+02  0.17847260561E+02  0.29496996373E+01  0.28830605583E+02  0.00000000000E+00 0.  1.
         11    1    1    2    0    0 -0.25546748052E+02  0.20134746486E+02 -0.12361707302E+03  0.12782497836E+03  0.00000000000E+00 0. -1.
<mgrwt>
<rscale>  0 0.12219253E+03</rscale>
<asrwt>0</asrwt>
<pdfrwt beam="2">  1        4 0.55006873E-01 0.13067781E+03</pdfrwt>
<pdfrwt beam="1">  1       -4 0.57689918E-02 0.13067781E+03</pdfrwt>
<totfact> 0.98824294E+02</totfact>
</mgrwt>
</event>
<event>
 7    1  0.7800420E-006  0.1318619E+03  0.7546771E-02  0.1237761E+00
          2   -1    0    0  501    0  0.00000000000E+00  0.00000000000E+00  0.86853728954E+03  0.86853728954E+03  0.00000000000E+00 0. -1.
         -2   -1    0    0    0  501 -0.00000000000E+00 -0.00000000000E+00 -0.18246963029E+02  0.18246963029E+02  0.00000000000E+00 0.  1.
         23    2    1    2    0    0 -0.41702709841E+02  0.48590322250E+01  0.64186793581E+03  0.65527245956E+03  0.12499929215E+03 0.  0.
          5    1    3    3  502    0 -0.31283409328E+02  0.49430456128E+02  0.54367204245E+03  0.54683032234E+03  0.47000000000E+01 0.  1.
         -5    1    3    3    0  502 -0.10419300513E+02 -0.44571423903E+02  0.98195893356E+02  0.10844213722E+03  0.47000000000E+01 0.  1.
        -11    1    1    2    0    0  0.60478552891E+00  0.39897129365E+02  0.77114687737E+02  0.86826388627E+02  0.00000000000E+00 0.  1.
         11    1    1    2    0    0  0.41097924312E+02 -0.44756161590E+02  0.13130770297E+03  0.14468540438E+03  0.00000000000E+00 0. -1.
<mgrwt>
<rscale>  0 0.12329329E+03</rscale>
<asrwt>0</asrwt>
<pdfrwt beam="1">  1        2 0.13362109E+00 0.13186186E+03</pdfrwt>
<pdfrwt beam="2">  1       -2 0.28072258E-02 0.13186186E+03</pdfrwt>
<totfact> 0.14215050E+04</totfact>
</mgrwt>
</event>
<event>
 7    1  0.7800420E-006  0.2190889E+03  0.7546771E-02  0.1138091E+00
          1   -1    0    0  501    0  0.00000000000E+00  0.00000000000E+00  0.52335143442E+03  0.52335143442E+03  0.00000000000E+00 0. -1.
         -1   -1    0    0    0  501 -0.00000000000E+00 -0.00000000000E+00 -0.10004910894E+03  0.10004910894E+03  0.00000000000E+00 0.  1.
         23    2    1    2    0    0  0.11390010613E+02 -0.17956395176E+03  0.34268990137E+03  0.40673861059E+03  0.12500793466E+03 0.  0.
          5    1    3    3  502    0 -0.77092585729E+01 -0.24807421049E+02  0.17779213783E+03  0.17974141170E+03  0.47000000000E+01 0.  1.
         -5    1    3    3    0  502  0.19099269186E+02 -0.15475653071E+03  0.16489776355E+03  0.22699719889E+03  0.47000000000E+01 0.  1.
        -11    1    1    2    0    0 -0.46932095334E+02  0.66454134849E+02  0.21335457102E+02  0.84106928019E+02  0.00000000000E+00 0.  1.
         11    1    1    2    0    0  0.35542084720E+02  0.11310981691E+03  0.59276966997E+02  0.13255500475E+03  0.00000000000E+00 0. -1.
<mgrwt>
<rscale>  0 0.21444801E+03</rscale>
<asrwt>0</asrwt>
<pdfrwt beam="1">  1        1 0.80515604E-01 0.21908886E+03</pdfrwt>
<pdfrwt beam="2">  1       -1 0.15392171E-01 0.21908886E+03</pdfrwt>
<totfact> 0.13072573E+03</totfact>
</mgrwt>
</event>
<event>
 7    1  0.7800420E-006  0.1322966E+03  0.7546771E-02  0.1235145E+00
          1   -1    0    0  501    0  0.00000000000E+00  0.00000000000E+00  0.19438406962E+03  0.19438406962E+03  0.00000000000E+00 0. -1.
         -1   -1    0    0    0  501 -0.00000000000E+00 -0.00000000000E+00 -0.73688092723E+02  0.73688092723E+02  0.00000000000E+00 0.  1.
         23    2    1    2    0    0 -0.25065739652E+02  0.36001792913E+02  0.83381510373E+02  0.15638050823E+03  0.12481172495E+03 0.  0.
          5    1    3    3  502    0  0.77431640496E+01  0.62314210137E+02  0.10595971578E+00  0.62969187719E+02  0.47000000000E+01 0. -1.
         -5    1    3    3    0  502 -0.32808903702E+02 -0.26312417224E+02  0.83275550657E+02  0.93411320510E+02  0.47000000000E+01 0. -1.
        -11    1    1    2    0    0  0.22876214234E+02 -0.70465731436E+01  0.66405672274E+02  0.70588162470E+02  0.00000000000E+00 0. -1.
         11    1    1    2    0    0  0.21895254179E+01 -0.28955219770E+02 -0.29091205748E+02  0.41103491645E+02  0.00000000000E+00 0.  1.
<mgrwt>
<rscale>  0 0.12495164E+03</rscale>
<asrwt>0</asrwt>
<pdfrwt beam="1">  1        1 0.29905241E-01 0.13229659E+03</pdfrwt>
<pdfrwt beam="2">  1       -1 0.11336630E-01 0.13229659E+03</pdfrwt>
<totfact> 0.72160023E+03</totfact>
</mgrwt>
</event>
<event>
 7    1  0.7800420E-006  0.1521104E+03  0.7546771E-02  0.1206640E+00
         -4   -1    0    0    0  501 -0.00000000000E+00  0.00000000000E+00  0.18982563578E+03  0.18982563578E+03  0.00000000000E+00 0.  1.
          4   -1    0    0  501    0  0.00000000000E+00 -0.00000000000E+00 -0.10807667064E+03  0.10807667064E+03  0.00000000000E+00 0. -1.
         23    2    1    2    0    0  0.48342014036E+02 -0.72050541147E+02  0.87583386535E+01  0.15236237869E+03  0.12493740490E+03 0.  0.
          5    1    3    3  502    0 -0.40997712839E+02 -0.10502412646E+02 -0.51216322564E+01  0.42888626072E+02  0.47000000000E+01 0. -1.
         -5    1    3    3    0  502  0.89339726875E+02 -0.61548128500E+02  0.13879970910E+02  0.10947375262E+03  0.47000000000E+01 0. -1.
        -11    1    1    2    0    0 -0.40529930328E+02  0.20182412329E+02  0.80689699831E+02  0.92524767920E+02  0.00000000000E+00 0.  1.
         11    1    1    2    0    0 -0.78120837084E+01  0.51868128818E+02 -0.76990733470E+01  0.53015159807E+02  0.00000000000E+00 0. -1.
<mgrwt>
<rscale>  0 0.14508999E+03</rscale>
<asrwt>0</asrwt>
<pdfrwt beam="2">  1        4 0.16627180E-01 0.15211044E+03</pdfrwt>
<pdfrwt beam="1">  1       -4 0.29203944E-01 0.15211044E+03</pdfrwt>
<totfact> 0.59558061E+02</totfact>
</mgrwt>
</event>
<event>
 7    1  0.7800420E-006  0.1348817E+03  0.7546771E-02  0.1232580E+00
         -1   -1    0    0    0  501 -0.00000000000E+00  0.00000000000E+00  0.11448607961E+03  0.11448607961E+03  0.00000000000E+00 0. -1.
          1   -1    0    0  501    0  0.00000000000E+00 -0.00000000000E+00 -0.12786032317E+03  0.12786032317E+03  0.00000000000E+00 0.  1.
         23    2    1    2    0    0  0.47688607713E+02 -0.17168776665E+02 -0.24376714816E+02  0.13706677221E+03  0.12499642243E+03 0.  0.
          5    1    3    3  502    0  0.18815192427E+02 -0.55373168425E+02  0.28793973871E+02  0.65355812127E+02  0.47000000000E+01 0.  1.
         -5    1    3    3    0  502  0.28873415286E+02  0.38204391760E+02 -0.53170688687E+02  0.71710960079E+02  0.47000000000E+01 0.  1.
        -11    1    1    2    0    0 -0.59485447173E+02  0.26651590206E+02 -0.22143371383E+02  0.68841517866E+02  0.00000000000E+00 0.  1.
         11    1    1    2    0    0  0.11796839460E+02 -0.94828135413E+01  0.33145842635E+02  0.36438112711E+02  0.00000000000E+00 0. -1.
<mgrwt>
<rscale>  0 0.12660613E+03</rscale>
<asrwt>0</asrwt>
<pdfrwt beam="2">  1        1 0.19670819E-01 0.13488171E+03</pdfrwt>
<pdfrwt beam="1">  1       -1 0.17613243E-01 0.13488171E+03</pdfrwt>
<totfact> 0.61510980E+03</totfact>
</mgrwt>
</event>
<event>
 7    1  0.7800420E-006  0.1336578E+03  0.7546771E-02  0.1235683E+00
         -1   -1    0    0    0  501 -0.00000000000E+00  0.00000000000E+00  0.10387598514E+03  0.10387598514E+03  0.00000000000E+00 0. -1.
          1   -1    0    0  501    0  0.00000000000E+00 -0.00000000000E+00 -0.17481522998E+03  0.17481522998E+03  0.00000000000E+00 0.  1.
         23    2    1    2    0    0 -0.38830974986E+02  0.27056399547E+02 -0.10727106034E+03  0.17138111082E+03  0.12499804553E+03 0.  0.
          5    1    3    3  502    0 -0.79098638718E+02  0.27021681510E+02 -0.39872371370E+02  0.92728970216E+02  0.47000000000E+01 0. -1.
         -5    1    3    3    0  502  0.40267663732E+02  0.34718037393E-01 -0.67398688966E+02  0.78652140607E+02  0.47000000000E+01 0. -1.
        -11    1    1    2    0    0  0.56564779640E+02 -0.47532456960E+02  0.26493819942E+02  0.78490962891E+02  0.00000000000E+00 0. -1.
         11    1    1    2    0    0 -0.17733804654E+02  0.20476057413E+02  0.98379955555E+01  0.28819141403E+02  0.00000000000E+00 0.  1.
<mgrwt>
<rscale>  0 0.12460818E+03</rscale>
<asrwt>0</asrwt>
<pdfrwt beam="2">  1        1 0.26894650E-01 0.13365779E+03</pdfrwt>
<pdfrwt beam="1">  1       -1 0.15980921E-01 0.13365779E+03</pdfrwt>
<totfact> 0.48329684E+03</totfact>
</mgrwt>
</event>
<event>
 7    1  0.7800420E-006  0.2433055E+03  0.7546771E-02  0.1120451E+00
         -2   -1    0    0    0  501 -0.00000000000E+00  0.00000000000E+00  0.23118119223E+02  0.23118119223E+02  0.00000000000E+00 0.  1.
          2   -1    0    0  501    0  0.00000000000E+00 -0.00000000000E+00 -0.27765452226E+04  0.27765452226E+04  0.00000000000E+00 0. -1.
         23    2    1    2    0    0 -0.19298032936E+03  0.79608261148E+02 -0.19423449944E+04  0.19575243647E+04  0.12497471165E+03 0.  0.
          5    1    3    3  502    0 -0.15747532324E+03  0.43476810135E+02 -0.95609545926E+03  0.96996357028E+03  0.47000000000E+01 0. -1.
         -5    1    3    3    0  502 -0.35505006119E+02  0.36131451014E+02 -0.98624953509E+03  0.98756079442E+03  0.47000000000E+01 0. -1.
        -11    1    1    2    0    0  0.13023949140E+03 -0.28548476920E+02 -0.62775829046E+03  0.64176149144E+03  0.00000000000E+00 0. -1.
         11    1    1    2    0    0  0.62740837964E+02 -0.51059784229E+02 -0.18332381852E+03  0.20037748564E+03  0.00000000000E+00 0.  1.
<mgrwt>
<rscale>  0 0.23901492E+03</rscale>
<asrwt>0</asrwt>
<pdfrwt beam="2">  1        2 0.42716089E+00 0.24330549E+03</pdfrwt>
<pdfrwt beam="1">  1       -2 0.35566330E-02 0.24330549E+03</pdfrwt>
<totfact> 0.92652911E+02</totfact>
</mgrwt>
</event>
<event>
 7    1  0.7800420E-006  0.1596080E+03  0.7546771E-02  0.1199319E+00
         -2   -1    0    0    0  501 -0.00000000000E+00  0.00000000000E+00  0.11263369725E+02  0.11263369725E+02  0.00000000000E+00 0.  1.
          2   -1    0    0  501    0  0.00000000000E+00 -0.00000000000E+00 -0.22024046272E+04  0.22024046272E+04  0.00000000000E+00 0. -1.
         23    2    1    2    0    0  0.79787676312E+02 -0.59009317685E+02 -0.16485651141E+04  0.16562734241E+04  0.12500618853E+03 0.  0.
          5    1    3    3  502    0  0.47321259315E+02 -0.32691342482E+02 -0.15181129247E+04  0.15192093232E+04  0.47000000000E+01 0.  1.
         -5    1    3    3    0  502  0.32466416997E+02 -0.26317975203E+02 -0.13045218933E+03  0.13706410089E+03  0.47000000000E+01 0.  1.
        -11    1    1    2    0    0 -0.35885926352E+02 -0.97081473053E+01 -0.87495010181E+02  0.95065370356E+02  0.00000000000E+00 0.  1.
         11    1    1    2    0    0 -0.43901749959E+02  0.68717464991E+02 -0.45508113321E+03  0.46232920246E+03  0.00000000000E+00 0. -1.
<mgrwt>
<rscale>  0 0.15094334E+03</rscale>
<asrwt>0</asrwt>
<pdfrwt beam="2">  1        2 0.33883126E+00 0.15960802E+03</pdfrwt>
<pdfrwt beam="1">  1       -2 0.17328273E-02 0.15960802E+03</pdfrwt>
<totfact> 0.55251686E+03</totfact>
</mgrwt>
</event>
<event>
 7    1  0.7800420E-006  0.2410279E+03  0.7546771E-02  0.1121666E+00
         -1   -1    0    0    0  501 -0.00000000000E+00  0.00000000000E+00  0.11072881307E+03  0.11072881307E+03  0.00000000000E+00 0.  1.
          1   -1    0    0  501    0  0.00000000000E+00 -0.00000000000E+00 -0.51361161722E+03  0.51361161722E+03  0.00000000000E+00 0. -1.
         23    2    1    2    0    0  0.16694966381E+03  0.12080627624E+03 -0.27058883630E+03  0.36237100339E+03  0.12501231596E+03 0.  0.
          5    1    3    3  502    0  0.24462729838E+02  0.22104358257E+02  0.79780895223E+01  0.34245696335E+02  0.47000000000E+01 0. -1.
         -5    1    3    3    0  502  0.14248693397E+03  0.98701917986E+02 -0.27856692582E+03  0.32812530705E+03  0.47000000000E+01 0. -1.
        -11    1    1    2    0    0 -0.28965131819E+01 -0.41840100205E+02 -0.11549943090E+02  0.43501551227E+02  0.00000000000E+00 0. -1.
         11    1    1    2    0    0 -0.16405315063E+03 -0.78966176038E+02 -0.12074402475E+03  0.21846787568E+03  0.00000000000E+00 0.  1.
<mgrwt>
<rscale>  0 0.23720889E+03</rscale>
<asrwt>0</asrwt>
<pdfrwt beam="2">  1        1 0.79017174E-01 0.24102785E+03</pdfrwt>
<pdfrwt beam="1">  1       -1 0.17035201E-01 0.24102785E+03</pdfrwt>
<totfact> 0.11410206E+03</totfact>
</mgrwt>
</event>
<event>
 7    1  0.1165754E-005  0.1871447E+03  0.7546771E-02  0.1166232E+00
         -1   -1    0    0    0  501 -0.00000000000E+00  0.00000000000E+00  0.20951163787E+02  0.20951163787E+02  0.00000000000E+00 0.  1.
          1   -1    0    0  501    0  0.00000000000E+00 -0.00000000000E+00 -0.15204691589E+04  0.15204691589E+04  0.00000000000E+00 0. -1.
         23    2    1    2    0    0 -0.89040248675E+02  0.10710182249E+03 -0.90504000160E+03  0.92418643138E+03  0.12499675666E+03 0.  0.
          5    1    3    3  502    0 -0.11102367358E+03  0.96373095446E+02 -0.86198489942E+03  0.87444501625E+03  0.47000000000E+01 0.  1.
         -5    1    3    3    0  502  0.21983424906E+02  0.10728727048E+02 -0.43055102185E+02  0.49741415127E+02  0.47000000000E+01 0.  1.
        -11    1    1    2    0    0  0.27913489751E+02 -0.77256852051E+02 -0.18885440206E+03  0.20594603486E+03  0.00000000000E+00 0.  1.
         11    1    1    2    0    0  0.61126758925E+02 -0.29844970442E+02 -0.40562359141E+03  0.41128785641E+03  0.00000000000E+00 0. -1.
<mgrwt>
<rscale>  0 0.18163306E+03</rscale>
<asrwt>0</asrwt>
<pdfrwt beam="2">  1        1 0.23391837E+00 0.18714474E+03</pdfrwt>
<pdfrwt beam="1">  1       -1 0.32232554E-02 0.18714474E+03</pdfrwt>
<totfact> 0.23494634E+03</totfact>
</mgrwt>
</event>
<event>
 7    1  0.7800420E-006  0.1803861E+03  0.7546771E-02  0.1174008E+00
          2   -1    0    0  501    0  0.00000000000E+00  0.00000000000E+00  0.11954494382E+03  0.11954494382E+03  0.00000000000E+00 0. -1.
         -2   -1    0    0    0  501 -0.00000000000E+00 -0.00000000000E+00 -0.26945507440E+03  0.26945507440E+03  0.00000000000E+00 0.  1.
         23    2    1    2    0    0 -0.12799779728E+03  0.23115755128E+02 -0.11032303287E+02  0.18072310176E+03  0.12498541335E+03 0.  0.
          5    1    3    3  502    0 -0.17264655663E+02 -0.46062004178E+02 -0.78443279168E+01  0.50033988893E+02  0.47000000000E+01 0.  1.
         -5    1    3    3    0  502 -0.11073314162E+03  0.69177759306E+02 -0.31879753707E+01  0.13068911287E+03  0.47000000000E+01 0.  1.
        -11    1    1    2    0    0  0.32244256803E+02 -0.48735381107E+01  0.64930401088E+01  0.33250609623E+02  0.00000000000E+00 0. -1.
         11    1    1    2    0    0  0.95753540476E+02 -0.18242217017E+02 -0.14537086740E+03  0.17502630683E+03  0.00000000000E+00 0.  1.
<mgrwt>
<rscale>  0 0.17373480E+03</rscale>
<asrwt>0</asrwt>
<pdfrwt beam="1">  1        2 0.18391530E-01 0.18038605E+03</pdfrwt>
<pdfrwt beam="2">  1       -2 0.41454626E-01 0.18038605E+03</pdfrwt>
<totfact> 0.16759928E+03</totfact>
</mgrwt>
</event>
<event>
 7    1  0.7800420E-006  0.2835117E+03  0.7546771E-02  0.1095602E+00
         -2   -1    0    0    0  501 -0.00000000000E+00  0.00000000000E+00  0.61098799223E+03  0.61098799223E+03  0.00000000000E+00 0.  1.
          2   -1    0    0  501    0  0.00000000000E+00 -0.00000000000E+00 -0.23100081525E+03  0.23100081525E+03  0.00000000000E+00 0. -1.
         23    2    1    2    0    0  0.17668805602E+03 -0.18313445348E+03 -0.91997858039E+02  0.29806460886E+03  0.12498803134E+03 0.  0.
          5    1    3    3  502    0  0.15087917563E+03 -0.69178050718E+02 -0.45016001777E+02  0.17204260738E+03  0.47000000000E+01 0.  1.
         -5    1    3    3    0  502  0.25808880394E+02 -0.11395640276E+03 -0.46981856261E+02  0.12602200148E+03  0.47000000000E+01 0.  1.
        -11    1    1    2    0    0 -0.10191256598E+03  0.50195381698E+02  0.15523068201E+03  0.19235985051E+03  0.00000000000E+00 0.  1.
         11    1    1    2    0    0 -0.74775490039E+02  0.13293907178E+03  0.31675435301E+03  0.35156434812E+03  0.00000000000E+00 0. -1.
<mgrwt>
<rscale>  0 0.28015980E+03</rscale>
<asrwt>0</asrwt>
<pdfrwt beam="2">  1        2 0.35538587E-01 0.28351174E+03</pdfrwt>
<pdfrwt beam="1">  1       -2 0.93998152E-01 0.28351174E+03</pdfrwt>
<totfact> 0.14485448E+02</totfact>
</mgrwt>
</event>
<event>
 7    1  0.7800420E-006  0.1328450E+03  0.7546771E-02  0.1236319E+00
         -2   -1    0    0    0  501 -0.00000000000E+00  0.00000000000E+00  0.67891614056E+02  0.67891614056E+02  0.00000000000E+00 0.  1.
          2   -1    0    0  501    0  0.00000000000E+00 -0.00000000000E+00 -0.20565467929E+03  0.20565467929E+03  0.00000000000E+00 0. -1.
         23    2    1    2    0    0 -0.19907075820E+02 -0.40371692374E+02 -0.95406762243E+02  0.16355504148E+03  0.12498654367E+03 0.  0.
          5    1    3    3  502    0  0.27770704376E+02  0.19015032289E+02 -0.78302727893E+02  0.85359186207E+02  0.47000000000E+01 0.  1.
         -5    1    3    3    0  502 -0.47677780197E+02 -0.59386724663E+02 -0.17104034350E+02  0.78195855272E+02  0.47000000000E+01 0.  1.
        -11    1    1    2    0    0  0.44246511569E+02  0.46434021970E+02 -0.41326644080E+01  0.64272475426E+02  0.00000000000E+00 0.  1.
         11    1    1    2    0    0 -0.24339435748E+02 -0.60623295964E+01 -0.38223638585E+02  0.45718776442E+02  0.00000000000E+00 0. -1.
<mgrwt>
<rscale>  0 0.12420378E+03</rscale>
<asrwt>0</asrwt>
<pdfrwt beam="2">  1        2 0.31639181E-01 0.13284503E+03</pdfrwt>
<pdfrwt beam="1">  1       -2 0.10444864E-01 0.13284503E+03</pdfrwt>
<totfact> 0.96409818E+03</totfact>
</mgrwt>
</event>
<event>
 7    1  0.7800420E-006  0.4404255E+03  0.7546771E-02  0.1030616E+00
          1   -1    0    0  501    0  0.00000000000E+00  0.00000000000E+00  0.62889400889E+02  0.62889400889E+02  0.00000000000E+00 0. -1.
         -1   -1    0    0    0  501 -0.00000000000E+00 -0.00000000000E+00 -0.77109441130E+03  0.77109441130E+03  0.00000000000E+00 0.  1.
         23    2    1    2    0    0 -0.12631338959E+03 -0.10702021774E+02 -0.30965439055E+03  0.35718137793E+03  0.12499235774E+03 0.  0.
          5    1    3    3  502    0 -0.71736031463E+02  0.45695987423E+02 -0.22996685771E+03  0.24523667573E+03  0.47000000000E+01 0.  1.
         -5    1    3    3    0  502 -0.54577358128E+02 -0.56398009197E+02 -0.79687532843E+02  0.11194470221E+03  0.47000000000E+01 0.  1.
        -11    1    1    2    0    0  0.43458565378E+02 -0.94189117536E+02 -0.27830355901E+03  0.29700691528E+03  0.00000000000E+00 0.  1.
         11    1    1    2    0    0  0.82854824213E+02  0.10489113931E+03 -0.12024706085E+03  0.17979551898E+03  0.00000000000E+00 0. -1.
<mgrwt>
<rscale>  0 0.44042555E+03</rscale>
<asrwt>0</asrwt>
<pdfrwt beam="1">  1        1 0.96752924E-02 0.44042555E+03</pdfrwt>
<pdfrwt beam="2">  1       -1 0.11862991E+00 0.44042555E+03</pdfrwt>
<totfact> 0.45537095E+02</totfact>
</mgrwt>
</event>
<event>
 7    1  0.7800420E-006  0.1379713E+03  0.7546771E-02  0.1229973E+00
         -2   -1    0    0    0  501 -0.00000000000E+00  0.00000000000E+00  0.48845084294E+02  0.48845084294E+02  0.00000000000E+00 0.  1.
          2   -1    0    0  501    0  0.00000000000E+00 -0.00000000000E+00 -0.45341877299E+03  0.45341877299E+03  0.00000000000E+00 0. -1.
         23    2    1    2    0    0 -0.32926040897E+02 -0.48266933722E+02 -0.36756371961E+03  0.39260559677E+03  0.12498898185E+03 0.  0.
          5    1    3    3  502    0 -0.31622780118E+02  0.35627874523E+02 -0.82170717775E+02  0.95097121539E+02  0.47000000000E+01 0. -1.
         -5    1    3    3    0  502 -0.13032607791E+01 -0.83894808245E+02 -0.28539300183E+03  0.29750847523E+03  0.47000000000E+01 0. -1.
        -11    1    1    2    0    0  0.42697510359E+01  0.56721377699E+02 -0.51246761354E+02  0.76562236196E+02  0.00000000000E+00 0. -1.
         11    1    1    2    0    0  0.28656289861E+02 -0.84544439773E+01  0.14236792266E+02  0.33096024317E+02  0.00000000000E+00 0.  1.
<mgrwt>
<rscale>  0 0.12831772E+03</rscale>
<asrwt>0</asrwt>
<pdfrwt beam="2">  1        2 0.69756733E-01 0.13797125E+03</pdfrwt>
<pdfrwt beam="1">  1       -2 0.75146285E-02 0.13797125E+03</pdfrwt>
<totfact> 0.69442631E+03</totfact>
</mgrwt>
</event>
<event>
 7    1  0.7800420E-006  0.3066201E+03  0.7546771E-02  0.1083480E+00
          1   -1    0    0  501    0  0.00000000000E+00  0.00000000000E+00  0.33007376156E+03  0.33007376156E+03  0.00000000000E+00 0. -1.
         -1   -1    0    0    0  501 -0.00000000000E+00 -0.00000000000E+00 -0.29034176290E+03  0.29034176290E+03  0.00000000000E+00 0.  1.
         23    2    1    2    0    0 -0.17720723071E+03  0.21676607716E+03  0.94497894683E+02  0.32085155221E+03  0.12500372648E+03 0.  0.
          5    1    3    3  502    0 -0.12395213800E+03  0.15089070079E+03  0.20043794979E+01  0.19534135158E+03  0.47000000000E+01 0. -1.
         -5    1    3    3    0  502 -0.53255092709E+02  0.65875376372E+02  0.92493515185E+02  0.12551020063E+03  0.47000000000E+01 0. -1.
        -11    1    1    2    0    0  0.75513576011E+02 -0.11755332237E+03  0.16375945350E+02  0.14067428816E+03  0.00000000000E+00 0. -1.
         11    1    1    2    0    0  0.10169365470E+03 -0.99212754786E+02 -0.71141841373E+02  0.15888968410E+03  0.00000000000E+00 0.  1.
<mgrwt>
<rscale>  0 0.30354802E+03</rscale>
<asrwt>0</asrwt>
<pdfrwt beam="1">  1        1 0.50780579E-01 0.30662007E+03</pdfrwt>
<pdfrwt beam="2">  1       -1 0.44667964E-01 0.30662007E+03</pdfrwt>
<totfact> 0.39396822E+02</totfact>
</mgrwt>
</event>
<event>
 7    1  0.7800420E-006  0.1853991E+03  0.7546771E-02  0.1168218E+00
          1   -1    0    0  501    0  0.00000000000E+00  0.00000000000E+00  0.81025773684E+02  0.81025773684E+02  0.00000000000E+00 0. -1.
         -1   -1    0    0    0  501 -0.00000000000E+00 -0.00000000000E+00 -0.37744162871E+03  0.37744162871E+03  0.00000000000E+00 0.  1.
         23    2    1    2    0    0  0.11443178843E+03  0.75191690486E+02 -0.13873889285E+03  0.23156272147E+03  0.12499755624E+03 0.  0.
          5    1    3    3  502    0 -0.33112760382E+01 -0.23398359298E+02 -0.46469455239E+02  0.52344512960E+02  0.47000000000E+01 0.  1.
         -5    1    3    3    0  502  0.11774306447E+03  0.98590049784E+02 -0.92269437608E+02  0.17921820851E+03  0.47000000000E+01 0.  1.
        -11    1    1    2    0    0 -0.85080649123E+02 -0.35285623245E+02 -0.42327077604E+02  0.10136751729E+03  0.00000000000E+00 0.  1.
         11    1    1    2    0    0 -0.29351139305E+02 -0.39906067241E+02 -0.11534988458E+03  0.12553716363E+03  0.00000000000E+00 0. -1.
<mgrwt>
<rscale>  0 0.17957225E+03</rscale>
<asrwt>0</asrwt>
<pdfrwt beam="1">  1        1 0.12465504E-01 0.18539907E+03</pdfrwt>
<pdfrwt beam="2">  1       -1 0.58067943E-01 0.18539907E+03</pdfrwt>
<totfact> 0.14594710E+03</totfact>
</mgrwt>
</event>
<event>
 7    1  0.7800420E-006  0.1477221E+03  0.7546771E-02  0.1213347E+00
          1   -1    0    0  501    0  0.00000000000E+00  0.00000000000E+00  0.15731374399E+04  0.15731374399E+04  0.00000000000E+00 0. -1.
         -1   -1    0    0    0  501 -0.00000000000E+00 -0.00000000000E+00 -0.15237960587E+02  0.15237960587E+02  0.00000000000E+00 0.  1.
         23    2    1    2    0    0  0.55082811103E+02 -0.56244659513E+02  0.12421219557E+04  0.12508751993E+04  0.12499693469E+03 0.  0.
          5    1    3    3  502    0  0.89707598471E+02 -0.11545580132E+02  0.80859140051E+03  0.81364789474E+03  0.47000000000E+01 0.  1.
         -5    1    3    3    0  502 -0.34624787368E+02 -0.44699079381E+02  0.43353055516E+03  0.43722730457E+03  0.47000000000E+01 0.  1.
        -11    1    1    2    0    0 -0.70893824828E+02  0.66883937791E+02  0.23312278876E+03  0.25267692846E+03  0.00000000000E+00 0.  1.
         11    1    1    2    0    0  0.15811013725E+02 -0.10639278279E+02  0.82654734850E+02  0.84823272694E+02  0.00000000000E+00 0. -1.
<mgrwt>
<rscale>  0 0.13998627E+03</rscale>
<asrwt>0</asrwt>
<pdfrwt beam="1">  1        1 0.24202102E+00 0.14772208E+03</pdfrwt>
<pdfrwt beam="2">  1       -1 0.23443029E-02 0.14772208E+03</pdfrwt>
<totfact> 0.34476461E+03</totfact>
</mgrwt>
</event>
<event>
 7    1  0.7800420E-006  0.1331047E+03  0.7546771E-02  0.1233695E+00
          2   -1    0    0  501    0  0.00000000000E+00  0.00000000000E+00  0.14680578073E+03  0.14680578073E+03  0.00000000000E+00 0. -1.
         -2   -1    0    0    0  501 -0.00000000000E+00 -0.00000000000E+00 -0.98231083218E+02  0.98231083218E+02  0.00000000000E+00 0.  1.
         23    2    1    2    0    0 -0.18454864396E+02 -0.41861925941E+02  0.35452934455E+02  0.13774531080E+03  0.12499542880E+03 0.  0.
          5    1    3    3  502    0  0.41307990913E+02 -0.54427894299E+02  0.33010381369E+01  0.68569181443E+02  0.47000000000E+01 0.  1.
         -5    1    3    3    0  502 -0.59762855309E+02  0.12565968358E+02  0.32151896319E+02  0.69176129353E+02  0.47000000000E+01 0.  1.
        -11    1    1    2    0    0 -0.27746496707E+02  0.24710346354E+02 -0.25173417953E+02  0.44879508329E+02  0.00000000000E+00 0.  1.
         11    1    1    2    0    0  0.46201361103E+02  0.17151579587E+02  0.38295181006E+02  0.62412044818E+02  0.00000000000E+00 0. -1.
<mgrwt>
<rscale>  0 0.12588335E+03</rscale>
<asrwt>0</asrwt>
<pdfrwt beam="1">  1        2 0.22585505E-01 0.13310470E+03</pdfrwt>
<pdfrwt beam="2">  1       -2 0.15112474E-01 0.13310470E+03</pdfrwt>
<totfact> 0.77123157E+03</totfact>
</mgrwt>
</event>
<event>
 7    1  0.7800420E-006  0.1841295E+03  0.7546771E-02  0.1169113E+00
          2   -1    0    0  501    0  0.00000000000E+00  0.00000000000E+00  0.24079611850E+04  0.24079611850E+04  0.00000000000E+00 0. -1.
         -2   -1    0    0    0  501 -0.00000000000E+00 -0.00000000000E+00 -0.13118625338E+02  0.13118625338E+02  0.00000000000E+00 0.  1.
         23    2    1    2    0    0 -0.87550590072E+02 -0.10302426180E+03  0.15237276811E+04  0.15348126036E+04  0.12499831061E+03 0.  0.
          5    1    3    3  502    0 -0.57335616346E+02 -0.10561249118E+03  0.68178202780E+03  0.69230787560E+03  0.47000000000E+01 0.  1.
         -5    1    3    3    0  502 -0.30214973726E+02  0.25882293847E+01  0.84194565333E+03  0.84250472801E+03  0.47000000000E+01 0.  1.
        -11    1    1    2    0    0  0.10475833416E+03  0.70413557176E+02  0.68598788408E+03  0.69750394602E+03  0.00000000000E+00 0.  1.
         11    1    1    2    0    0 -0.17207744091E+02  0.32610704620E+02  0.18512699442E+03  0.18876326066E+03  0.00000000000E+00 0. -1.
<mgrwt>
<rscale>  0 0.17865319E+03</rscale>
<asrwt>0</asrwt>
<pdfrwt beam="1">  1        2 0.37045522E+00 0.18412953E+03</pdfrwt>
<pdfrwt beam="2">  1       -2 0.20182520E-02 0.18412953E+03</pdfrwt>
<totfact> 0.34467352E+03</totfact>
</mgrwt>
</event>
<event>
 7    1  0.7800420E-006  0.1304585E+03  0.7546771E-02  0.1238659E+00
         -2   -1    0    0    0  501 -0.00000000000E+00  0.00000000000E+00  0.55477836016E+02  0.55477836016E+02  0.00000000000E+00 0.  1.
          2   -1    0    0  501    0  0.00000000000E+00 -0.00000000000E+00 -0.40454842042E+03  0.40454842042E+03  0.00000000000E+00 0. -1.
         23    2    1    2    0    0 -0.22010934671E+02  0.30168904065E+02 -0.33162145421E+03  0.35635965331E+03  0.12499907840E+03 0.  0.
          5    1    3    3  502    0 -0.16602611894E+01 -0.14525394951E+02 -0.29378775305E+03  0.29418884651E+03  0.47000000000E+01 0. -1.
         -5    1    3    3    0  502 -0.20350673481E+02  0.44694299017E+02 -0.37833701156E+02  0.62170806806E+02  0.47000000000E+01 0. -1.
        -11    1    1    2    0    0  0.36347435847E+01  0.24495450374E+02  0.22542045656E+02  0.33487046336E+02  0.00000000000E+00 0.  1.
         11    1    1    2    0    0  0.18376191086E+02 -0.54664354439E+02 -0.39991175854E+02  0.70179556790E+02  0.00000000000E+00 0. -1.
<mgrwt>
<rscale>  0 0.12273084E+03</rscale>
<asrwt>0</asrwt>
<pdfrwt beam="2">  1        2 0.62238219E-01 0.13045847E+03</pdfrwt>
<pdfrwt beam="1">  1       -2 0.85350517E-02 0.13045847E+03</pdfrwt>
<totfact> 0.64274173E+03</totfact>
</mgrwt>
</event>
<event>
 7    1  0.7800420E-006  0.1418006E+03  0.7546771E-02  0.1221247E+00
          1   -1    0    0  501    0  0.00000000000E+00  0.00000000000E+00  0.58486225769E+02  0.58486225769E+02  0.00000000000E+00 0. -1.
         -1   -1    0    0    0  501 -0.00000000000E+00 -0.00000000000E+00 -0.35049241845E+03  0.35049241845E+03  0.00000000000E+00 0.  1.
         23    2    1    2    0    0  0.83267879256E+01  0.66429323797E+02 -0.67207999741E+02  0.15692139274E+03  0.12500087124E+03 0.  0.
          5    1    3    3  502    0  0.58222930315E+02  0.37823481229E+02 -0.16839837491E+01  0.69609274871E+02  0.47000000000E+01 0.  1.
         -5    1    3    3    0  502 -0.49896142389E+02  0.28605842568E+02 -0.65524015992E+02  0.87312117865E+02  0.47000000000E+01 0.  1.
        -11    1    1    2    0    0  0.33298853633E+02 -0.61388172949E+02 -0.11524693201E+03  0.13475598973E+03  0.00000000000E+00 0. -1.
         11    1    1    2    0    0 -0.41625641558E+02 -0.50411508478E+01 -0.10955126093E+03  0.11730126175E+03  0.00000000000E+00 0.  1.
<mgrwt>
<rscale>  0 0.13427518E+03</rscale>
<asrwt>0</asrwt>
<pdfrwt beam="1">  1        1 0.89978808E-02 0.14180059E+03</pdfrwt>
<pdfrwt beam="2">  1       -1 0.53921911E-01 0.14180059E+03</pdfrwt>
<totfact> 0.25595110E+03</totfact>
</mgrwt>
</event>
<event>
 7    1  0.7800420E-006  0.1299435E+03  0.7546771E-02  0.1241346E+00
          1   -1    0    0  501    0  0.00000000000E+00  0.00000000000E+00  0.53067890096E+03  0.53067890096E+03  0.00000000000E+00 0. -1.
         -1   -1    0    0    0  501 -0.00000000000E+00 -0.00000000000E+00 -0.30092386381E+02  0.30092386381E+02  0.00000000000E+00 0.  1.
         23    2    1    2    0    0 -0.22738326206E+02  0.27217836670E+02  0.39922283665E+03  0.41983828618E+03  0.12500988411E+03 0.  0.
          5    1    3    3  502    0  0.49465195599E+02 -0.20509197803E+01  0.19403969024E+03  0.20031101626E+03  0.47000000000E+01 0. -1.
         -5    1    3    3    0  502 -0.72203521805E+02  0.29268756450E+02  0.20518314642E+03  0.21952726992E+03  0.47000000000E+01 0. -1.
        -11    1    1    2    0    0 -0.15820933341E+02  0.78059149845E+01  0.84288183000E+02  0.86114644713E+02  0.00000000000E+00 0. -1.
         11    1    1    2    0    0  0.38559259548E+02 -0.35023751654E+02  0.17075494924E+02  0.54818356448E+02  0.00000000000E+00 0.  1.
<mgrwt>
<rscale>  0 0.12106795E+03</rscale>
<asrwt>0</asrwt>
<pdfrwt beam="1">  1        1 0.81642901E-01 0.12994350E+03</pdfrwt>
<pdfrwt beam="2">  1       -1 0.46295983E-02 0.12994350E+03</pdfrwt>
<totfact> 0.78584529E+03</totfact>
</mgrwt>
</event>
<event>
 7    1  0.7800420E-006  0.1366775E+03  0.7546771E-02  0.1229218E+00
          2   -1    0    0  501    0  0.00000000000E+00  0.00000000000E+00  0.16812670766E+04  0.16812670766E+04  0.00000000000E+00 0. -1.
         -2   -1    0    0    0  501 -0.00000000000E+00 -0.00000000000E+00 -0.14241670705E+02  0.14241670705E+02  0.00000000000E+00 0.  1.
         23    2    1    2    0    0  0.14284383138E+02  0.53390601536E+02  0.14122008804E+04  0.14187995110E+04  0.12500450348E+03 0.  0.
          5    1    3    3  502    0 -0.12232721094E+02 -0.37439922493E+02  0.54419984691E+03  0.54564361138E+03  0.47000000000E+01 0. -1.
         -5    1    3    3    0  502  0.26517104232E+02  0.90830524029E+02  0.86800103349E+03  0.87315589963E+03  0.47000000000E+01 0. -1.
        -11    1    1    2    0    0 -0.37515179674E+02 -0.21602927071E+02  0.42149840614E+02  0.60420892313E+02  0.00000000000E+00 0.  1.
         11    1    1    2    0    0  0.23230796537E+02 -0.31787674465E+02  0.21267468484E+03  0.21628834394E+03  0.00000000000E+00 0. -1.
<mgrwt>
<rscale>  0 0.12881950E+03</rscale>
<asrwt>0</asrwt>
<pdfrwt beam="1">  1        2 0.25865632E+00 0.13667745E+03</pdfrwt>
<pdfrwt beam="2">  1       -2 0.21910276E-02 0.13667745E+03</pdfrwt>
<totfact> 0.72597698E+03</totfact>
</mgrwt>
</event>
<event>
 7    1  0.7800420E-006  0.1358089E+03  0.7546771E-02  0.1230747E+00
          3   -1    0    0  501    0  0.00000000000E+00  0.00000000000E+00  0.57630397172E+02  0.57630397172E+02  0.00000000000E+00 0. -1.
         -3   -1    0    0    0  501 -0.00000000000E+00 -0.00000000000E+00 -0.34411037121E+03  0.34411037121E+03  0.00000000000E+00 0.  1.
         23    2    1    2    0    0  0.24901127098E+02  0.46901276914E+02 -0.54244237301E+02  0.14624124038E+03  0.12499706876E+03 0.  0.
          5    1    3    3  502    0 -0.28994712497E+02 -0.12921159627E+02  0.18998087457E+02  0.37291648474E+02  0.47000000000E+01 0.  1.
         -5    1    3    3    0  502  0.53895839595E+02  0.59822436541E+02 -0.73242324759E+02  0.10894959190E+03  0.47000000000E+01 0.  1.
        -11    1    1    2    0    0  0.18795012476E+02 -0.72269893045E+01 -0.50329337161E+01  0.20756018168E+02  0.00000000000E+00 0. -1.
         11    1    1    2    0    0 -0.43696139575E+02 -0.39674287610E+02 -0.22720280302E+03  0.23474350984E+03  0.00000000000E+00 0.  1.
<mgrwt>
<rscale>  0 0.12780690E+03</rscale>
<asrwt>0</asrwt>
<pdfrwt beam="1">  1        3 0.88662148E-02 0.13580892E+03</pdfrwt>
<pdfrwt beam="2">  1       -3 0.52940058E-01 0.13580892E+03</pdfrwt>
<totfact> 0.74133684E+02</totfact>
</mgrwt>
</event>
<event>
 6    1  0.7800420E-006  0.2342425E+03  0.7546771E-02  0.1154822E+00
          3   -1    0    0  501    0  0.00000000000E+00  0.00000000000E+00  0.52303837556E+03  0.52303837556E+03  0.00000000000E+00 0. -1.
         -3   -1    0    0    0  501 -0.00000000000E+00 -0.00000000000E+00 -0.11490900869E+03  0.11490900869E+03  0.00000000000E+00 0.  1.
          5    1    1    2  502    0 -0.36392859889E+02  0.13723405442E+03  0.25666620154E+03  0.29335516862E+03  0.47000000000E+01 0. -1.
         -5    1    1    2    0  502  0.47453996188E+02 -0.77756610496E+02  0.20314192241E+03  0.22268071958E+03  0.47000000000E+01 0.  1.
        -11    1    1    2    0    0  0.21802101661E+02 -0.69537955403E+02 -0.48186408828E+02  0.87365833563E+02  0.00000000000E+00 0.  1.
         11    1    1    2    0    0 -0.32863237960E+02  0.10060511480E+02 -0.34923482543E+01  0.34545662488E+02  0.00000000000E+00 0. -1.
<mgrwt>
<rscale>  0 0.19409186E+03</rscale>
<asrwt>0</asrwt>
<pdfrwt beam="1">  1        3 0.80467441E-01 0.23424245E+03</pdfrwt>
<pdfrwt beam="2">  1       -3 0.17678309E-01 0.23424245E+03</pdfrwt>
<totfact> 0.10181230E+02</totfact>
</mgrwt>
</event>
<event>
 7    1  0.7800420E-006  0.1477685E+03  0.7546771E-02  0.1211924E+00
         -1   -1    0    0    0  501 -0.00000000000E+00  0.00000000000E+00  0.40357968401E+02  0.40357968401E+02  0.00000000000E+00 0.  1.
          1   -1    0    0  501    0  0.00000000000E+00 -0.00000000000E+00 -0.46161597534E+03  0.46161597534E+03  0.00000000000E+00 0. -1.
         23    2    1    2    0    0 -0.12839775197E+02  0.77759520537E+02 -0.26386077507E+03  0.30242032289E+03  0.12499656083E+03 0.  0.
          5    1    3    3  502    0 -0.13603849943E+02  0.50631645969E+02 -0.18918112703E+02  0.55934008395E+02  0.47000000000E+01 0. -1.
         -5    1    3    3    0  502  0.76407474666E+00  0.27127874568E+02 -0.24494266237E+03  0.24648631450E+03  0.47000000000E+01 0. -1.
        -11    1    1    2    0    0  0.38517585851E+01 -0.58484438361E+02 -0.16642877523E+03  0.17644773391E+03  0.00000000000E+00 0. -1.
         11    1    1    2    0    0  0.89880166117E+01 -0.19275082177E+02  0.90315433673E+01  0.23105886937E+02  0.00000000000E+00 0.  1.
<mgrwt>
<rscale>  0 0.14104915E+03</rscale>
<asrwt>0</asrwt>
<pdfrwt beam="2">  1        1 0.71017836E-01 0.14776855E+03</pdfrwt>
<pdfrwt beam="1">  1       -1 0.62089188E-02 0.14776855E+03</pdfrwt>
<totfact> 0.61433538E+03</totfact>
</mgrwt>
</event>
<event>
 7    1  0.7800420E-006  0.1346564E+03  0.7546771E-02  0.1233488E+00
          2   -1    0    0  501    0  0.00000000000E+00  0.00000000000E+00  0.16475431317E+04  0.16475431317E+04  0.00000000000E+00 0. -1.
         -2   -1    0    0    0  501 -0.00000000000E+00 -0.00000000000E+00 -0.14008091609E+02  0.14008091609E+02  0.00000000000E+00 0.  1.
         23    2    1    2    0    0 -0.97470190137E+00 -0.50061957346E+02  0.13966758335E+04  0.14031520704E+04  0.12500079631E+03 0.  0.
          5    1    3    3  502    0 -0.57572879432E+02 -0.43587261608E+01  0.45782315981E+03  0.46147347768E+03  0.47000000000E+01 0. -1.
         -5    1    3    3    0  502  0.56598177531E+02 -0.45703231185E+02  0.93885267370E+03  0.94167859270E+03  0.47000000000E+01 0. -1.
        -11    1    1    2    0    0 -0.88302439554E+01  0.40758201642E+02  0.24074873922E+03  0.24433411478E+03  0.00000000000E+00 0. -1.
         11    1    1    2    0    0  0.98049458568E+01  0.93037557039E+01 -0.38895326549E+01  0.14065038135E+02  0.00000000000E+00 0.  1.
<mgrwt>
<rscale>  0 0.12601720E+03</rscale>
<asrwt>0</asrwt>
<pdfrwt beam="1">  1        2 0.25346802E+00 0.13465641E+03</pdfrwt>
<pdfrwt beam="2">  1       -2 0.21550923E-02 0.13465641E+03</pdfrwt>
<totfact> 0.77353141E+03</totfact>
</mgrwt>
</event>
<event>
 7    1  0.7800420E-006  0.1849857E+03  0.7546771E-02  0.1168852E+00
         -2   -1    0    0    0  501 -0.00000000000E+00  0.00000000000E+00  0.51660321467E+02  0.51660321467E+02  0.00000000000E+00 0.  1.
          2   -1    0    0  501    0  0.00000000000E+00 -0.00000000000E+00 -0.61311495571E+03  0.61311495571E+03  0.00000000000E+00 0. -1.
         23    2    1    2    0    0 -0.55305400409E+02  0.12464331296E+03 -0.37286456818E+03  0.41623034439E+03  0.12500028245E+03 0.  0.
          5    1    3    3  502    0 -0.52491428633E+02  0.13230955504E+03 -0.21383274239E+03  0.25691963754E+03  0.47000000000E+01 0.  1.
         -5    1    3    3    0  502 -0.28139717761E+01 -0.76662420866E+01 -0.15903182579E+03  0.15931070686E+03  0.47000000000E+01 0.  1.
        -11    1    1    2    0    0 -0.71761587031E+00 -0.96973441489E+02 -0.13504378230E+03  0.16625638774E+03  0.00000000000E+00 0. -1.
         11    1    1    2    0    0  0.56023016280E+02 -0.27669871467E+02 -0.53546283764E+02  0.82288545041E+02  0.00000000000E+00 0.  1.
<mgrwt>
<rscale>  0 0.17891990E+03</rscale>
<asrwt>0</asrwt>
<pdfrwt beam="2">  1        2 0.94325381E-01 0.18498571E+03</pdfrwt>
<pdfrwt beam="1">  1       -2 0.79477415E-02 0.18498571E+03</pdfrwt>
<totfact> 0.46138392E+03</totfact>
</mgrwt>
</event>
<event>
 7    1  0.7800420E-006  0.1442725E+03  0.7546771E-02  0.1218285E+00
         -1   -1    0    0    0  501 -0.00000000000E+00  0.00000000000E+00  0.47303517401E+03  0.47303517401E+03  0.00000000000E+00 0.  1.
          1   -1    0    0  501    0  0.00000000000E+00 -0.00000000000E+00 -0.36006612887E+02  0.36006612887E+02  0.00000000000E+00 0. -1.
         23    2    1    2    0    0  0.68821695808E+02 -0.21270551718E+02  0.21522724278E+03  0.25910867603E+03  0.12500271107E+03 0.  0.
          5    1    3    3  502    0  0.32747675603E+02  0.42977974504E+02  0.35539320844E+02  0.64843271632E+02  0.47000000000E+01 0. -1.
         -5    1    3    3    0  502  0.36074020205E+02 -0.64248526222E+02  0.17968792194E+03  0.19426540440E+03  0.47000000000E+01 0. -1.
        -11    1    1    2    0    0 -0.47664066499E+02  0.55159075426E+02  0.11792085328E+03  0.13863518484E+03  0.00000000000E+00 0.  1.
         11    1    1    2    0    0 -0.21157629309E+02 -0.33888523708E+02  0.10388046506E+03  0.11129792603E+03  0.00000000000E+00 0. -1.
<mgrwt>
<rscale>  0 0.13637961E+03</rscale>
<asrwt>0</asrwt>
<pdfrwt beam="2">  1        1 0.55394792E-02 0.14427245E+03</pdfrwt>
<pdfrwt beam="1">  1       -1 0.72774638E-01 0.14427245E+03</pdfrwt>
<totfact> 0.27708918E+03</totfact>
</mgrwt>
</event>
<event>
 6    1  0.7800420E-006  0.2283494E+03  0.7546771E-02  0.1135710E+00
          1   -1    0    0  501    0  0.00000000000E+00  0.00000000000E+00  0.31482176341E+03  0.31482176341E+03  0.00000000000E+00 0. -1.
         -1   -1    0    0    0  501 -0.00000000000E+00 -0.00000000000E+00 -0.28634919861E+03  0.28634919861E+03  0.00000000000E+00 0.  1.
          5    1    1    2  502    0 -0.74802858842E+02 -0.14721625650E+03  0.14609941392E+03  0.22053394890E+03  0.47000000000E+01 0. -1.
         -5    1    1    2    0  502  0.58205582296E+02 -0.16058126795E+02  0.84829759022E+02  0.10423018403E+03  0.47000000000E+01 0.  1.
        -11    1    1    2    0    0  0.51616125507E+02  0.12929804724E+03 -0.14470246636E+03  0.20080092929E+03  0.00000000000E+00 0.  1.
         11    1    1    2    0    0 -0.35018848962E+02  0.33976336051E+02 -0.57754141776E+02  0.75605899812E+02  0.00000000000E+00 0. -1.
<mgrwt>
<rscale>  0 0.21756741E+03</rscale>
<asrwt>0</asrwt>
<pdfrwt beam="1">  1        1 0.48434117E-01 0.22834942E+03</pdfrwt>
<pdfrwt beam="2">  1       -1 0.44053723E-01 0.22834942E+03</pdfrwt>
<totfact> 0.43059347E+02</totfact>
</mgrwt>
</event>
<event>
 7    1  0.7800420E-006  0.1344514E+03  0.7546771E-02  0.1231302E+00
         -2   -1    0    0    0  501 -0.00000000000E+00  0.00000000000E+00  0.26709065221E+02  0.26709065221E+02  0.00000000000E+00 0.  1.
          2   -1    0    0  501    0  0.00000000000E+00 -0.00000000000E+00 -0.61914278165E+03  0.61914278165E+03  0.00000000000E+00 0. -1.
         23    2    1    2    0    0  0.33943379566E+02 -0.36052430760E+02 -0.42973383516E+03  0.45027587245E+03  0.12500104579E+03 0.  0.
          5    1    3    3  502    0 -0.34062394944E+02 -0.31762574413E+02 -0.30029199405E+03  0.30391854101E+03  0.47000000000E+01 0.  1.
         -5    1    3    3    0  502  0.68005774510E+02 -0.42898563466E+01 -0.12944184111E+03  0.14635733143E+03  0.47000000000E+01 0.  1.
        -11    1    1    2    0    0  0.34427462997E+01  0.55363400183E+02 -0.47838388064E+02  0.73249368287E+02  0.00000000000E+00 0.  1.
         11    1    1    2    0    0 -0.37386125865E+02 -0.19310969423E+02 -0.11486149320E+03  0.12232660613E+03  0.00000000000E+00 0. -1.
<mgrwt>
<rscale>  0 0.12744163E+03</rscale>
<asrwt>0</asrwt>
<pdfrwt beam="2">  1        2 0.95252727E-01 0.13445145E+03</pdfrwt>
<pdfrwt beam="1">  1       -2 0.41090873E-02 0.13445145E+03</pdfrwt>
<totfact> 0.12209619E+04</totfact>
</mgrwt>
</event>
<event>
 7    1  0.7800420E-006  0.1264650E+03  0.7546771E-02  0.1247218E+00
          1   -1    0    0  501    0  0.00000000000E+00  0.00000000000E+00  0.16447480495E+03  0.16447480495E+03  0.00000000000E+00 0. -1.
         -1   -1    0    0    0  501 -0.00000000000E+00 -0.00000000000E+00 -0.10020003053E+03  0.10020003053E+03  0.00000000000E+00 0.  1.
         23    2    1    2    0    0 -0.19607816538E+01  0.19074744297E+02  0.10258245052E+03  0.16283905618E+03  0.12500283408E+03 0.  0.
          5    1    3    3  502    0 -0.34457740954E+02  0.60474052386E+02  0.77738768835E+02  0.10445024224E+03  0.47000000000E+01 0.  1.
         -5    1    3    3    0  502  0.32496959300E+02 -0.41399308088E+02  0.24843681682E+02  0.58388813941E+02  0.47000000000E+01 0.  1.
        -11    1    1    2    0    0  0.22646831140E+02 -0.33862545504E+02  0.14486768377E+02  0.43236759901E+02  0.00000000000E+00 0. -1.
         11    1    1    2    0    0 -0.20686049487E+02  0.14787801207E+02 -0.52794444472E+02  0.58599019403E+02  0.00000000000E+00 0.  1.
<mgrwt>
<rscale>  0 0.11753579E+03</rscale>
<asrwt>0</asrwt>
<pdfrwt beam="1">  1        1 0.25303816E-01 0.12646501E+03</pdfrwt>
<pdfrwt beam="2">  1       -1 0.15415389E-01 0.12646501E+03</pdfrwt>
<totfact> 0.55001802E+03</totfact>
</mgrwt>
</event>
<event>
 7    1  0.7800420E-006  0.1530659E+03  0.7546771E-02  0.1205103E+00
         -2   -1    0    0    0  501 -0.00000000000E+00  0.00000000000E+00  0.82257726398E+02  0.82257726398E+02  0.00000000000E+00 0.  1.
          2   -1    0    0  501    0  0.00000000000E+00 -0.00000000000E+00 -0.47326760213E+03  0.47326760213E+03  0.00000000000E+00 0. -1.
         23    2    1    2    0    0 -0.73796721526E+02 -0.48553282848E+02 -0.39920201301E+03  0.42754113732E+03  0.12500319804E+03 0.  0.
          5    1    3    3  502    0  0.29565705917E+02  0.11144809202E+02 -0.60921255989E+02  0.68788277851E+02  0.47000000000E+01 0. -1.
         -5    1    3    3    0  502 -0.10336242744E+03 -0.59698092050E+02 -0.33828075703E+03  0.35875285947E+03  0.47000000000E+01 0. -1.
        -11    1    1    2    0    0  0.84749869391E+01 -0.22409399966E+02  0.19476436645E+02  0.30876175197E+02  0.00000000000E+00 0.  1.
         11    1    1    2    0    0  0.65321734587E+02  0.70962682814E+02 -0.11284299361E+02  0.97108016011E+02  0.00000000000E+00 0. -1.
<mgrwt>
<rscale>  0 0.14629352E+03</rscale>
<asrwt>0</asrwt>
<pdfrwt beam="2">  1        2 0.72810401E-01 0.15306592E+03</pdfrwt>
<pdfrwt beam="1">  1       -2 0.12655035E-01 0.15306592E+03</pdfrwt>
<totfact> 0.29364697E+03</totfact>
</mgrwt>
</event>
<event>
 7    1  0.7800420E-006  0.1250619E+03  0.7546771E-02  0.1251452E+00
         -2   -1    0    0    0  501 -0.00000000000E+00  0.00000000000E+00  0.80336685078E+02  0.80336685078E+02  0.00000000000E+00 0.  1.
          2   -1    0    0  501    0  0.00000000000E+00 -0.00000000000E+00 -0.26389128599E+03  0.26389128599E+03  0.00000000000E+00 0. -1.
         23    2    1    2    0    0 -0.42022112903E+01  0.34444226775E+00 -0.21541606248E+03  0.24908747100E+03  0.12499084372E+03 0.  0.
          5    1    3    3  502    0 -0.30888489301E+02 -0.54993030786E+02 -0.11610732953E+03  0.13221699655E+03  0.47000000000E+01 0. -1.
         -5    1    3    3    0  502  0.26686278011E+02  0.55337473053E+02 -0.99308732948E+02  0.11687047445E+03  0.47000000000E+01 0. -1.
        -11    1    1    2    0    0  0.29920430199E+02  0.18372822566E+02  0.48001138226E+02  0.59471859088E+02  0.00000000000E+00 0.  1.
         11    1    1    2    0    0 -0.25718218909E+02 -0.18717264834E+02 -0.16139676658E+02  0.35668640979E+02  0.00000000000E+00 0. -1.
<mgrwt>
<rscale>  0 0.11507412E+03</rscale>
<asrwt>0</asrwt>
<pdfrwt beam="2">  1        2 0.40598659E-01 0.12506194E+03</pdfrwt>
<pdfrwt beam="1">  1       -2 0.12359490E-01 0.12506194E+03</pdfrwt>
<totfact> 0.56310638E+03</totfact>
</mgrwt>
</event>
<event>
 7    1  0.7800420E-006  0.1388690E+03  0.7546771E-02  0.1227344E+00
         -1   -1    0    0    0  501 -0.00000000000E+00  0.00000000000E+00  0.76728400815E+02  0.76728400815E+02  0.00000000000E+00 0.  1.
          1   -1    0    0  501    0  0.00000000000E+00 -0.00000000000E+00 -0.32072452327E+03  0.32072452327E+03  0.00000000000E+00 0. -1.
         23    2    1    2    0    0 -0.30877008982E+02 -0.52020907433E+02 -0.25462185625E+03  0.29002913423E+03  0.12500017810E+03 0.  0.
          5    1    3    3  502    0 -0.81739744735E+01  0.36506124979E+02 -0.32439363463E+02  0.49738449127E+02  0.47000000000E+01 0.  1.
         -5    1    3    3    0  502 -0.22703034508E+02 -0.88527032413E+02 -0.22218249279E+03  0.24029068510E+03  0.47000000000E+01 0.  1.
        -11    1    1    2    0    0 -0.87101020311E+01  0.42752031999E+02 -0.27592706942E+02  0.51623246642E+02  0.00000000000E+00 0. -1.
         11    1    1    2    0    0  0.39587111013E+02  0.92688754339E+01  0.38218440742E+02  0.55800543213E+02  0.00000000000E+00 0.  1.
<mgrwt>
<rscale>  0 0.13007548E+03</rscale>
<asrwt>0</asrwt>
<pdfrwt beam="2">  1        1 0.49342233E-01 0.13886904E+03</pdfrwt>
<pdfrwt beam="1">  1       -1 0.11804370E-01 0.13886904E+03</pdfrwt>
<totfact> 0.36577909E+03</totfact>
</mgrwt>
</event>
<event>
 7    1  0.7800420E-006  0.1775273E+03  0.7546771E-02  0.1176112E+00
          2   -1    0    0  501    0  0.00000000000E+00  0.00000000000E+00  0.82230418128E+03  0.82230418128E+03  0.00000000000E+00 0. -1.
         -2   -1    0    0    0  501 -0.00000000000E+00 -0.00000000000E+00 -0.10248968448E+03  0.10248968448E+03  0.00000000000E+00 0.  1.
         23    2    1    2    0    0  0.99118294763E+02 -0.77884052140E+02  0.74645297665E+03  0.76727309241E+03  0.12500236021E+03 0.  0.
          5    1    3    3  502    0  0.86860387041E+01 -0.38994092866E+02  0.50333215344E+03  0.50493695966E+03  0.47000000000E+01 0. -1.
         -5    1    3    3    0  502  0.90432256059E+02 -0.38889959274E+02  0.24312082321E+03  0.26233613275E+03  0.47000000000E+01 0. -1.
        -11    1    1    2    0    0 -0.60472901066E+02  0.71147791047E+02 -0.55676476977E+02  0.10871453455E+03  0.00000000000E+00 0.  1.
         11    1    1    2    0    0 -0.38645393696E+02  0.67362610931E+01  0.29037997133E+02  0.48806238791E+02  0.00000000000E+00 0. -1.
<mgrwt>
<rscale>  0 0.17167546E+03</rscale>
<asrwt>0</asrwt>
<pdfrwt beam="1">  1        2 0.12650833E+00 0.17752733E+03</pdfrwt>
<pdfrwt beam="2">  1       -2 0.15767644E-01 0.17752733E+03</pdfrwt>
<totfact> 0.10803142E+03</totfact>
</mgrwt>
</event>
<event>
 7    1  0.7800420E-006  0.1257421E+03  0.7546771E-02  0.1240126E+00
          1   -1    0    0  501    0  0.00000000000E+00  0.00000000000E+00  0.21556525510E+02  0.21556525510E+02  0.00000000000E+00 0. -1.
         -1   -1    0    0    0  501 -0.00000000000E+00 -0.00000000000E+00 -0.64958943911E+03  0.64958943911E+03  0.00000000000E+00 0.  1.
         23    2    1    2    0    0  0.10031244634E+02 -0.90662576123E+01 -0.34605361984E+03  0.36819042886E+03  0.12501304414E+03 0.  0.
          5    1    3    3  502    0  0.43890596228E+02  0.86287275598E+01 -0.41448861760E+02  0.61163203953E+02  0.47000000000E+01 0.  1.
         -5    1    3    3    0  502 -0.33859351594E+02 -0.17694985172E+02 -0.30460475808E+03  0.30702722491E+03  0.47000000000E+01 0.  1.
        -11    1    1    2    0    0  0.34784302522E+01  0.55919121902E+02 -0.19873016879E+03  0.20647694219E+03  0.00000000000E+00 0.  1.
         11    1    1    2    0    0 -0.13509674886E+02 -0.46852864289E+02 -0.83249124977E+02  0.96478593569E+02  0.00000000000E+00 0. -1.
<mgrwt>
<rscale>  0 0.12181900E+03</rscale>
<asrwt>0</asrwt>
<pdfrwt beam="1">  1        1 0.33163885E-02 0.12574213E+03</pdfrwt>
<pdfrwt beam="2">  1       -1 0.99936839E-01 0.12574213E+03</pdfrwt>
<totfact> 0.28669848E+03</totfact>
</mgrwt>
</event>
<event>
 7    1  0.7800420E-006  0.1395821E+03  0.7546771E-02  0.1224313E+00
         -1   -1    0    0    0  501 -0.00000000000E+00  0.00000000000E+00  0.46896418090E+02  0.46896418090E+02  0.00000000000E+00 0.  1.
          1   -1    0    0  501    0  0.00000000000E+00 -0.00000000000E+00 -0.40319621536E+03  0.40319621536E+03  0.00000000000E+00 0. -1.
         23    2    1    2    0    0 -0.42049021738E+02 -0.45621561434E+02 -0.28467333086E+03  0.31705217181E+03  0.12503490413E+03 0.  0.
          5    1    3    3  502    0  0.34454478201E+02  0.18734267640E+02 -0.80899024010E+02  0.90026806774E+02  0.47000000000E+01 0. -1.
         -5    1    3    3    0  502 -0.76503499939E+02 -0.64355829074E+02 -0.20377430685E+03  0.22702536504E+03  0.47000000000E+01 0. -1.
        -11    1    1    2    0    0  0.65795581008E+02  0.55760567048E+02 -0.53479413592E+02  0.10148077156E+03  0.00000000000E+00 0.  1.
         11    1    1    2    0    0 -0.23746559270E+02 -0.10139005614E+02 -0.18147052818E+02  0.31559690081E+02  0.00000000000E+00 0. -1.
<mgrwt>
<rscale>  0 0.13214075E+03</rscale>
<asrwt>0</asrwt>
<pdfrwt beam="2">  1        1 0.62030188E-01 0.13958214E+03</pdfrwt>
<pdfrwt beam="1">  1       -1 0.72148335E-02 0.13958214E+03</pdfrwt>
<totfact> 0.58105901E+03</totfact>
</mgrwt>
</event>
<event>
 7    1  0.7800420E-006  0.1332672E+03  0.7546771E-02  0.1234722E+00
          1   -1    0    0  501    0  0.00000000000E+00  0.00000000000E+00  0.56800585140E+03  0.56800585140E+03  0.00000000000E+00 0. -1.
         -1   -1    0    0    0  501 -0.00000000000E+00 -0.00000000000E+00 -0.24881395824E+02  0.24881395824E+02  0.00000000000E+00 0.  1.
         23    2    1    2    0    0  0.69010122523E+01 -0.45651171002E+02  0.32609217110E+03  0.35227296184E+03  0.12501392803E+03 0.  0.
          5    1    3    3  502    0 -0.26907788018E+02  0.44003199081E+01  0.26427280349E+03  0.26571713632E+03  0.47000000000E+01 0.  1.
         -5    1    3    3    0  502  0.33808800271E+02 -0.50051490910E+02  0.61819367619E+02  0.86555825517E+02  0.47000000000E+01 0.  1.
        -11    1    1    2    0    0  0.32724499660E+02 -0.11128770638E+02  0.76796680997E+02  0.84216819140E+02  0.00000000000E+00 0.  1.
         11    1    1    2    0    0 -0.39625511912E+02  0.56779941640E+02  0.14023560347E+03  0.15639746624E+03  0.00000000000E+00 0. -1.
<mgrwt>
<rscale>  0 0.12522217E+03</rscale>
<asrwt>0</asrwt>
<pdfrwt beam="1">  1        1 0.87385506E-01 0.13326716E+03</pdfrwt>
<pdfrwt beam="2">  1       -1 0.38279075E-02 0.13326716E+03</pdfrwt>
<totfact> 0.95099329E+03</totfact>
</mgrwt>
</event>
<event>
 6    1  0.7800420E-006  0.2206135E+03  0.7546771E-02  0.1166139E+00
         -1   -1    0    0    0  501 -0.00000000000E+00  0.00000000000E+00  0.80767001692E+02  0.80767001692E+02  0.00000000000E+00 0.  1.
          1   -1    0    0  501    0  0.00000000000E+00 -0.00000000000E+00 -0.32144759558E+03  0.32144759558E+03  0.00000000000E+00 0. -1.
          5    1    1    2  502    0  0.83201938408E+02  0.89784337170E+02 -0.49835470095E+02  0.13224769879E+03  0.47000000000E+01 0. -1.
         -5    1    1    2    0  502 -0.70266407191E+02 -0.45719775131E+02 -0.11860998715E+03  0.14532062782E+03  0.47000000000E+01 0.  1.
        -11    1    1    2    0    0  0.93720661580E+01 -0.51901567581E+02 -0.45344432985E+01  0.52935522265E+02  0.00000000000E+00 0.  1.
         11    1    1    2    0    0 -0.22307597375E+02  0.78370055414E+01 -0.67700693344E+02  0.71710748397E+02  0.00000000000E+00 0. -1.
<mgrwt>
<rscale>  0 0.18173039E+03</rscale>
<asrwt>0</asrwt>
<pdfrwt beam="2">  1        1 0.49453476E-01 0.22061347E+03</pdfrwt>
<pdfrwt beam="1">  1       -1 0.12425693E-01 0.22061347E+03</pdfrwt>
<totfact> 0.34357203E+03</totfact>
</mgrwt>
</event>
<event>
 7    1  0.7800420E-006  0.1388077E+03  0.7546771E-02  0.1221949E+00
         -1   -1    0    0    0  501 -0.00000000000E+00  0.00000000000E+00  0.20958339260E+02  0.20958339260E+02  0.00000000000E+00 0.  1.
          1   -1    0    0  501    0  0.00000000000E+00 -0.00000000000E+00 -0.14345799053E+04  0.14345799053E+04  0.00000000000E+00 0. -1.
         23    2    1    2    0    0  0.72331525871E+02 -0.30784173971E+02 -0.12199667221E+04  0.12278380904E+04  0.11440305150E+03 0.  0.
          5    1    3    3  502    0  0.24388892191E+02 -0.32880993332E+01 -0.10203712461E+04  0.10206787935E+04  0.47000000000E+01 0. -1.
         -5    1    3    3    0  502  0.47942633680E+02 -0.27496074638E+02 -0.19959547596E+03  0.20715929684E+03  0.47000000000E+01 0.  1.
        -11    1    1    2    0    0 -0.74238737608E+02 -0.11489737573E+02 -0.10133144905E+03  0.12614066275E+03  0.00000000000E+00 0.  1.
         11    1    1    2    0    0  0.19072117375E+01  0.42273911544E+02 -0.92323394913E+02  0.10155949144E+03  0.00000000000E+00 0. -1.
<mgrwt>
<rscale>  0 0.13378219E+03</rscale>
<asrwt>0</asrwt>
<pdfrwt beam="2">  1        1 0.22070470E+00 0.13880768E+03</pdfrwt>
<pdfrwt beam="1">  1       -1 0.32243585E-02 0.13880768E+03</pdfrwt>
<totfact> 0.26647128E+03</totfact>
</mgrwt>
</event>
<event>
 7    1  0.7800420E-006  0.1606347E+03  0.7546771E-02  0.1195373E+00
         -1   -1    0    0    0  501 -0.00000000000E+00  0.00000000000E+00  0.10371738520E+03  0.10371738520E+03  0.00000000000E+00 0.  1.
          1   -1    0    0  501    0  0.00000000000E+00 -0.00000000000E+00 -0.60204551337E+03  0.60204551337E+03  0.00000000000E+00 0. -1.
         23    2    1    2    0    0  0.71040727585E+02 -0.71639560414E+02 -0.53972794652E+03  0.56312498791E+03  0.12499793664E+03 0.  0.
          5    1    3    3  502    0 -0.34992680020E+02 -0.19084171303E+02 -0.10072882705E+03  0.10843006893E+03  0.47000000000E+01 0.  1.
         -5    1    3    3    0  502  0.10603340760E+03 -0.52555389111E+02 -0.43899911947E+03  0.45469491898E+03  0.47000000000E+01 0.  1.
        -11    1    1    2    0    0 -0.93516446718E+02  0.54575099732E+02  0.32557547099E+02  0.11306529614E+03  0.00000000000E+00 0. -1.
         11    1    1    2    0    0  0.22475719134E+02  0.17064460682E+02  0.88422712426E+01  0.29572614522E+02  0.00000000000E+00 0.  1.
<mgrwt>
<rscale>  0 0.15422714E+03</rscale>
<asrwt>0</asrwt>
<pdfrwt beam="2">  1        1 0.92622388E-01 0.16063467E+03</pdfrwt>
<pdfrwt beam="1">  1       -1 0.15956521E-01 0.16063467E+03</pdfrwt>
<totfact> 0.10188479E+03</totfact>
</mgrwt>
</event>
<event>
 6    1  0.7800420E-006  0.4701099E+03  0.7546771E-02  0.1071888E+00
         -2   -1    0    0    0  501 -0.00000000000E+00  0.00000000000E+00  0.81294314618E+02  0.81294314618E+02  0.00000000000E+00 0.  1.
          2   -1    0    0  501    0  0.00000000000E+00 -0.00000000000E+00 -0.19861313740E+04  0.19861313740E+04  0.00000000000E+00 0. -1.
          5    1    1    2  502    0  0.11998740955E+02 -0.13730480492E+02 -0.18811401133E+04  0.18812343585E+04  0.47000000000E+01 0. -1.
         -5    1    1    2    0  502 -0.72058008306E+02  0.91500781809E-01 -0.16905830688E+02  0.74163751555E+02  0.47000000000E+01 0.  1.
        -11    1    1    2    0    0 -0.16871007719E+02  0.27662794051E+02 -0.95539181443E+01  0.33780740490E+02  0.00000000000E+00 0. -1.
         11    1    1    2    0    0  0.76930275070E+02 -0.14023814341E+02  0.27628027023E+01  0.78246838082E+02  0.00000000000E+00 0.  1.
<mgrwt>
<rscale>  0 0.32830762E+03</rscale>
<asrwt>0</asrwt>
<pdfrwt beam="2">  1        2 0.30555868E+00 0.47010995E+03</pdfrwt>
<pdfrwt beam="1">  1       -2 0.12506817E-01 0.47010995E+03</pdfrwt>
<totfact> 0.33965476E+02</totfact>
</mgrwt>
</event>
<event>
 7    1  0.7800420E-006  0.1275906E+03  0.7546771E-02  0.1245205E+00
         -1   -1    0    0    0  501 -0.00000000000E+00  0.00000000000E+00  0.27104642810E+02  0.27104642810E+02  0.00000000000E+00 0.  1.
          1   -1    0    0  501    0  0.00000000000E+00 -0.00000000000E+00 -0.49993671057E+03  0.49993671057E+03  0.00000000000E+00 0. -1.
         23    2    1    2    0    0  0.14740991148E+02  0.20791263763E+02 -0.34147854362E+03  0.36453662450E+03  0.12501912406E+03 0.  0.
          5    1    3    3  502    0  0.32502756286E+02 -0.15947701259E+02 -0.31162718102E+03  0.31375842346E+03  0.47000000000E+01 0. -1.
         -5    1    3    3    0  502 -0.17761765138E+02  0.36738965023E+02 -0.29851362596E+02  0.50778201037E+02  0.47000000000E+01 0. -1.
        -11    1    1    2    0    0  0.20634687497E+02  0.25347987027E+02 -0.73714185322E+02  0.80635549803E+02  0.00000000000E+00 0. -1.
         11    1    1    2    0    0 -0.35375678644E+02 -0.46139250790E+02 -0.57639338820E+02  0.81869179076E+02  0.00000000000E+00 0.  1.
<mgrwt>
<rscale>  0 0.11873139E+03</rscale>
<asrwt>0</asrwt>
<pdfrwt beam="2">  1        1 0.76913338E-01 0.12759058E+03</pdfrwt>
<pdfrwt beam="1">  1       -1 0.41699452E-02 0.12759058E+03</pdfrwt>
<totfact> 0.98973888E+03</totfact>
</mgrwt>
</event>
<event>
 7    1  0.7800420E-006  0.1354176E+03  0.7546771E-02  0.1231830E+00
          3   -1    0    0  501    0  0.00000000000E+00  0.00000000000E+00  0.17614323659E+03  0.17614323659E+03  0.00000000000E+00 0. -1.
         -3   -1    0    0    0  501 -0.00000000000E+00 -0.00000000000E+00 -0.84851870450E+02  0.84851870450E+02  0.00000000000E+00 0.  1.
         23    2    1    2    0    0 -0.21554332142E+02  0.47426170492E+02  0.74591608141E+02  0.15460221898E+03  0.12499642886E+03 0.  0.
          5    1    3    3  502    0  0.40883817595E+02 -0.16171447262E+02  0.12736117713E+02  0.46014138502E+02  0.47000000000E+01 0. -1.
         -5    1    3    3    0  502 -0.62438149737E+02  0.63597617754E+02  0.61855490427E+02  0.10858808048E+03  0.47000000000E+01 0. -1.
        -11    1    1    2    0    0  0.15611387065E+02  0.17302480054E+02 -0.20897586542E+02  0.31301762656E+02  0.00000000000E+00 0.  1.
         11    1    1    2    0    0  0.59429450773E+01 -0.64728650546E+02  0.37597344543E+02  0.75091125403E+02  0.00000000000E+00 0. -1.
<mgrwt>
<rscale>  0 0.12709555E+03</rscale>
<asrwt>0</asrwt>
<pdfrwt beam="1">  1        3 0.27098959E-01 0.13541764E+03</pdfrwt>
<pdfrwt beam="2">  1       -3 0.13054134E-01 0.13541764E+03</pdfrwt>
<totfact> 0.14033603E+03</totfact>
</mgrwt>
</event>
<event>
 6    1  0.7800420E-006  0.1429400E+03  0.7546771E-02  0.1227756E+00
          2   -1    0    0  501    0  0.00000000000E+00  0.00000000000E+00  0.16321558021E+04  0.16321558021E+04  0.00000000000E+00 0. -1.
         -2   -1    0    0    0  501 -0.00000000000E+00 -0.00000000000E+00 -0.12587290668E+02  0.12587290668E+02  0.00000000000E+00 0.  1.
          5    1    1    2  502    0 -0.61623889402E+02 -0.62416269954E+02  0.93208751389E+03  0.93621713190E+03  0.47000000000E+01 0. -1.
         -5    1    1    2    0  502  0.42695823536E+02  0.32342089702E+02  0.42937929233E+03  0.43273272444E+03  0.47000000000E+01 0.  1.
        -11    1    1    2    0    0  0.27026713099E+02 -0.17863954992E+02  0.18620055578E+03  0.18899791291E+03  0.00000000000E+00 0. -1.
         11    1    1    2    0    0 -0.80986472326E+01  0.47938135244E+02  0.71901149399E+02  0.86795323506E+02  0.00000000000E+00 0.  1.
<mgrwt>
<rscale>  0 0.12979800E+03</rscale>
<asrwt>0</asrwt>
<pdfrwt beam="1">  1        2 0.25110072E+00 0.14294000E+03</pdfrwt>
<pdfrwt beam="2">  1       -2 0.19365076E-02 0.14294000E+03</pdfrwt>
<totfact> 0.92214908E+03</totfact>
</mgrwt>
</event>
<event>
 7    1  0.7800420E-006  0.1688738E+03  0.7546771E-02  0.1185553E+00
          1   -1    0    0  501    0  0.00000000000E+00  0.00000000000E+00  0.86036015311E+03  0.86036015311E+03  0.00000000000E+00 0. -1.
         -1   -1    0    0    0  501 -0.00000000000E+00 -0.00000000000E+00 -0.51769959643E+02  0.51769959643E+02  0.00000000000E+00 0.  1.
         23    2    1    2    0    0 -0.71605491536E+02  0.88114762797E+02  0.72406940618E+03  0.74350175296E+03  0.12500717517E+03 0.  0.
          5    1    3    3  502    0  0.90648063003E+01  0.73809641637E+02  0.48615175177E+03  0.49182888250E+03  0.47000000000E+01 0.  1.
         -5    1    3    3    0  502 -0.80670297836E+02  0.14305121160E+02  0.23791765442E+03  0.25167287046E+03  0.47000000000E+01 0.  1.
        -11    1    1    2    0    0  0.47393963465E+02 -0.37390631616E+02 -0.74674947182E+01  0.60827712294E+02  0.00000000000E+00 0.  1.
         11    1    1    2    0    0  0.24211528071E+02 -0.50724131181E+02  0.91988281998E+02  0.10780064750E+03  0.00000000000E+00 0. -1.
<mgrwt>
<rscale>  0 0.16281638E+03</rscale>
<asrwt>0</asrwt>
<pdfrwt beam="1">  1        1 0.13236309E+00 0.16887377E+03</pdfrwt>
<pdfrwt beam="2">  1       -1 0.79646098E-02 0.16887377E+03</pdfrwt>
<totfact> 0.17720726E+03</totfact>
</mgrwt>
</event>
<event>
 7    1  0.7800420E-006  0.1439879E+03  0.7546771E-02  0.1218434E+00
         -1   -1    0    0    0  501 -0.00000000000E+00  0.00000000000E+00  0.12713597940E+03  0.12713597940E+03  0.00000000000E+00 0.  1.
          1   -1    0    0  501    0  0.00000000000E+00 -0.00000000000E+00 -0.13322001267E+03  0.13322001267E+03  0.00000000000E+00 0. -1.
         23    2    1    2    0    0 -0.32163947336E+02  0.63723324368E+02 -0.13366669677E+02  0.14460702627E+03  0.12504936070E+03 0.  0.
          5    1    3    3  502    0  0.30028692391E+02 -0.18422763836E+02 -0.20831441157E+02  0.41196596155E+02  0.47000000000E+01 0.  1.
         -5    1    3    3    0  502 -0.62192639727E+02  0.82146088204E+02  0.74647714791E+01  0.10341043012E+03  0.47000000000E+01 0.  1.
        -11    1    1    2    0    0  0.20267544122E+02 -0.23737477518E+02 -0.41264323577E+02  0.51739593968E+02  0.00000000000E+00 0. -1.
         11    1    1    2    0    0  0.11896403214E+02 -0.39985846850E+02  0.48546959985E+02  0.64009371825E+02  0.00000000000E+00 0.  1.
<mgrwt>
<rscale>  0 0.13627259E+03</rscale>
<asrwt>0</asrwt>
<pdfrwt beam="2">  1        1 0.20495387E-01 0.14398793E+03</pdfrwt>
<pdfrwt beam="1">  1       -1 0.19559381E-01 0.14398793E+03</pdfrwt>
<totfact> 0.49596128E+03</totfact>
</mgrwt>
</event>
<event>
 7    1  0.7800420E-006  0.1701912E+03  0.7546771E-02  0.1184110E+00
         -2   -1    0    0    0  501 -0.00000000000E+00  0.00000000000E+00  0.45788438618E+02  0.45788438618E+02  0.00000000000E+00 0.  1.
          2   -1    0    0  501    0  0.00000000000E+00 -0.00000000000E+00 -0.70852598079E+03  0.70852598079E+03  0.00000000000E+00 0. -1.
         23    2    1    2    0    0 -0.10993600631E+03  0.35431366239E+02 -0.52799110362E+03  0.55474285413E+03  0.12499488592E+03 0.  0.
          5    1    3    3  502    0 -0.92336249736E+02 -0.31189068977E+02 -0.36285780201E+03  0.37574807454E+03  0.47000000000E+01 0.  1.
         -5    1    3    3    0  502 -0.17599756574E+02  0.66620435216E+02 -0.16513330161E+03  0.17899477959E+03  0.47000000000E+01 0.  1.
        -11    1    1    2    0    0  0.43491738551E+01  0.14815307664E+02  0.60203520278E+01  0.16572667043E+02  0.00000000000E+00 0.  1.
         11    1    1    2    0    0  0.10558683245E+03 -0.50246673903E+02 -0.14076679058E+03  0.18299889824E+03  0.00000000000E+00 0. -1.
<mgrwt>
<rscale>  0 0.16413100E+03</rscale>
<asrwt>0</asrwt>
<pdfrwt beam="2">  1        2 0.10900399E+00 0.17019115E+03</pdfrwt>
<pdfrwt beam="1">  1       -2 0.70443759E-02 0.17019115E+03</pdfrwt>
<totfact> 0.46733066E+03</totfact>
</mgrwt>
</event>
<event>
 6    1  0.7800420E-006  0.1677930E+03  0.7546771E-02  0.1204768E+00
          1   -1    0    0  501    0  0.00000000000E+00  0.00000000000E+00  0.52975915329E+03  0.52975915329E+03  0.00000000000E+00 0. -1.
         -1   -1    0    0    0  501 -0.00000000000E+00 -0.00000000000E+00 -0.60643003496E+02  0.60643003496E+02  0.00000000000E+00 0.  1.
          5    1    1    2  502    0 -0.60540392835E+02 -0.11856110850E+02  0.40842834296E+03  0.41308777259E+03  0.47000000000E+01 0. -1.
         -5    1    1    2    0  502  0.53533067339E+02 -0.20951873008E+02  0.54669067782E+02  0.79470543306E+02  0.47000000000E+01 0.  1.
        -11    1    1    2    0    0 -0.17667574435E+02  0.33687317463E+02  0.40416512326E+02  0.55502009089E+02  0.00000000000E+00 0. -1.
         11    1    1    2    0    0  0.24674899931E+02 -0.87933360491E+00 -0.34397773274E+02  0.42341831803E+02  0.00000000000E+00 0.  1.
<mgrwt>
<rscale>  0 0.14655745E+03</rscale>
<asrwt>0</asrwt>
<pdfrwt beam="1">  1        1 0.81501405E-01 0.16779298E+03</pdfrwt>
<pdfrwt beam="2">  1       -1 0.93296932E-02 0.16779298E+03</pdfrwt>
<totfact> 0.27885585E+03</totfact>
</mgrwt>
</event>
<event>
 7    1  0.7800420E-006  0.1270255E+03  0.7546771E-02  0.1246892E+00
          1   -1    0    0  501    0  0.00000000000E+00  0.00000000000E+00  0.13738853064E+03  0.13738853064E+03  0.00000000000E+00 0. -1.
         -1   -1    0    0    0  501 -0.00000000000E+00 -0.00000000000E+00 -0.90244946770E+02  0.90244946770E+02  0.00000000000E+00 0.  1.
         23    2    1    2    0    0  0.18719202967E+02  0.12833104171E+02  0.41914847136E+02  0.13376219293E+03  0.12498148953E+03 0.  0.
          5    1    3    3  502    0 -0.31536123669E+02  0.40705306098E+02 -0.13870170656E+02  0.53534294379E+02  0.47000000000E+01 0. -1.
         -5    1    3    3    0  502  0.50255326636E+02 -0.27872201927E+02  0.55785017792E+02  0.80227898549E+02  0.47000000000E+01 0. -1.
        -11    1    1    2    0    0 -0.10391179018E+02  0.12418631137E+02 -0.39020927581E+02  0.42247269616E+02  0.00000000000E+00 0.  1.
         11    1    1    2    0    0 -0.83280239483E+01 -0.25251735308E+02  0.44249664317E+02  0.51624014868E+02  0.00000000000E+00 0. -1.
<mgrwt>
<rscale>  0 0.11772877E+03</rscale>
<asrwt>0</asrwt>
<pdfrwt beam="1">  1        1 0.21136697E-01 0.12702547E+03</pdfrwt>
<pdfrwt beam="2">  1       -1 0.13883838E-01 0.12702547E+03</pdfrwt>
<totfact> 0.81240810E+03</totfact>
</mgrwt>
</event>
<event>
 7    1  0.7800420E-006  0.1290695E+03  0.7546771E-02  0.1243999E+00
          1   -1    0    0  501    0  0.00000000000E+00  0.00000000000E+00  0.20176544077E+03  0.20176544077E+03  0.00000000000E+00 0. -1.
         -1   -1    0    0    0  501 -0.00000000000E+00 -0.00000000000E+00 -0.63412049558E+02  0.63412049558E+02  0.00000000000E+00 0.  1.
         23    2    1    2    0    0 -0.63235290335E+01 -0.31488394175E+02  0.98826737862E+02  0.16255971928E+03  0.12500972853E+03 0.  0.
          5    1    3    3  502    0  0.38047781007E+02  0.16022733488E+02  0.86867442780E+02  0.96293323980E+02  0.47000000000E+01 0.  1.
         -5    1    3    3    0  502 -0.44371310040E+02 -0.47511127663E+02  0.11959295082E+02  0.66266395295E+02  0.47000000000E+01 0.  1.
        -11    1    1    2    0    0  0.42859008757E+02  0.11995615847E+02 -0.12191577377E+01  0.44522755718E+02  0.00000000000E+00 0.  1.
         11    1    1    2    0    0 -0.36535479723E+02  0.19492778328E+02  0.40745811093E+02  0.58095015339E+02  0.00000000000E+00 0. -1.
<mgrwt>
<rscale>  0 0.11945518E+03</rscale>
<asrwt>0</asrwt>
<pdfrwt beam="1">  1        1 0.31040837E-01 0.12906951E+03</pdfrwt>
<pdfrwt beam="2">  1       -1 0.97557001E-02 0.12906951E+03</pdfrwt>
<totfact> 0.86523908E+03</totfact>
</mgrwt>
</event>
<event>
 7    1  0.7800420E-006  0.1322262E+03  0.7546771E-02  0.1237337E+00
          1   -1    0    0  501    0  0.00000000000E+00  0.00000000000E+00  0.10377723727E+04  0.10377723727E+04  0.00000000000E+00 0. -1.
         -1   -1    0    0    0  501 -0.00000000000E+00 -0.00000000000E+00 -0.15314099531E+02  0.15314099531E+02  0.00000000000E+00 0.  1.
         23    2    1    2    0    0 -0.13228122700E+02  0.41030032344E+02  0.76946821604E+03  0.78074649918E+03  0.12500125480E+03 0.  0.
          5    1    3    3  502    0  0.19912408982E+02 -0.46655190983E+01  0.19512818783E+02  0.28655037895E+02  0.47000000000E+01 0.  1.
         -5    1    3    3    0  502 -0.33140531681E+02  0.45695551442E+02  0.74995539726E+03  0.75209146128E+03  0.47000000000E+01 0.  1.
        -11    1    1    2    0    0 -0.59869242460E-01  0.26925814092E+02  0.11296845416E+03  0.11613300428E+03  0.00000000000E+00 0.  1.
         11    1    1    2    0    0  0.13287991942E+02 -0.67955846436E+02  0.14002160301E+03  0.15620696881E+03  0.00000000000E+00 0. -1.
<mgrwt>
<rscale>  0 0.12355974E+03</rscale>
<asrwt>0</asrwt>
<pdfrwt beam="1">  1        1 0.15965723E+00 0.13222617E+03</pdfrwt>
<pdfrwt beam="2">  1       -1 0.23560161E-02 0.13222617E+03</pdfrwt>
<totfact> 0.78180522E+03</totfact>
</mgrwt>
</event>
<event>
 7    1  0.7800420E-006  0.1284792E+03  0.7546771E-02  0.1240360E+00
          2   -1    0    0  501    0  0.00000000000E+00  0.00000000000E+00  0.38826696774E+03  0.38826696774E+03  0.00000000000E+00 0. -1.
         -2   -1    0    0    0  501 -0.00000000000E+00 -0.00000000000E+00 -0.47208061209E+02  0.47208061209E+02  0.00000000000E+00 0.  1.
         23    2    1    2    0    0  0.29438293815E+02 -0.39107010933E+01  0.29609890318E+03  0.32277153016E+03  0.12499997396E+03 0.  0.
          5    1    3    3  502    0  0.53867794040E+02  0.34004942449E+02  0.82107954201E+02  0.10402827255E+03  0.47000000000E+01 0. -1.
         -5    1    3    3    0  502 -0.24429500226E+02 -0.37915643542E+02  0.21399094898E+03  0.21874325761E+03  0.47000000000E+01 0. -1.
        -11    1    1    2    0    0  0.23176255066E+02  0.11231611195E+02  0.53048550158E+02  0.58969793647E+02  0.00000000000E+00 0. -1.
         11    1    1    2    0    0 -0.52614548881E+02 -0.73209101012E+01 -0.80885468087E+01  0.53733705141E+02  0.00000000000E+00 0.  1.
<mgrwt>
<rscale>  0 0.12167446E+03</rscale>
<asrwt>0</asrwt>
<pdfrwt beam="1">  1        2 0.59733378E-01 0.12847918E+03</pdfrwt>
<pdfrwt beam="2">  1       -2 0.72627789E-02 0.12847918E+03</pdfrwt>
<totfact> 0.86025976E+03</totfact>
</mgrwt>
</event>
<event>
 7    1  0.7800420E-006  0.1300225E+03  0.7546771E-02  0.1240850E+00
          1   -1    0    0  501    0  0.00000000000E+00  0.00000000000E+00  0.57053030287E+03  0.57053030287E+03  0.00000000000E+00 0. -1.
         -1   -1    0    0    0  501 -0.00000000000E+00 -0.00000000000E+00 -0.24376121303E+02  0.24376121303E+02  0.00000000000E+00 0.  1.
         23    2    1    2    0    0  0.16758515777E+02 -0.31721784735E+02  0.38006805864E+03  0.40169339345E+03  0.12497493212E+03 0.  0.
          5    1    3    3  502    0  0.11812341994E+02 -0.77432771800E+02  0.29040368399E+03  0.30081847557E+03  0.47000000000E+01 0.  1.
         -5    1    3    3    0  502  0.49461737833E+01  0.45710987064E+02  0.89664374654E+02  0.10087491787E+03  0.47000000000E+01 0.  1.
        -11    1    1    2    0    0  0.21282429517E+02 -0.14934957228E+02  0.10210559920E+03  0.10536388443E+03  0.00000000000E+00 0. -1.
         11    1    1    2    0    0 -0.38040945295E+02  0.46656741964E+02  0.63980523721E+02  0.87849146298E+02  0.00000000000E+00 0.  1.
<mgrwt>
<rscale>  0 0.12137269E+03</rscale>
<asrwt>0</asrwt>
<pdfrwt beam="1">  1        1 0.87773883E-01 0.13002251E+03</pdfrwt>
<pdfrwt beam="2">  1       -1 0.37501729E-02 0.13002251E+03</pdfrwt>
<totfact> 0.97254549E+03</totfact>
</mgrwt>
</event>
<event>
 7    1  0.7800420E-006  0.1798458E+03  0.7546771E-02  0.1179349E+00
          2   -1    0    0  501    0  0.00000000000E+00  0.00000000000E+00  0.98796720485E+02  0.98796720485E+02  0.00000000000E+00 0. -1.
         -2   -1    0    0    0  501 -0.00000000000E+00 -0.00000000000E+00 -0.26003355605E+03  0.26003355605E+03  0.00000000000E+00 0.  1.
         23    2    1    2    0    0  0.43749705133E+02 -0.12166928484E+03 -0.71454430904E+02  0.19352070574E+03  0.12500830486E+03 0.  0.
          5    1    3    3  502    0  0.59513315781E+02 -0.48140871037E+02  0.15732737315E+02  0.78287848628E+02  0.47000000000E+01 0.  1.
         -5    1    3    3    0  502 -0.15763610648E+02 -0.73528413802E+02 -0.87187168219E+02  0.11523285712E+03  0.47000000000E+01 0.  1.
        -11    1    1    2    0    0 -0.88132477636E+01  0.62943453278E+02 -0.17678087600E+02  0.65970193481E+02  0.00000000000E+00 0. -1.
         11    1    1    2    0    0 -0.34936457370E+02  0.58725831560E+02 -0.72104317064E+02  0.99339377314E+02  0.00000000000E+00 0.  1.
<mgrwt>
<rscale>  0 0.16856807E+03</rscale>
<asrwt>0</asrwt>
<pdfrwt beam="1">  1        2 0.15199496E-01 0.17984584E+03</pdfrwt>
<pdfrwt beam="2">  1       -2 0.40005162E-01 0.17984584E+03</pdfrwt>
<totfact> 0.22396127E+03</totfact>
</mgrwt>
</event>
<event>
 7    1  0.7800420E-006  0.1415363E+03  0.7546771E-02  0.1225053E+00
          1   -1    0    0  501    0  0.00000000000E+00  0.00000000000E+00  0.39485594173E+03  0.39485594173E+03  0.00000000000E+00 0. -1.
         -1   -1    0    0    0  501 -0.00000000000E+00 -0.00000000000E+00 -0.48647281122E+02  0.48647281122E+02  0.00000000000E+00 0.  1.
         23    2    1    2    0    0 -0.52861847133E+02 -0.40205476563E+02  0.29211181807E+03  0.32459488498E+03  0.12498667878E+03 0.  0.
          5    1    3    3  502    0 -0.78867488438E+02 -0.28595273991E+02  0.10129632997E+03  0.13160853655E+03  0.47000000000E+01 0. -1.
         -5    1    3    3    0  502  0.26005641305E+02 -0.11610202572E+02  0.19081548810E+03  0.19298634843E+03  0.47000000000E+01 0. -1.
        -11    1    1    2    0    0  0.54999136340E+01  0.42098612603E+02 -0.54441951786E+01  0.42803989233E+02  0.00000000000E+00 0.  1.
         11    1    1    2    0    0  0.47361933499E+02 -0.18931360399E+01  0.59541037712E+02  0.76104348632E+02  0.00000000000E+00 0. -1.
<mgrwt>
<rscale>  0 0.13163300E+03</rscale>
<asrwt>0</asrwt>
<pdfrwt beam="1">  1        1 0.60747066E-01 0.14153630E+03</pdfrwt>
<pdfrwt beam="2">  1       -1 0.74841974E-02 0.14153630E+03</pdfrwt>
<totfact> 0.56503832E+03</totfact>
</mgrwt>
</event>
<event>
 7    1  0.7800420E-006  0.2044791E+03  0.7546771E-02  0.1149955E+00
         -1   -1    0    0    0  501 -0.00000000000E+00  0.00000000000E+00  0.49036329672E+02  0.49036329672E+02  0.00000000000E+00 0.  1.
          1   -1    0    0  501    0  0.00000000000E+00 -0.00000000000E+00 -0.85915377720E+03  0.85915377720E+03  0.00000000000E+00 0. -1.
         23    2    1    2    0    0  0.64208357744E+01 -0.16171955926E+03 -0.56157735819E+03  0.59764607309E+03  0.12496902202E+03 0.  0.
          5    1    3    3  502    0 -0.36774905471E+01 -0.29336245407E+02 -0.32454169183E+03  0.32591952836E+03  0.47000000000E+01 0.  1.
         -5    1    3    3    0  502  0.10098326322E+02 -0.13238331385E+03 -0.23703566636E+03  0.27172654472E+03  0.47000000000E+01 0.  1.
        -11    1    1    2    0    0 -0.26038239323E+02  0.80887010442E+02 -0.58692231833E+02  0.10327379359E+03  0.00000000000E+00 0.  1.
         11    1    1    2    0    0  0.19617403548E+02  0.80832548819E+02 -0.18984785751E+03  0.20727024020E+03  0.00000000000E+00 0. -1.
<mgrwt>
<rscale>  0 0.19974400E+03</rscale>
<asrwt>0</asrwt>
<pdfrwt beam="2">  1        1 0.13217749E+00 0.20447909E+03</pdfrwt>
<pdfrwt beam="1">  1       -1 0.75440513E-02 0.20447909E+03</pdfrwt>
<totfact> 0.19330756E+03</totfact>
</mgrwt>
</event>
<event>
 6    1  0.7800420E-006  0.3563025E+03  0.7546771E-02  0.1100133E+00
          1   -1    0    0  501    0  0.00000000000E+00  0.00000000000E+00  0.18732474408E+03  0.18732474408E+03  0.00000000000E+00 0. -1.
         -1   -1    0    0    0  501 -0.00000000000E+00 -0.00000000000E+00 -0.48556812048E+03  0.48556812048E+03  0.00000000000E+00 0.  1.
          5    1    1    2  502    0  0.10927195228E+03  0.16123329381E+03  0.84726972187E+02  0.21245537038E+03  0.47000000000E+01 0. -1.
         -5    1    1    2    0  502 -0.62640809490E+02 -0.92589844745E+02 -0.90479408049E+02  0.14389358444E+03  0.47000000000E+01 0.  1.
        -11    1    1    2    0    0  0.23786597578E+02 -0.19518898307E+02 -0.11977136451E+03  0.12366070262E+03  0.00000000000E+00 0. -1.
         11    1    1    2    0    0 -0.70417740371E+02 -0.49124550758E+02 -0.17271957602E+03  0.19288320712E+03  0.00000000000E+00 0.  1.
<mgrwt>
<rscale>  0 0.27201354E+03</rscale>
<asrwt>0</asrwt>
<pdfrwt beam="1">  1        1 0.28819192E-01 0.35630252E+03</pdfrwt>
<pdfrwt beam="2">  1       -1 0.74702787E-01 0.35630252E+03</pdfrwt>
<totfact> 0.29976492E+02</totfact>
</mgrwt>
</event>
<event>
 6    1  0.7800420E-006  0.1992077E+03  0.7546771E-02  0.1185492E+00
         -2   -1    0    0    0  501 -0.00000000000E+00  0.00000000000E+00  0.94548060847E+02  0.94548060847E+02  0.00000000000E+00 0.  1.
          2   -1    0    0  501    0  0.00000000000E+00 -0.00000000000E+00 -0.24210068028E+03  0.24210068028E+03  0.00000000000E+00 0. -1.
          5    1    1    2  502    0  0.22889685838E+02  0.85717870947E+00 -0.18905874405E+03  0.19049926817E+03  0.47000000000E+01 0. -1.
         -5    1    1    2    0  502 -0.38474244824E+02  0.98141999460E+00  0.41961423776E+02  0.57132143189E+02  0.47000000000E+01 0.  1.
        -11    1    1    2    0    0  0.25678021643E+02  0.30205024668E+02  0.24998295915E+02  0.46868103326E+02  0.00000000000E+00 0. -1.
         11    1    1    2    0    0 -0.10093462656E+02 -0.32043623372E+02 -0.25453595076E+02  0.42149226440E+02  0.00000000000E+00 0.  1.
<mgrwt>
<rscale>  0 0.16287212E+03</rscale>
<asrwt>0</asrwt>
<pdfrwt beam="2">  1        2 0.37246258E-01 0.19920767E+03</pdfrwt>
<pdfrwt beam="1">  1       -2 0.14545856E-01 0.19920767E+03</pdfrwt>
<totfact> 0.48700301E+03</totfact>
</mgrwt>
</event>
<event>
 7    1  0.7800420E-006  0.1337553E+03  0.7546771E-02  0.1234866E+00
         -1   -1    0    0    0  501 -0.00000000000E+00  0.00000000000E+00  0.25913923298E+03  0.25913923298E+03  0.00000000000E+00 0.  1.
          1   -1    0    0  501    0  0.00000000000E+00 -0.00000000000E+00 -0.54911838782E+02  0.54911838782E+02  0.00000000000E+00 0. -1.
         23    2    1    2    0    0 -0.39465462575E+02  0.26817450752E+02  0.93482172477E+02  0.16318518097E+03  0.12495514522E+03 0.  0.
          5    1    3    3  502    0  0.32754025572E+02  0.31229939444E+02  0.76034951034E+02  0.88608910882E+02  0.47000000000E+01 0.  1.
         -5    1    3    3    0  502 -0.72219488147E+02 -0.44124886916E+01  0.17447221442E+02  0.74576270091E+02  0.47000000000E+01 0.  1.
        -11    1    1    2    0    0 -0.19187487081E+02  0.16876270463E+02  0.12669993789E+02  0.28521867187E+02  0.00000000000E+00 0.  1.
         11    1    1    2    0    0  0.58652949657E+02 -0.43693721215E+02  0.98075227929E+02  0.12234402360E+03  0.00000000000E+00 0. -1.
<mgrwt>
<rscale>  0 0.12512997E+03</rscale>
<asrwt>0</asrwt>
<pdfrwt beam="2">  1        1 0.84479754E-02 0.13375532E+03</pdfrwt>
<pdfrwt beam="1">  1       -1 0.39867573E-01 0.13375532E+03</pdfrwt>
<totfact> 0.47810510E+03</totfact>
</mgrwt>
</event>
<event>
 7    1  0.7800420E-006  0.1380420E+03  0.7546771E-02  0.1227103E+00
          2   -1    0    0  501    0  0.00000000000E+00  0.00000000000E+00  0.17599177048E+04  0.17599177048E+04  0.00000000000E+00 0. -1.
         -2   -1    0    0    0  501 -0.00000000000E+00 -0.00000000000E+00 -0.10762015340E+02  0.10762015340E+02  0.00000000000E+00 0.  1.
         23    2    1    2    0    0 -0.26846927139E+02  0.55496678860E+02  0.13422866159E+04  0.13493661297E+04  0.12351094677E+03 0.  0.
          5    1    3    3  502    0 -0.61418251121E+02  0.24780403700E+02  0.11346036982E+04  0.11365447250E+04  0.47000000000E+01 0. -1.
         -5    1    3    3    0  502  0.34571323982E+02  0.30716275160E+02  0.20768291764E+03  0.21282140466E+03  0.47000000000E+01 0.  1.
        -11    1    1    2    0    0 -0.28434162372E+02  0.29246283823E+01  0.12234593137E+03  0.12564068594E+03  0.00000000000E+00 0. -1.
         11    1    1    2    0    0  0.55281089510E+02 -0.58421307242E+02  0.28452314223E+03  0.29567290451E+03  0.00000000000E+00 0.  1.
<mgrwt>
<rscale>  0 0.13023781E+03</rscale>
<asrwt>0</asrwt>
<pdfrwt beam="1">  1        2 0.27075634E+00 0.13804200E+03</pdfrwt>
<pdfrwt beam="2">  1       -2 0.16556961E-02 0.13804200E+03</pdfrwt>
<totfact> 0.99371975E+03</totfact>
</mgrwt>
</event>
<event>
 7    1  0.7800420E-006  0.1300808E+03  0.7546771E-02  0.1240793E+00
         -2   -1    0    0    0  501 -0.00000000000E+00  0.00000000000E+00  0.28629991447E+02  0.28629991447E+02  0.00000000000E+00 0.  1.
          2   -1    0    0  501    0  0.00000000000E+00 -0.00000000000E+00 -0.49971998802E+03  0.49971998802E+03  0.00000000000E+00 0. -1.
         23    2    1    2    0    0 -0.35230884881E+02  0.74305217497E+01 -0.34159920177E+03  0.36552843011E+03  0.12499836263E+03 0.  0.
          5    1    3    3  502    0  0.21890102484E+02  0.24802460746E+02 -0.27055023079E+03  0.27260567864E+03  0.47000000000E+01 0. -1.
         -5    1    3    3    0  502 -0.57120987365E+02 -0.17371938997E+02 -0.71048970984E+02  0.92922751466E+02  0.47000000000E+01 0. -1.
        -11    1    1    2    0    0 -0.23257884329E+02 -0.24938537809E+02 -0.68525802997E+02  0.76541789422E+02  0.00000000000E+00 0. -1.
         11    1    1    2    0    0  0.58488769209E+02  0.17508016060E+02 -0.60964991806E+02  0.86279759943E+02  0.00000000000E+00 0.  1.
<mgrwt>
<rscale>  0 0.12140777E+03</rscale>
<asrwt>0</asrwt>
<pdfrwt beam="2">  1        2 0.76879988E-01 0.13008082E+03</pdfrwt>
<pdfrwt beam="1">  1       -2 0.44046146E-02 0.13008082E+03</pdfrwt>
<totfact> 0.13958997E+04</totfact>
</mgrwt>
</event>
<event>
 7    1  0.7800420E-006  0.2021929E+03  0.7546771E-02  0.1151830E+00
         -2   -1    0    0    0  501 -0.00000000000E+00  0.00000000000E+00  0.11622475767E+03  0.11622475767E+03  0.00000000000E+00 0.  1.
          2   -1    0    0  501    0  0.00000000000E+00 -0.00000000000E+00 -0.39617184933E+03  0.39617184933E+03  0.00000000000E+00 0. -1.
         23    2    1    2    0    0  0.94367583059E+02 -0.12787851222E+03 -0.25662106381E+03  0.32670525985E+03  0.12499520712E+03 0.  0.
          5    1    3    3  502    0  0.65452891878E+02 -0.80773391773E+02 -0.25005508086E+03  0.27084692233E+03  0.47000000000E+01 0. -1.
         -5    1    3    3    0  502  0.28914691181E+02 -0.47105120446E+02 -0.65659829529E+01  0.55858337520E+02  0.47000000000E+01 0. -1.
        -11    1    1    2    0    0 -0.11269889941E+03  0.11347660211E+03 -0.13859711494E+02  0.16053059758E+03  0.00000000000E+00 0.  1.
         11    1    1    2    0    0  0.18331316354E+02  0.14401910109E+02 -0.94663163525E+01  0.25160749578E+02  0.00000000000E+00 0. -1.
<mgrwt>
<rscale>  0 0.19754172E+03</rscale>
<asrwt>0</asrwt>
<pdfrwt beam="2">  1        2 0.60949515E-01 0.20219287E+03</pdfrwt>
<pdfrwt beam="1">  1       -2 0.17880732E-01 0.20219287E+03</pdfrwt>
<totfact> 0.20356382E+03</totfact>
</mgrwt>
</event>
<event>
 7    1  0.7800420E-006  0.1350082E+03  0.7546771E-02  0.1233232E+00
          1   -1    0    0  501    0  0.00000000000E+00  0.00000000000E+00  0.11440866015E+03  0.11440866015E+03  0.00000000000E+00 0. -1.
         -1   -1    0    0    0  501 -0.00000000000E+00 -0.00000000000E+00 -0.14414058169E+03  0.14414058169E+03  0.00000000000E+00 0.  1.
         23    2    1    2    0    0  0.42829368720E+02 -0.27756759485E+02  0.31596826458E+02  0.13865634594E+03  0.12498972080E+03 0.  0.
          5    1    3    3  502    0 -0.22253692774E+02 -0.36708880112E+02 -0.26638655679E+02  0.50739301311E+02  0.47000000000E+01 0. -1.
         -5    1    3    3    0  502  0.65083061494E+02  0.89521206262E+01  0.58235482137E+02  0.87917044632E+02  0.47000000000E+01 0. -1.
        -11    1    1    2    0    0 -0.88290512829E+01  0.31088208357E+02 -0.76096371571E+02  0.82674582621E+02  0.00000000000E+00 0.  1.
         11    1    1    2    0    0 -0.34000317437E+02 -0.33314488714E+01  0.14767623575E+02  0.37218313280E+02  0.00000000000E+00 0. -1.
<mgrwt>
<rscale>  0 0.12618288E+03</rscale>
<asrwt>0</asrwt>
<pdfrwt beam="1">  1        1 0.17601332E-01 0.13500823E+03</pdfrwt>
<pdfrwt beam="2">  1       -1 0.22175474E-01 0.13500823E+03</pdfrwt>
<totfact> 0.48998387E+03</totfact>
</mgrwt>
</event>
<event>
 7    1  0.7800420E-006  0.1361185E+03  0.7546771E-02  0.1230720E+00
          1   -1    0    0  501    0  0.00000000000E+00  0.00000000000E+00  0.56776449195E+03  0.56776449195E+03  0.00000000000E+00 0. -1.
         -1   -1    0    0    0  501 -0.00000000000E+00 -0.00000000000E+00 -0.26469749172E+02  0.26469749172E+02  0.00000000000E+00 0.  1.
         23    2    1    2    0    0  0.53827577558E+02  0.25589695282E+01  0.35116930992E+03  0.37662732063E+03  0.12499719193E+03 0.  0.
          5    1    3    3  502    0 -0.17487204659E+02  0.11461486328E+02  0.36691721943E+01  0.21742143874E+02  0.47000000000E+01 0.  1.
         -5    1    3    3    0  502  0.71314782217E+02 -0.89025168002E+01  0.34750013772E+03  0.35488517676E+03  0.47000000000E+01 0.  1.
        -11    1    1    2    0    0 -0.19487361136E+02 -0.31104241776E+02  0.15898267645E+03  0.16316470976E+03  0.00000000000E+00 0. -1.
         11    1    1    2    0    0 -0.34340216422E+02  0.28545272248E+02  0.31142756412E+02  0.54442210724E+02  0.00000000000E+00 0.  1.
<mgrwt>
<rscale>  0 0.12782472E+03</rscale>
<asrwt>0</asrwt>
<pdfrwt beam="1">  1        1 0.87348374E-01 0.13611853E+03</pdfrwt>
<pdfrwt beam="2">  1       -1 0.40722695E-02 0.13611853E+03</pdfrwt>
<totfact> 0.87013925E+03</totfact>
</mgrwt>
</event>
<event>
 7    1  0.7800420E-006  0.2775608E+03  0.7546771E-02  0.1098434E+00
         -1   -1    0    0    0  501 -0.00000000000E+00  0.00000000000E+00  0.73083123427E+03  0.73083123427E+03  0.00000000000E+00 0.  1.
          1   -1    0    0  501    0  0.00000000000E+00 -0.00000000000E+00 -0.10309245640E+03  0.10309245640E+03  0.00000000000E+00 0. -1.
         23    2    1    2    0    0  0.58161790105E+01  0.24775459436E+03  0.27035365136E+03  0.38746755514E+03  0.12499536999E+03 0.  0.
          5    1    3    3  502    0  0.45606269726E+02  0.28758877646E+02  0.65093521242E+02  0.84653773628E+02  0.47000000000E+01 0. -1.
         -5    1    3    3    0  502 -0.39790090715E+02  0.21899571671E+03  0.20526013012E+03  0.30281378152E+03  0.47000000000E+01 0. -1.
        -11    1    1    2    0    0  0.26447948868E+02 -0.70517316847E+02  0.17295389164E+03  0.18864049037E+03  0.00000000000E+00 0. -1.
         11    1    1    2    0    0 -0.32264127878E+02 -0.17723727751E+03  0.18443123487E+03  0.25781564515E+03  0.00000000000E+00 0.  1.
<mgrwt>
<rscale>  0 0.27503120E+03</rscale>
<asrwt>0</asrwt>
<pdfrwt beam="2">  1        1 0.15860378E-01 0.27756082E+03</pdfrwt>
<pdfrwt beam="1">  1       -1 0.11243557E+00 0.27756082E+03</pdfrwt>
<totfact> 0.26763171E+02</totfact>
</mgrwt>
</event>
<event>
 7    1  0.7800420E-006  0.2830924E+03  0.7546771E-02  0.1095964E+00
          2   -1    0    0  501    0  0.00000000000E+00  0.00000000000E+00  0.15425427576E+03  0.15425427576E+03  0.00000000000E+00 0.  1.
         -2   -1    0    0    0  501 -0.00000000000E+00 -0.00000000000E+00 -0.49396913685E+03  0.49396913685E+03  0.00000000000E+00 0. -1.
         23    2    1    2    0    0 -0.11661945123E+03  0.22564467142E+03 -0.17305624766E+03  0.33179782744E+03  0.12500287713E+03 0.  0.
          5    1    3    3  502    0 -0.69547784295E+02  0.21654924729E+03 -0.16911427213E+03  0.28346463243E+03  0.47000000000E+01 0.  1.
         -5    1    3    3    0  502 -0.47071666939E+02  0.90954241370E+01 -0.39419755287E+01  0.48333195008E+02  0.47000000000E+01 0.  1.
        -11    1    1    2    0    0  0.97393800247E+02 -0.20654484535E+03 -0.17540739116E+03  0.28794804799E+03  0.00000000000E+00 0. -1.
         11    1    1    2    0    0  0.19225650987E+02 -0.19099826074E+02  0.87487777314E+01  0.28477537178E+02  0.00000000000E+00 0.  1.
<mgrwt>
<rscale>  0 0.27949631E+03</rscale>
<asrwt>0</asrwt>
<pdfrwt beam="1">  1        2 0.23731427E-01 0.28309245E+03</pdfrwt>
<pdfrwt beam="2">  1       -2 0.75995252E-01 0.28309245E+03</pdfrwt>
<totfact> 0.36533517E+02</totfact>
</mgrwt>
</event>
<event>
 7    1  0.7800420E-006  0.1328670E+03  0.7546771E-02  0.1235818E+00
          2   -1    0    0  501    0  0.00000000000E+00  0.00000000000E+00  0.15752865736E+04  0.15752865736E+04  0.00000000000E+00 0.  1.
         -2   -1    0    0    0  501 -0.00000000000E+00 -0.00000000000E+00 -0.17515253582E+02  0.17515253582E+02  0.00000000000E+00 0. -1.
         23    2    1    2    0    0  0.23511399959E+02 -0.38414704857E+02  0.13890125011E+04  0.13953527724E+04  0.12500062342E+03 0.  0.
          5    1    3    3  502    0 -0.23733387330E+02 -0.10140182837E+02  0.11391764898E+04  0.11394785044E+04  0.47000000000E+01 0.  1.
         -5    1    3    3    0  502  0.47244787288E+02 -0.28274522020E+02  0.24983601126E+03  0.25587426804E+03  0.47000000000E+01 0.  1.
        -11    1    1    2    0    0 -0.47922133494E+02  0.44335160736E+02  0.15634993773E+03  0.16943270164E+03  0.00000000000E+00 0.  1.
         11    1    1    2    0    0  0.24410733535E+02 -0.59204558790E+01  0.12408881201E+02  0.28016353121E+02  0.00000000000E+00 0. -1.
<mgrwt>
<rscale>  0 0.12452183E+03</rscale>
<asrwt>0</asrwt>
<pdfrwt beam="1">  1        2 0.24235167E+00 0.13286697E+03</pdfrwt>
<pdfrwt beam="2">  1       -2 0.26946556E-02 0.13286697E+03</pdfrwt>
<totfact> 0.60803313E+03</totfact>
</mgrwt>
</event>
<event>
 7    1  0.7800420E-006  0.1369832E+03  0.7546771E-02  0.1228896E+00
          1   -1    0    0  501    0  0.00000000000E+00  0.00000000000E+00  0.56912498897E+02  0.56912498897E+02  0.00000000000E+00 0. -1.
         -1   -1    0    0    0  501 -0.00000000000E+00 -0.00000000000E+00 -0.26504097257E+03  0.26504097257E+03  0.00000000000E+00 0.  1.
         23    2    1    2    0    0  0.55980398329E+02  0.43419209923E+01 -0.10344569130E+03  0.17165494867E+03  0.12494700108E+03 0.  0.
          5    1    3    3  502    0  0.70881986717E+02  0.50041072291E+02 -0.52824117312E+02  0.10168993228E+03  0.47000000000E+01 0. -1.
         -5    1    3    3    0  502 -0.14901588387E+02 -0.45699151299E+02 -0.50621573986E+02  0.69965016392E+02  0.47000000000E+01 0. -1.
        -11    1    1    2    0    0  0.67523199278E+01  0.29969839153E+02 -0.11409128432E+02  0.32771226631E+02  0.00000000000E+00 0.  1.
         11    1    1    2    0    0 -0.62732718257E+02 -0.34311760146E+02 -0.93273653940E+02  0.11752729616E+03  0.00000000000E+00 0. -1.
<mgrwt>
<rscale>  0 0.12903380E+03</rscale>
<asrwt>0</asrwt>
<pdfrwt beam="1">  1        1 0.87557690E-02 0.13698325E+03</pdfrwt>
<pdfrwt beam="2">  1       -1 0.40775534E-01 0.13698325E+03</pdfrwt>
<totfact> 0.43877466E+03</totfact>
</mgrwt>
</event>
<event>
 7    1  0.7800420E-006  0.1318657E+03  0.7546771E-02  0.1238709E+00
         -1   -1    0    0    0  501 -0.00000000000E+00  0.00000000000E+00  0.10493943327E+03  0.10493943327E+03  0.00000000000E+00 0.  1.
          1   -1    0    0  501    0  0.00000000000E+00 -0.00000000000E+00 -0.28282686289E+03  0.28282686289E+03  0.00000000000E+00 0. -1.
         23    2    1    2    0    0 -0.29981457478E+02 -0.18084606117E+02 -0.23798831365E+03  0.27207904361E+03  0.12713232385E+03 0.  0.
          5    1    3    3  502    0 -0.95396285763E+01  0.36512871469E+02 -0.19705234709E+03  0.20068859407E+03  0.47000000000E+01 0. -1.
         -5    1    3    3    0  502 -0.20441828901E+02 -0.54597477585E+02 -0.40935966565E+02  0.71390449544E+02  0.47000000000E+01 0.  1.
        -11    1    1    2    0    0  0.56393099479E+02  0.32883187193E+02  0.54188658857E+02  0.84840417358E+02  0.00000000000E+00 0.  1.
         11    1    1    2    0    0 -0.26411642001E+02 -0.14798581076E+02  0.59122251771E+01  0.30846835196E+02  0.00000000000E+00 0. -1.
<mgrwt>
<rscale>  0 0.12269975E+03</rscale>
<asrwt>0</asrwt>
<pdfrwt beam="2">  1        1 0.43511825E-01 0.13186572E+03</pdfrwt>
<pdfrwt beam="1">  1       -1 0.16144528E-01 0.13186572E+03</pdfrwt>
<totfact> 0.26182277E+03</totfact>
</mgrwt>
</event>
<event>
 7    1  0.7800420E-006  0.1357828E+03  0.7546771E-02  0.1231719E+00
         -1   -1    0    0    0  501 -0.00000000000E+00  0.00000000000E+00  0.25899430475E+02  0.25899430475E+02  0.00000000000E+00 0.  1.
          1   -1    0    0  501    0  0.00000000000E+00 -0.00000000000E+00 -0.58322628596E+03  0.58322628596E+03  0.00000000000E+00 0. -1.
         23    2    1    2    0    0 -0.53347130565E+01 -0.52767105616E+02 -0.37722302044E+03  0.40091665399E+03  0.12499651873E+03 0.  0.
          5    1    3    3  502    0 -0.22091232160E+02 -0.82046724762E+02 -0.33988615175E+03  0.35037747321E+03  0.47000000000E+01 0.  1.
         -5    1    3    3    0  502  0.16756519104E+02  0.29279619146E+02 -0.37336868694E+02  0.50539180778E+02  0.47000000000E+01 0.  1.
        -11    1    1    2    0    0  0.51488464248E+01  0.15489691764E+02  0.67568687729E+01  0.17666251613E+02  0.00000000000E+00 0.  1.
         11    1    1    2    0    0  0.18586663169E+00  0.37277413852E+02 -0.18686070381E+03  0.19054281083E+03  0.00000000000E+00 0. -1.
<mgrwt>
<rscale>  0 0.12716851E+03</rscale>
<asrwt>0</asrwt>
<pdfrwt beam="2">  1        1 0.89727118E-01 0.13578275E+03</pdfrwt>
<pdfrwt beam="1">  1       -1 0.39845279E-02 0.13578275E+03</pdfrwt>
<totfact> 0.86636984E+03</totfact>
</mgrwt>
</event>
<event>
 7    1  0.7800420E-006  0.1270571E+03  0.7546771E-02  0.1246962E+00
          4   -1    0    0  501    0  0.00000000000E+00  0.00000000000E+00  0.34528219640E+03  0.34528219640E+03  0.00000000000E+00 0.  1.
         -4   -1    0    0    0  501 -0.00000000000E+00 -0.00000000000E+00 -0.39682275648E+02  0.39682275648E+02  0.00000000000E+00 0. -1.
         23    2    1    2    0    0 -0.22297684967E+02 -0.46172071266E+01  0.23724144101E+03  0.26912266982E+03  0.12500001889E+03 0.  0.
          5    1    3    3  502    0  0.43171940644E+02 -0.32401297733E+02  0.12394483419E+03  0.13527036806E+03  0.47000000000E+01 0. -1.
         -5    1    3    3    0  502 -0.65469625611E+02  0.27784090607E+02  0.11329660682E+03  0.13385230176E+03  0.47000000000E+01 0. -1.
        -11    1    1    2    0    0 -0.50078436551E+01  0.20313532713E+02 -0.15647401732E+02  0.26125835687E+02  0.00000000000E+00 0. -1.
         11    1    1    2    0    0  0.27305528622E+02 -0.15696325586E+02  0.84005881474E+02  0.89715966541E+02  0.00000000000E+00 0.  1.
<mgrwt>
<rscale>  0 0.11768691E+03</rscale>
<asrwt>0</asrwt>
<pdfrwt beam="1">  1        4 0.53120336E-01 0.12705711E+03</pdfrwt>
<pdfrwt beam="2">  1       -4 0.61049657E-02 0.12705711E+03</pdfrwt>
<totfact> 0.96288178E+02</totfact>
</mgrwt>
</event>
<event>
 6    1  0.7800420E-006  0.3090225E+03  0.7546771E-02  0.1128862E+00
         -1   -1    0    0    0  501 -0.00000000000E+00  0.00000000000E+00  0.13815172470E+03  0.13815172470E+03  0.00000000000E+00 0.  1.
          1   -1    0    0  501    0  0.00000000000E+00 -0.00000000000E+00 -0.29048087386E+03  0.29048087386E+03  0.00000000000E+00 0. -1.
          5    1    1    2  502    0 -0.13445534848E+03 -0.75272138044E+02 -0.43793067406E+02  0.16026246677E+03  0.47000000000E+01 0. -1.
         -5    1    1    2    0  502  0.13013042712E+03  0.77745720235E+02 -0.91113262426E+02  0.17692383013E+03  0.47000000000E+01 0.  1.
        -11    1    1    2    0    0  0.11632127032E+02 -0.19862449982E+02 -0.49298905633E+02  0.54407769621E+02  0.00000000000E+00 0. -1.
         11    1    1    2    0    0 -0.73072056663E+01  0.17388867791E+02  0.31876086305E+02  0.37038532042E+02  0.00000000000E+00 0.  1.
<mgrwt>
<rscale>  0 0.22686987E+03</rscale>
<asrwt>0</asrwt>
<pdfrwt beam="2">  1        1 0.44689364E-01 0.30902246E+03</pdfrwt>
<pdfrwt beam="1">  1       -1 0.21254112E-01 0.30902246E+03</pdfrwt>
<totfact> 0.16667867E+03</totfact>
</mgrwt>
</event>
<event>
 7    1  0.7800420E-006  0.1384821E+03  0.7546771E-02  0.1226285E+00
         -3   -1    0    0    0  501 -0.00000000000E+00  0.00000000000E+00  0.16359167123E+03  0.16359167123E+03  0.00000000000E+00 0.  1.
          3   -1    0    0  501    0  0.00000000000E+00 -0.00000000000E+00 -0.10009972380E+03  0.10009972380E+03  0.00000000000E+00 0. -1.
         23    2    1    2    0    0  0.44650179995E+02 -0.39434096194E+02  0.41664674356E+01  0.13854480277E+03  0.12501446480E+03 0.  0.
          5    1    3    3  502    0 -0.11813413334E+02 -0.13145371409E+02  0.55033064332E+02  0.57992117515E+02  0.47000000000E+01 0. -1.
         -5    1    3    3    0  502  0.56463593329E+02 -0.26288724785E+02 -0.50866596896E+02  0.80552685258E+02  0.47000000000E+01 0. -1.
        -11    1    1    2    0    0 -0.19429921230E+02  0.45830197123E+02 -0.10286975799E+02  0.50830607693E+02  0.00000000000E+00 0. -1.
         11    1    1    2    0    0 -0.25220258765E+02 -0.63961009291E+01  0.69612455795E+02  0.74315984560E+02  0.00000000000E+00 0.  1.
<mgrwt>
<rscale>  0 0.13079234E+03</rscale>
<asrwt>0</asrwt>
<pdfrwt beam="2">  1        3 0.15399957E-01 0.13848214E+03</pdfrwt>
<pdfrwt beam="1">  1       -3 0.25167949E-01 0.13848214E+03</pdfrwt>
<totfact> 0.12157937E+03</totfact>
</mgrwt>
</event>
<event>
 7    1  0.7800420E-006  0.1619172E+03  0.7546771E-02  0.1194446E+00
         -1   -1    0    0    0  501 -0.00000000000E+00  0.00000000000E+00  0.47137829558E+02  0.47137829558E+02  0.00000000000E+00 0.  1.
          1   -1    0    0  501    0  0.00000000000E+00 -0.00000000000E+00 -0.73490432581E+03  0.73490432581E+03  0.00000000000E+00 0. -1.
         23    2    1    2    0    0  0.54272683339E+02  0.87446171266E+02 -0.59689325830E+03  0.61846482105E+03  0.12499926418E+03 0.  0.
          5    1    3    3  502    0  0.20633009052E+02  0.10683766706E+03 -0.52914181056E+03  0.54023435086E+03  0.47000000000E+01 0.  1.
         -5    1    3    3    0  502  0.33639674287E+02 -0.19391495795E+02 -0.67751447738E+02  0.78230470188E+02  0.47000000000E+01 0.  1.
        -11    1    1    2    0    0  0.14971652388E+02 -0.27306334345E+02 -0.58580665705E+02  0.66343655801E+02  0.00000000000E+00 0. -1.
         11    1    1    2    0    0 -0.69244335728E+02 -0.60139836921E+02 -0.32292572245E+02  0.97233678515E+02  0.00000000000E+00 0.  1.
<mgrwt>
<rscale>  0 0.15501188E+03</rscale>
<asrwt>0</asrwt>
<pdfrwt beam="2">  1        1 0.11306220E+00 0.16191718E+03</pdfrwt>
<pdfrwt beam="1">  1       -1 0.72519742E-02 0.16191718E+03</pdfrwt>
<totfact> 0.25907096E+03</totfact>
</mgrwt>
</event>
<event>
 7    1  0.7800420E-006  0.1270706E+03  0.7546771E-02  0.1245464E+00
          2   -1    0    0  501    0  0.00000000000E+00  0.00000000000E+00  0.80029873900E+03  0.80029873900E+03  0.00000000000E+00 0. -1.
         -2   -1    0    0    0  501 -0.00000000000E+00 -0.00000000000E+00 -0.17359412215E+02  0.17359412215E+02  0.00000000000E+00 0.  1.
         23    2    1    2    0    0  0.22290419652E+02 -0.50155429311E+01  0.56911072099E+03  0.58312430751E+03  0.12499970714E+03 0.  0.
          5    1    3    3  502    0  0.67676327634E+02 -0.29982350583E+01  0.20033006085E+03  0.21152611663E+03  0.47000000000E+01 0.  1.
         -5    1    3    3    0  502 -0.45385907982E+02 -0.20173078728E+01  0.36878066013E+03  0.37159819088E+03  0.47000000000E+01 0.  1.
        -11    1    1    2    0    0  0.33433454813E+02  0.12089229357E+02  0.12020738870E+03  0.12535454385E+03  0.00000000000E+00 0. -1.
         11    1    1    2    0    0 -0.55723874466E+02 -0.70736864264E+01  0.93621217107E+02  0.10917929986E+03  0.00000000000E+00 0.  1.
<mgrwt>
<rscale>  0 0.11857621E+03</rscale>
<asrwt>0</asrwt>
<pdfrwt beam="1">  1        2 0.12312285E+00 0.12707063E+03</pdfrwt>
<pdfrwt beam="2">  1       -2 0.26706794E-02 0.12707063E+03</pdfrwt>
<totfact> 0.16908694E+04</totfact>
</mgrwt>
</event>
<event>
 6    1  0.7800420E-006  0.1412462E+03  0.7546771E-02  0.1226804E+00
         -2   -1    0    0    0  501 -0.00000000000E+00  0.00000000000E+00  0.19887206383E+02  0.19887206383E+02  0.00000000000E+00 0.  1.
          2   -1    0    0  501    0  0.00000000000E+00 -0.00000000000E+00 -0.91954062733E+03  0.91954062733E+03  0.00000000000E+00 0. -1.
          5    1    1    2  502    0 -0.62060720684E+02 -0.28734081635E+00 -0.69372936543E+03  0.69651571273E+03  0.47000000000E+01 0. -1.
         -5    1    1    2    0  502  0.17435023804E+02  0.11064645077E+02 -0.14511954719E+02  0.25672811601E+02  0.47000000000E+01 0.  1.
        -11    1    1    2    0    0 -0.11326172474E+02 -0.35950744819E+02 -0.46389482771E+02  0.59772253995E+02  0.00000000000E+00 0.  1.
         11    1    1    2    0    0  0.55951869354E+02  0.25173440559E+02 -0.14502261802E+03  0.15746705539E+03  0.00000000000E+00 0. -1.
<mgrwt>
<rscale>  0 0.13044020E+03</rscale>
<asrwt>0</asrwt>
<pdfrwt beam="2">  1        2 0.14146779E+00 0.14124623E+03</pdfrwt>
<pdfrwt beam="1">  1       -2 0.30595702E-02 0.14124623E+03</pdfrwt>
<totfact> 0.11680376E+04</totfact>
</mgrwt>
</event>
<event>
 6    1  0.7800420E-006  0.2021397E+03  0.7546771E-02  0.1159264E+00
         -1   -1    0    0    0  501 -0.00000000000E+00  0.00000000000E+00  0.26830489403E+02  0.26830489403E+02  0.00000000000E+00 0.  1.
          1   -1    0    0  501    0  0.00000000000E+00 -0.00000000000E+00 -0.11919968494E+04  0.11919968494E+04  0.00000000000E+00 0. -1.
          5    1    1    2  502    0  0.13364951339E+02 -0.63503667602E+02 -0.10721726513E+03  0.12541518913E+03  0.47000000000E+01 0. -1.
         -5    1    1    2    0  502 -0.11185688910E+03  0.28379214538E+00 -0.58932950625E+03  0.59986948673E+03  0.47000000000E+01 0.  1.
        -11    1    1    2    0    0  0.73052846963E+02  0.15641323755E+01 -0.34916793782E+03  0.35673157102E+03  0.00000000000E+00 0. -1.
         11    1    1    2    0    0  0.25439090796E+02  0.61655743081E+02 -0.11945165085E+03  0.13681109197E+03  0.00000000000E+00 0.  1.
<mgrwt>
<rscale>  0 0.18911237E+03</rscale>
<asrwt>0</asrwt>
<pdfrwt beam="2">  1        1 0.18338415E+00 0.20213970E+03</pdfrwt>
<pdfrwt beam="1">  1       -1 0.41277672E-02 0.20213970E+03</pdfrwt>
<totfact> 0.27116028E+03</totfact>
</mgrwt>
</event>
<event>
 7    1  0.7800420E-006  0.1364865E+03  0.7546771E-02  0.1254734E+00
         -4   -1    0    0    0  501 -0.00000000000E+00  0.00000000000E+00  0.16899946516E+02  0.16899946516E+02  0.00000000000E+00 0.  1.
          4   -1    0    0  501    0  0.00000000000E+00 -0.00000000000E+00 -0.64547896618E+03  0.64547896618E+03  0.00000000000E+00 0. -1.
         23    2    1    2    0    0  0.11895429179E+02  0.53495273245E+02 -0.50252782478E+03  0.52073291604E+03  0.12500123870E+03 0.  0.
          5    1    3    3  502    0  0.30951291325E+02 -0.77143541176E+01 -0.30613202740E+02  0.44460677864E+02  0.47000000000E+01 0. -1.
         -5    1    3    3    0  502 -0.19055862146E+02  0.61209627362E+02 -0.47191462204E+03  0.47627223818E+03  0.47000000000E+01 0. -1.
        -11    1    1    2    0    0  0.12119071441E+02 -0.15762555980E+02 -0.38223156126E+02  0.43085261144E+02  0.00000000000E+00 0. -1.
         11    1    1    2    0    0 -0.24014500621E+02 -0.37732717265E+02 -0.87828038763E+02  0.98560735515E+02  0.00000000000E+00 0.  1.
<mgrwt>
<rscale>  0 0.11321270E+03</rscale>
<asrwt>0</asrwt>
<pdfrwt beam="2">  1        4 0.99304447E-01 0.13648647E+03</pdfrwt>
<pdfrwt beam="1">  1       -4 0.25999920E-02 0.13648647E+03</pdfrwt>
<totfact> 0.97369303E+02</totfact>
</mgrwt>
</event>
<event>
 7    1  0.7800420E-006  0.1701748E+03  0.7546771E-02  0.1184019E+00
         -1   -1    0    0    0  501 -0.00000000000E+00  0.00000000000E+00  0.18408158746E+02  0.18408158746E+02  0.00000000000E+00 0.  1.
          1   -1    0    0  501    0  0.00000000000E+00 -0.00000000000E+00 -0.13748367377E+04  0.13748367377E+04  0.00000000000E+00 0. -1.
         23    2    1    2    0    0  0.65756642862E+02  0.94969563497E+02 -0.76277335388E+03  0.78152585841E+03  0.12496529076E+03 0.  0.
          5    1    3    3  502    0  0.89344352214E+01 -0.29074313405E+02 -0.20447473960E+03  0.20677801858E+03  0.47000000000E+01 0. -1.
         -5    1    3    3    0  502  0.56822207641E+02  0.12404387690E+03 -0.55829861428E+03  0.57474783983E+03  0.47000000000E+01 0. -1.
        -11    1    1    2    0    0  0.84332192758E+01 -0.62842083553E+02 -0.19859653032E+03  0.20847260853E+03  0.00000000000E+00 0.  1.
         11    1    1    2    0    0 -0.74189862138E+02 -0.32127479943E+02 -0.39505869476E+03  0.40324642951E+03  0.00000000000E+00 0. -1.
<mgrwt>
<rscale>  0 0.16421504E+03</rscale>
<asrwt>0</asrwt>
<pdfrwt beam="2">  1        1 0.21151333E+00 0.17017485E+03</pdfrwt>
<pdfrwt beam="1">  1       -1 0.28320246E-02 0.17017485E+03</pdfrwt>
<totfact> 0.35388643E+03</totfact>
</mgrwt>
</event>
<event>
 7    1  0.7800420E-006  0.1484904E+03  0.7546771E-02  0.1203594E+00
         -2   -1    0    0    0  501 -0.00000000000E+00  0.00000000000E+00  0.75931749335E+02  0.75931749335E+02  0.00000000000E+00 0. -1.
          2   -1    0    0  501    0  0.00000000000E+00 -0.00000000000E+00 -0.32016494981E+03  0.32016494981E+03  0.00000000000E+00 0.  1.
         23    2    1    2    0    0  0.76230452758E+02  0.24736342290E+02 -0.19134228426E+03  0.24220089067E+03  0.12500573242E+03 0.  0.
          5    1    3    3  502    0  0.93758179621E+02  0.18979977523E+02 -0.68152430833E+02  0.11754862662E+03  0.47000000000E+01 0. -1.
         -5    1    3    3    0  502 -0.17527726863E+02  0.57563647667E+01 -0.12318985343E+03  0.12465226405E+03  0.47000000000E+01 0. -1.
        -11    1    1    2    0    0 -0.40738250763E+01  0.43650189646E+02 -0.25749636105E+02  0.50842687443E+02  0.00000000000E+00 0.  1.
         11    1    1    2    0    0 -0.72156627681E+02 -0.68386531936E+02 -0.27141280111E+02  0.10305312103E+03  0.00000000000E+00 0. -1.
<mgrwt>
<rscale>  0 0.14748808E+03</rscale>
<asrwt>0</asrwt>
<pdfrwt beam="2">  1        2 0.49256145E-01 0.14849041E+03</pdfrwt>
<pdfrwt beam="1">  1       -2 0.11681808E-01 0.14849041E+03</pdfrwt>
<totfact> 0.50714784E+03</totfact>
</mgrwt>
</event>
<event>
 7    1  0.7800420E-006  0.1560990E+03  0.7546771E-02  0.1201044E+00
          1   -1    0    0  501    0  0.00000000000E+00  0.00000000000E+00  0.40694284436E+03  0.40694284436E+03  0.00000000000E+00 0. -1.
         -1   -1    0    0    0  501 -0.00000000000E+00 -0.00000000000E+00 -0.54117821574E+02  0.54117821574E+02  0.00000000000E+00 0.  1.
         23    2    1    2    0    0  0.20844068331E+01 -0.93473535054E+02  0.24749418934E+03  0.29260943864E+03  0.12500105326E+03 0.  0.
          5    1    3    3  502    0 -0.14855755373E+02 -0.11928352058E+03  0.16341541412E+03  0.20291855342E+03  0.47000000000E+01 0. -1.
         -5    1    3    3    0  502  0.16940162206E+02  0.25809985528E+02  0.84078775223E+02  0.89690885220E+02  0.47000000000E+01 0. -1.
        -11    1    1    2    0    0  0.35984828986E+02  0.61079398894E+02  0.27682782632E+02  0.76104778697E+02  0.00000000000E+00 0.  1.
         11    1    1    2    0    0 -0.38069235819E+02  0.32394136161E+02  0.77648050811E+02  0.92346448595E+02  0.00000000000E+00 0. -1.
<mgrwt>
<rscale>  0 0.14953643E+03</rscale>
<asrwt>0</asrwt>
<pdfrwt beam="1">  1        1 0.62606589E-01 0.15609904E+03</pdfrwt>
<pdfrwt beam="2">  1       -1 0.83258190E-02 0.15609904E+03</pdfrwt>
<totfact> 0.46543657E+03</totfact>
</mgrwt>
</event>
<event>
 7    1  0.7800420E-006  0.1538679E+03  0.7546771E-02  0.1204352E+00
          1   -1    0    0  501    0  0.00000000000E+00  0.00000000000E+00  0.55739838389E+02  0.55739838389E+02  0.00000000000E+00 0. -1.
         -1   -1    0    0    0  501 -0.00000000000E+00 -0.00000000000E+00 -0.35806086080E+03  0.35806086080E+03  0.00000000000E+00 0.  1.
         23    2    1    2    0    0  0.71836653162E+02 -0.53757518245E+02 -0.18143558174E+03  0.23789536783E+03  0.12499984085E+03 0.  0.
          5    1    3    3  502    0  0.23706094111E+02  0.28485486871E+02 -0.55044785323E+01  0.37759649683E+02  0.47000000000E+01 0. -1.
         -5    1    3    3    0  502  0.48130559052E+02 -0.82243005116E+02 -0.17593110320E+03  0.20013571815E+03  0.47000000000E+01 0. -1.
        -11    1    1    2    0    0 -0.53063663885E+01 -0.23075155094E+02 -0.10634507116E+02  0.25955982903E+02  0.00000000000E+00 0. -1.
         11    1    1    2    0    0 -0.66530286774E+02  0.76832673339E+02 -0.11025093355E+03  0.14994934845E+03  0.00000000000E+00 0.  1.
<mgrwt>
<rscale>  0 0.14688665E+03</rscale>
<asrwt>0</asrwt>
<pdfrwt beam="1">  1        1 0.85753599E-02 0.15386792E+03</pdfrwt>
<pdfrwt beam="2">  1       -1 0.55086285E-01 0.15386792E+03</pdfrwt>
<totfact> 0.26335581E+03</totfact>
</mgrwt>
</event>
<event>
 7    1  0.7800420E-006  0.1448152E+03  0.7546771E-02  0.1216207E+00
         -1   -1    0    0    0  501 -0.00000000000E+00  0.00000000000E+00  0.30456705401E+03  0.30456705401E+03  0.00000000000E+00 0.  1.
          1   -1    0    0  501    0  0.00000000000E+00 -0.00000000000E+00 -0.61410737593E+02  0.61410737593E+02  0.00000000000E+00 0. -1.
         23    2    1    2    0    0 -0.59801898784E+02  0.42081554020E+02  0.84569431640E+02  0.16770042126E+03  0.12499727292E+03 0.  0.
          5    1    3    3  502    0 -0.80643784576E+02  0.57120165613E+02  0.97187851594E+02  0.13868562221E+03  0.47000000000E+01 0. -1.
         -5    1    3    3    0  502  0.20841885792E+02 -0.15038611593E+02 -0.12618419953E+02  0.29014799054E+02  0.47000000000E+01 0. -1.
        -11    1    1    2    0    0  0.65272056578E+01  0.20477004375E+02  0.85980223859E+02  0.88625679217E+02  0.00000000000E+00 0.  1.
         11    1    1    2    0    0  0.53274693126E+02 -0.62558558395E+02  0.72606660916E+02  0.10965169112E+03  0.00000000000E+00 0. -1.
<mgrwt>
<rscale>  0 0.13788255E+03</rscale>
<asrwt>0</asrwt>
<pdfrwt beam="2">  1        1 0.94478060E-02 0.14481520E+03</pdfrwt>
<pdfrwt beam="1">  1       -1 0.46856469E-01 0.14481520E+03</pdfrwt>
<totfact> 0.31044132E+03</totfact>
</mgrwt>
</event>
<event>
 6    1  0.7800420E-006  0.1675068E+03  0.7546771E-02  0.1238963E+00
         -2   -1    0    0    0  501 -0.00000000000E+00  0.00000000000E+00  0.23141819449E+02  0.23141819449E+02  0.00000000000E+00 0.  1.
          2   -1    0    0  501    0  0.00000000000E+00 -0.00000000000E+00 -0.10928374346E+04  0.10928374346E+04  0.00000000000E+00 0. -1.
          5    1    1    2  502    0  0.12355600508E+02  0.44316458782E+02 -0.10171228334E+04  0.10181736382E+04  0.47000000000E+01 0. -1.
         -5    1    1    2    0  502  0.97426446612E+01 -0.29462475865E+02 -0.34234519650E+02  0.46444041003E+02  0.47000000000E+01 0.  1.
        -11    1    1    2    0    0 -0.29995749355E+01  0.13347257682E+02 -0.29888308177E+01  0.14002851391E+02  0.00000000000E+00 0. -1.
         11    1    1    2    0    0 -0.19098670234E+02 -0.28201240600E+02 -0.15349431320E+02  0.37358723451E+02  0.00000000000E+00 0.  1.
<mgrwt>
<rscale>  0 0.12254083E+03</rscale>
<asrwt>0</asrwt>
<pdfrwt beam="2">  1        2 0.16812886E+00 0.16750677E+03</pdfrwt>
<pdfrwt beam="1">  1       -2 0.35602794E-02 0.16750677E+03</pdfrwt>
<totfact> 0.74105308E+03</totfact>
</mgrwt>
</event>
<event>
 7    1  0.7800420E-006  0.1372776E+03  0.7546771E-02  0.1228836E+00
         -1   -1    0    0    0  501 -0.00000000000E+00  0.00000000000E+00  0.45974752727E+02  0.45974752727E+02  0.00000000000E+00 0.  1.
          1   -1    0    0  501    0  0.00000000000E+00 -0.00000000000E+00 -0.32614780057E+03  0.32614780057E+03  0.00000000000E+00 0. -1.
         23    2    1    2    0    0 -0.29332854245E+02 -0.48553393330E+02 -0.16689931255E+03  0.21610304484E+03  0.12500918814E+03 0.  0.
          5    1    3    3  502    0 -0.70111931339E+02 -0.18313596079E+01 -0.11645053238E+03  0.13602151773E+03  0.47000000000E+01 0.  1.
         -5    1    3    3    0  502  0.40779077094E+02 -0.46722033722E+02 -0.50448780167E+02  0.80081527109E+02  0.47000000000E+01 0.  1.
        -11    1    1    2    0    0 -0.21552126178E+02  0.46361327246E+02 -0.32671107068E+02  0.60673454194E+02  0.00000000000E+00 0.  1.
         11    1    1    2    0    0  0.50884980422E+02  0.21920660838E+01 -0.80602628232E+02  0.95346054266E+02  0.00000000000E+00 0. -1.
<mgrwt>
<rscale>  0 0.12907426E+03</rscale>
<asrwt>0</asrwt>
<pdfrwt beam="2">  1        1 0.50176586E-01 0.13727762E+03</pdfrwt>
<pdfrwt beam="1">  1       -1 0.70730388E-02 0.13727762E+03</pdfrwt>
<totfact> 0.77981098E+03</totfact>
</mgrwt>
</event>
<event>
 7    1  0.7800420E-006  0.1537232E+03  0.7546771E-02  0.1204743E+00
         -2   -1    0    0    0  501 -0.00000000000E+00  0.00000000000E+00  0.15235992462E+02  0.15235992462E+02  0.00000000000E+00 0.  1.
          2   -1    0    0  501    0  0.00000000000E+00 -0.00000000000E+00 -0.13308477936E+04  0.13308477936E+04  0.00000000000E+00 0. -1.
         23    2    1    2    0    0  0.65744364066E+02 -0.60724692129E+02 -0.83039270873E+03  0.84450155135E+03  0.12498403854E+03 0.  0.
          5    1    3    3  502    0  0.83710480095E+02 -0.49268982361E+01 -0.32411353106E+03  0.33481844307E+03  0.47000000000E+01 0.  1.
         -5    1    3    3    0  502 -0.17966116030E+02 -0.55797793893E+02 -0.50627917767E+03  0.50968310828E+03  0.47000000000E+01 0.  1.
        -11    1    1    2    0    0 -0.54043875638E+02 -0.16822708810E+01 -0.13104402029E+03  0.14176073428E+03  0.00000000000E+00 0.  1.
         11    1    1    2    0    0 -0.11700488427E+02  0.62406963010E+02 -0.35417507216E+03  0.35982150048E+03  0.00000000000E+00 0. -1.
<mgrwt>
<rscale>  0 0.14657726E+03</rscale>
<asrwt>0</asrwt>
<pdfrwt beam="2">  1        2 0.20474584E+00 0.15372319E+03</pdfrwt>
<pdfrwt beam="1">  1       -2 0.23439986E-02 0.15372319E+03</pdfrwt>
<totfact> 0.10078191E+04</totfact>
</mgrwt>
</event>
<event>
 7    1  0.7800420E-006  0.1377222E+03  0.7546771E-02  0.1226959E+00
          2   -1    0    0  501    0  0.00000000000E+00  0.00000000000E+00  0.10585727923E+03  0.10585727923E+03  0.00000000000E+00 0. -1.
         -2   -1    0    0    0  501 -0.00000000000E+00 -0.00000000000E+00 -0.32820716513E+03  0.32820716513E+03  0.00000000000E+00 0.  1.
         23    2    1    2    0    0  0.43997859285E+02  0.37382917087E+02  0.44921658784E+02  0.14486327809E+03  0.12503647387E+03 0.  0.
          5    1    3    3  502    0  0.18216749250E+02 -0.16868364099E+02  0.73832519010E+02  0.78036674225E+02  0.47000000000E+01 0. -1.
         -5    1    3    3    0  502  0.25781110035E+02  0.54251281186E+02 -0.28910860227E+02  0.66826603864E+02  0.47000000000E+01 0.  1.
        -11    1    1    2    0    0 -0.39806108892E+02 -0.56258116789E+02 -0.25927478408E+03  0.26827768388E+03  0.00000000000E+00 0.  1.
         11    1    1    2    0    0 -0.41917503923E+01  0.18875199702E+02 -0.79967606105E+01  0.20923482392E+02  0.00000000000E+00 0. -1.
<mgrwt>
<rscale>  0 0.13033541E+03</rscale>
<asrwt>0</asrwt>
<pdfrwt beam="1">  1        2 0.16285735E-01 0.13772223E+03</pdfrwt>
<pdfrwt beam="2">  1       -2 0.50493410E-01 0.13772223E+03</pdfrwt>
<totfact> 0.13004273E+03</totfact>
</mgrwt>
</event>
<event>
 7    1  0.7800420E-006  0.1339787E+03  0.7546771E-02  0.1233793E+00
         -2   -1    0    0    0  501 -0.00000000000E+00  0.00000000000E+00  0.20042730875E+02  0.20042730875E+02  0.00000000000E+00 0.  1.
          2   -1    0    0  501    0  0.00000000000E+00 -0.00000000000E+00 -0.71393304274E+03  0.71393304274E+03  0.00000000000E+00 0. -1.
         23    2    1    2    0    0  0.63511598844E+01 -0.47799766278E+02 -0.42410214531E+03  0.44476164004E+03  0.12500052764E+03 0.  0.
          5    1    3    3  502    0  0.34837420668E+02 -0.43445972634E+02 -0.40721491280E+03  0.41103196180E+03  0.47000000000E+01 0.  1.
         -5    1    3    3    0  502 -0.28486260784E+02 -0.43537936437E+01 -0.16887232513E+02  0.33729678245E+02  0.47000000000E+01 0.  1.
        -11    1    1    2    0    0 -0.29671828810E+02 -0.15426677063E+02 -0.57861298327E+02  0.66830604024E+02  0.00000000000E+00 0.  1.
         11    1    1    2    0    0  0.23320668926E+02  0.63226443341E+02 -0.21192686823E+03  0.22238352955E+03  0.00000000000E+00 0. -1.
<mgrwt>
<rscale>  0 0.12582047E+03</rscale>
<asrwt>0</asrwt>
<pdfrwt beam="2">  1        2 0.10983584E+00 0.13397868E+03</pdfrwt>
<pdfrwt beam="1">  1       -2 0.30834975E-02 0.13397868E+03</pdfrwt>
<totfact> 0.15800211E+04</totfact>
</mgrwt>
</event>
<event>
 7    1  0.7800420E-006  0.1382735E+03  0.7546771E-02  0.1228677E+00
         -1   -1    0    0    0  501 -0.00000000000E+00  0.00000000000E+00  0.64091705132E+02  0.64091705132E+02  0.00000000000E+00 0.  1.
          1   -1    0    0  501    0  0.00000000000E+00 -0.00000000000E+00 -0.29422764402E+03  0.29422764402E+03  0.00000000000E+00 0. -1.
         23    2    1    2    0    0 -0.12074144136E+02 -0.57862919756E+02 -0.20944647864E+03  0.25097290817E+03  0.12500268310E+03 0.  0.
          5    1    3    3  502    0 -0.19447994478E+02 -0.53871184536E+02 -0.19355015550E+02  0.60638565612E+02  0.47000000000E+01 0.  1.
         -5    1    3    3    0  502  0.73738503417E+01 -0.39917352203E+01 -0.19009146309E+03  0.19033434256E+03  0.47000000000E+01 0.  1.
        -11    1    1    2    0    0 -0.71923252260E+00  0.34294070740E+02  0.32832225710E+02  0.47482161160E+02  0.00000000000E+00 0.  1.
         11    1    1    2    0    0  0.12793376659E+02  0.23568849016E+02 -0.53521685960E+02  0.59864279819E+02  0.00000000000E+00 0. -1.
<mgrwt>
<rscale>  0 0.12918028E+03</rscale>
<asrwt>0</asrwt>
<pdfrwt beam="2">  1        1 0.45265792E-01 0.13827354E+03</pdfrwt>
<pdfrwt beam="1">  1       -1 0.98602622E-02 0.13827354E+03</pdfrwt>
<totfact> 0.53631060E+03</totfact>
</mgrwt>
</event>
<event>
 7    1  0.7800420E-006  0.2508929E+03  0.7546771E-02  0.1115198E+00
          2   -1    0    0  501    0  0.00000000000E+00  0.00000000000E+00  0.19634055430E+04  0.19634055430E+04  0.00000000000E+00 0. -1.
         -2   -1    0    0    0  501 -0.00000000000E+00 -0.00000000000E+00 -0.31685262670E+02  0.31685262670E+02  0.00000000000E+00 0.  1.
         23    2    1    2    0    0 -0.10581145169E+03 -0.19007054380E+03  0.12132482905E+04  0.12389183343E+04  0.12499739966E+03 0.  0.
          5    1    3    3  502    0  0.74568370691E+01 -0.10707284215E+03  0.62162076565E+03  0.63083647979E+03  0.47000000000E+01 0. -1.
         -5    1    3    3    0  502 -0.11326828875E+03 -0.82997701647E+02  0.59162752481E+03  0.60808185455E+03  0.47000000000E+01 0. -1.
        -11    1    1    2    0    0  0.62278461130E+02  0.49307783572E+02  0.16059583345E+03  0.17916720114E+03  0.00000000000E+00 0.  1.
         11    1    1    2    0    0  0.43532990556E+02  0.14076276023E+03  0.55787615637E+03  0.57700527015E+03  0.00000000000E+00 0. -1.
<mgrwt>
<rscale>  0 0.24702761E+03</rscale>
<asrwt>0</asrwt>
<pdfrwt beam="1">  1        2 0.30206230E+00 0.25089286E+03</pdfrwt>
<pdfrwt beam="2">  1       -2 0.48746573E-02 0.25089286E+03</pdfrwt>
<totfact> 0.15830545E+03</totfact>
</mgrwt>
</event>
<event>
 7    1  0.7800420E-006  0.1243331E+03  0.7546771E-02  0.1243981E+00
          1   -1    0    0  501    0  0.00000000000E+00  0.00000000000E+00  0.12401723984E+03  0.12401723984E+03  0.00000000000E+00 0. -1.
         -1   -1    0    0    0  501 -0.00000000000E+00 -0.00000000000E+00 -0.14218286572E+03  0.14218286572E+03  0.00000000000E+00 0.  1.
         23    2    1    2    0    0 -0.49004775980E+02 -0.12544187371E+02  0.56492701861E+02  0.13656556446E+03  0.11357774134E+03 0.  0.
          5    1    3    3  502    0 -0.66325142416E+02 -0.49310867110E+02  0.31197771435E+02  0.88464552643E+02  0.47000000000E+01 0. -1.
         -5    1    3    3    0  502  0.17320366436E+02  0.36766679740E+02  0.25294930426E+02  0.48101011817E+02  0.47000000000E+01 0.  1.
        -11    1    1    2    0    0  0.33370638156E+02  0.26062251793E+01 -0.95826847499E+02  0.10150456444E+03  0.00000000000E+00 0.  1.
         11    1    1    2    0    0  0.15634137824E+02  0.99379621914E+01  0.21168519763E+02  0.28129976662E+02  0.00000000000E+00 0. -1.
<mgrwt>
<rscale>  0 0.11946582E+03</rscale>
<asrwt>0</asrwt>
<pdfrwt beam="1">  1        1 0.19079575E-01 0.12433313E+03</pdfrwt>
<pdfrwt beam="2">  1       -1 0.21874287E-01 0.12433313E+03</pdfrwt>
<totfact> 0.44960601E+03</totfact>
</mgrwt>
</event>
<event>
 7    1  0.7800420E-006  0.1312525E+03  0.7546771E-02  0.1240019E+00
         -1   -1    0    0    0  501 -0.00000000000E+00  0.00000000000E+00  0.82474948049E+01  0.82474948049E+01  0.00000000000E+00 0.  1.
          1   -1    0    0  501    0  0.00000000000E+00 -0.00000000000E+00 -0.18121419252E+04  0.18121419252E+04  0.00000000000E+00 0. -1.
         23    2    1    2    0    0  0.29067563921E+02 -0.27537530688E+02 -0.13354208100E+04  0.13418554127E+04  0.12499588031E+03 0.  0.
          5    1    3    3  502    0 -0.27392071300E+02 -0.41779135187E+02 -0.25695926192E+03  0.26181286064E+03  0.47000000000E+01 0. -1.
         -5    1    3    3    0  502  0.56459635221E+02  0.14241604499E+02 -0.10784615480E+04  0.10800425521E+04  0.47000000000E+01 0. -1.
        -11    1    1    2    0    0 -0.39250897194E+02  0.53665267231E+02 -0.37838228628E+03  0.38417931804E+03  0.00000000000E+00 0. -1.
         11    1    1    2    0    0  0.10183333273E+02 -0.26127736543E+02 -0.90091334127E+02  0.94354689222E+02  0.00000000000E+00 0.  1.
<mgrwt>
<rscale>  0 0.12188538E+03</rscale>
<asrwt>0</asrwt>
<pdfrwt beam="2">  1        1 0.27879103E+00 0.13125246E+03</pdfrwt>
<pdfrwt beam="1">  1       -1 0.12688455E-02 0.13125246E+03</pdfrwt>
<totfact> 0.58510044E+03</totfact>
</mgrwt>
</event>
<event>
 7    1  0.7800420E-006  0.1948135E+03  0.7546771E-02  0.1158605E+00
         -1   -1    0    0    0  501 -0.00000000000E+00  0.00000000000E+00  0.15862820413E+02  0.15862820413E+02  0.00000000000E+00 0.  1.
          1   -1    0    0  501    0  0.00000000000E+00 -0.00000000000E+00 -0.22085213844E+04  0.22085213844E+04  0.00000000000E+00 0. -1.
         23    2    1    2    0    0 -0.25576060553E+02 -0.14713518756E+03 -0.13108845028E+04  0.13252812835E+04  0.12509757156E+03 0.  0.
          5    1    3    3  502    0 -0.48321976525E+01 -0.15257086876E+03 -0.83241924968E+03  0.84631265934E+03  0.47000000000E+01 0. -1.
         -5    1    3    3    0  502 -0.20743862900E+02  0.54356812023E+01 -0.47846525308E+03  0.47896862411E+03  0.47000000000E+01 0. -1.
        -11    1    1    2    0    0 -0.31566586788E+02  0.42205063738E+02 -0.19418615979E+03  0.20121128561E+03  0.00000000000E+00 0.  1.
         11    1    1    2    0    0  0.57142647340E+02  0.10493012382E+03 -0.68758790141E+03  0.69789163571E+03  0.00000000000E+00 0. -1.
<mgrwt>
<rscale>  0 0.18984090E+03</rscale>
<asrwt>0</asrwt>
<pdfrwt beam="2">  1        1 0.33977250E+00 0.19481350E+03</pdfrwt>
<pdfrwt beam="1">  1       -1 0.24404341E-02 0.19481350E+03</pdfrwt>
<totfact> 0.12704000E+03</totfact>
</mgrwt>
</event>
<event>
 7    1  0.7800420E-006  0.1442907E+03  0.7546771E-02  0.1217778E+00
         -2   -1    0    0    0  501 -0.00000000000E+00  0.00000000000E+00  0.17135869644E+03  0.17135869644E+03  0.00000000000E+00 0. -1.
          2   -1    0    0  501    0  0.00000000000E+00 -0.00000000000E+00 -0.10236394591E+03  0.10236394591E+03  0.00000000000E+00 0.  1.
         23    2    1    2    0    0 -0.33337942583E+02 -0.63887955608E+02  0.13929267833E+02  0.14496148559E+03  0.12500687387E+03 0.  0.
          5    1    3    3  502    0 -0.23012650630E+02 -0.34288552927E+02  0.69503635682E+02  0.80982296360E+02  0.47000000000E+01 0. -1.
         -5    1    3    3    0  502 -0.10325291953E+02 -0.29599402681E+02 -0.55574367849E+02  0.63979189232E+02  0.47000000000E+01 0. -1.
        -11    1    1    2    0    0  0.57387544548E+02  0.57834675218E+02  0.16842314417E+02  0.83197617044E+02  0.00000000000E+00 0. -1.
         11    1    1    2    0    0 -0.24049601965E+02  0.60532803895E+01  0.38223168282E+02  0.45563539718E+02  0.00000000000E+00 0.  1.
<mgrwt>
<rscale>  0 0.13674456E+03</rscale>
<asrwt>0</asrwt>
<pdfrwt beam="2">  1        2 0.15748299E-01 0.14429071E+03</pdfrwt>
<pdfrwt beam="1">  1       -2 0.26362876E-01 0.14429071E+03</pdfrwt>
<totfact> 0.45555244E+03</totfact>
</mgrwt>
</event>
<event>
 7    1  0.7800420E-006  0.1447799E+03  0.7546771E-02  0.1222169E+00
         -1   -1    0    0    0  501 -0.00000000000E+00  0.00000000000E+00  0.18299723895E+03  0.18299723895E+03  0.00000000000E+00 0. -1.
          1   -1    0    0  501    0  0.00000000000E+00 -0.00000000000E+00 -0.92203905140E+02  0.92203905140E+02  0.00000000000E+00 0.  1.
         23    2    1    2    0    0  0.65896700638E+01  0.72764413981E+02  0.14806099810E+02  0.14553506247E+03  0.12499260028E+03 0.  0.
          5    1    3    3  502    0  0.58116757521E+02  0.50768258595E+02 -0.19421246893E+02  0.79713539731E+02  0.47000000000E+01 0. -1.
         -5    1    3    3    0  502 -0.51527087457E+02  0.21996155386E+02  0.34227346704E+02  0.65821522741E+02  0.47000000000E+01 0. -1.
        -11    1    1    2    0    0  0.20062397719E+02 -0.24914556162E+01 -0.32256296277E+01  0.20472221175E+02  0.00000000000E+00 0.  1.
         11    1    1    2    0    0 -0.26652067783E+02 -0.70272958364E+02  0.79212863628E+02  0.10919386044E+03  0.00000000000E+00 0. -1.
<mgrwt>
<rscale>  0 0.13362837E+03</rscale>
<asrwt>0</asrwt>
<pdfrwt beam="2">  1        1 0.14185216E-01 0.14477995E+03</pdfrwt>
<pdfrwt beam="1">  1       -1 0.28153421E-01 0.14477995E+03</pdfrwt>
<totfact> 0.43910601E+03</totfact>
</mgrwt>
</event>
<event>
 7    1  0.7800420E-006  0.1302708E+03  0.7546771E-02  0.1241025E+00
         -2   -1    0    0    0  501 -0.00000000000E+00  0.00000000000E+00  0.10917644069E+03  0.10917644069E+03  0.00000000000E+00 0.  1.
          2   -1    0    0  501    0  0.00000000000E+00 -0.00000000000E+00 -0.11923435700E+03  0.11923435700E+03  0.00000000000E+00 0. -1.
         23    2    1    2    0    0  0.34399732509E+01 -0.36523784586E+02 -0.91619672219E+01  0.13059260076E+03  0.12499866188E+03 0.  0.
          5    1    3    3  502    0  0.77063833724E+01  0.16225529149E+02  0.48651391513E+02  0.52074024590E+02  0.47000000000E+01 0. -1.
         -5    1    3    3    0  502 -0.42664101215E+01 -0.52749313735E+02 -0.57813358735E+02  0.78518576166E+02  0.47000000000E+01 0. -1.
        -11    1    1    2    0    0 -0.18532570702E+02 -0.34541926564E+01 -0.37227722216E+02  0.41728778141E+02  0.00000000000E+00 0. -1.
         11    1    1    2    0    0  0.15092597451E+02  0.39977977243E+02  0.36331773130E+02  0.56089418797E+02  0.00000000000E+00 0.  1.
<mgrwt>
<rscale>  0 0.12126507E+03</rscale>
<asrwt>0</asrwt>
<pdfrwt beam="2">  1        2 0.18343747E-01 0.13027082E+03</pdfrwt>
<pdfrwt beam="1">  1       -2 0.16796375E-01 0.13027082E+03</pdfrwt>
<totfact> 0.81828035E+03</totfact>
</mgrwt>
</event>
<event>
 7    1  0.7800420E-006  0.1360224E+03  0.7546771E-02  0.1232092E+00
          2   -1    0    0  501    0  0.00000000000E+00  0.00000000000E+00  0.52255565521E+03  0.52255565521E+03  0.00000000000E+00 0. -1.
         -2   -1    0    0    0  501 -0.00000000000E+00 -0.00000000000E+00 -0.31379982735E+02  0.31379982735E+02  0.00000000000E+00 0.  1.
         23    2    1    2    0    0  0.34003168423E+02 -0.41489042107E+02  0.37335035419E+03  0.39735698377E+03  0.12499811798E+03 0.  0.
          5    1    3    3  502    0 -0.56881252760E+00  0.89028329260E+00  0.32248133559E+03  0.32251731420E+03  0.47000000000E+01 0.  1.
         -5    1    3    3    0  502  0.34571980950E+02 -0.42379325399E+02  0.50869018593E+02  0.74839669566E+02  0.47000000000E+01 0.  1.
        -11    1    1    2    0    0  0.64973837191E+01  0.40679402938E+02  0.11457993703E+02  0.42758805389E+02  0.00000000000E+00 0.  1.
         11    1    1    2    0    0 -0.40500552142E+02  0.80963916927E+00  0.10636732459E+03  0.11381984879E+03  0.00000000000E+00 0. -1.
<mgrwt>
<rscale>  0 0.12692442E+03</rscale>
<asrwt>0</asrwt>
<pdfrwt beam="1">  1        2 0.80393171E-01 0.13602237E+03</pdfrwt>
<pdfrwt beam="2">  1       -2 0.48276900E-02 0.13602237E+03</pdfrwt>
<totfact> 0.11625061E+04</totfact>
</mgrwt>
</event>
<event>
 7    1  0.7800420E-006  0.1346084E+03  0.7546771E-02  0.1233396E+00
          1   -1    0    0  501    0  0.00000000000E+00  0.00000000000E+00  0.66579565308E+03  0.66579565308E+03  0.00000000000E+00 0. -1.
         -1   -1    0    0    0  501 -0.00000000000E+00 -0.00000000000E+00 -0.21636244687E+02  0.21636244687E+02  0.00000000000E+00 0.  1.
         23    2    1    2    0    0 -0.99718459793E+01  0.48935531189E+02  0.32121429704E+03  0.34827868994E+03  0.12500118929E+03 0.  0.
          5    1    3    3  502    0  0.26907349048E+02  0.59123291909E+02  0.76154617148E+02  0.10020571237E+03  0.47000000000E+01 0.  1.
         -5    1    3    3    0  502 -0.36879195027E+02 -0.10187760720E+02  0.24505967989E+03  0.24807297757E+03  0.47000000000E+01 0.  1.
        -11    1    1    2    0    0  0.42139716928E+02  0.20794634400E+01  0.10935726761E+03  0.11721387243E+03  0.00000000000E+00 0.  1.
         11    1    1    2    0    0 -0.32167870949E+02 -0.51014994629E+02  0.21358784374E+03  0.22193933539E+03  0.00000000000E+00 0. -1.
<mgrwt>
<rscale>  0 0.12607702E+03</rscale>
<asrwt>0</asrwt>
<pdfrwt beam="1">  1        1 0.10243008E+00 0.13460840E+03</pdfrwt>
<pdfrwt beam="2">  1       -1 0.33286535E-02 0.13460840E+03</pdfrwt>
<totfact> 0.93897590E+03</totfact>
</mgrwt>
</event>
<event>
 6    1  0.7800420E-006  0.1989567E+03  0.7546771E-02  0.1174233E+00
          1   -1    0    0  501    0  0.00000000000E+00  0.00000000000E+00  0.28183119821E+03  0.28183119821E+03  0.00000000000E+00 0. -1.
         -1   -1    0    0    0  501 -0.00000000000E+00 -0.00000000000E+00 -0.12208113319E+03  0.12208113319E+03  0.00000000000E+00 0.  1.
          5    1    1    2  502    0 -0.84910558069E+01  0.19045235352E+02  0.22252457203E+03  0.22354886306E+03  0.47000000000E+01 0. -1.
         -5    1    1    2    0  502  0.26646986902E+02  0.46630044652E+02 -0.22642119859E+02  0.58473742542E+02  0.47000000000E+01 0.  1.
        -11    1    1    2    0    0 -0.41051198464E+02 -0.44067857275E+01  0.61799624299E+01  0.41747006976E+02  0.00000000000E+00 0.  1.
         11    1    1    2    0    0  0.22895267369E+02 -0.61268494276E+02 -0.46312349577E+02  0.80142718834E+02  0.00000000000E+00 0. -1.
<mgrwt>
<rscale>  0 0.17351279E+03</rscale>
<asrwt>0</asrwt>
<pdfrwt beam="1">  1        1 0.43358646E-01 0.19895667E+03</pdfrwt>
<pdfrwt beam="2">  1       -1 0.18781713E-01 0.19895667E+03</pdfrwt>
<totfact> 0.20967046E+03</totfact>
</mgrwt>
</event>
<event>
 7    1  0.7800420E-006  0.1369769E+03  0.7546771E-02  0.1229436E+00
          2   -1    0    0  501    0  0.00000000000E+00  0.00000000000E+00  0.32659144071E+03  0.32659144071E+03  0.00000000000E+00 0. -1.
         -2   -1    0    0    0  501 -0.00000000000E+00 -0.00000000000E+00 -0.46990987251E+02  0.46990987251E+02  0.00000000000E+00 0.  1.
         23    2    1    2    0    0 -0.37968842093E+02  0.41195566133E+02  0.19029695608E+03  0.23446878242E+03  0.12499588311E+03 0.  0.
          5    1    3    3  502    0  0.42145874532E+02  0.15737628193E+02  0.10637613151E+03  0.11559376729E+03  0.47000000000E+01 0.  1.
         -5    1    3    3    0  502 -0.80114716625E+02  0.25457937939E+02  0.83920824570E+02  0.11887501512E+03  0.47000000000E+01 0.  1.
        -11    1    1    2    0    0  0.11346157786E+02 -0.13136956853E+02  0.97953261462E+02  0.99479426833E+02  0.00000000000E+00 0. -1.
         11    1    1    2    0    0  0.26622684306E+02 -0.28058609280E+02 -0.86497640847E+01  0.39634218715E+02  0.00000000000E+00 0.  1.
<mgrwt>
<rscale>  0 0.12867417E+03</rscale>
<asrwt>0</asrwt>
<pdfrwt beam="1">  1        2 0.50244836E-01 0.13697693E+03</pdfrwt>
<pdfrwt beam="2">  1       -2 0.72293829E-02 0.13697693E+03</pdfrwt>
<totfact> 0.10459367E+04</totfact>
</mgrwt>
</event>
<event>
 7    1  0.7800420E-006  0.1394982E+03  0.7546771E-02  0.1225161E+00
         -2   -1    0    0    0  501 -0.00000000000E+00  0.00000000000E+00  0.60816752187E+02  0.60816752187E+02  0.00000000000E+00 0. -1.
          2   -1    0    0  501    0  0.00000000000E+00 -0.00000000000E+00 -0.28586820578E+03  0.28586820578E+03  0.00000000000E+00 0.  1.
         23    2    1    2    0    0  0.61227622804E+02 -0.92173323122E+01 -0.17942595750E+03  0.22727386341E+03  0.12500381496E+03 0.  0.
          5    1    3    3  502    0  0.72662862400E+02  0.42789399502E+02 -0.92766290796E+02  0.12545317449E+03  0.47000000000E+01 0.  1.
         -5    1    3    3    0  502 -0.11435239595E+02 -0.52006731814E+02 -0.86659666707E+02  0.10182068892E+03  0.47000000000E+01 0.  1.
        -11    1    1    2    0    0 -0.27663544322E+02 -0.13728316617E+02 -0.66782932522E+02  0.73577839311E+02  0.00000000000E+00 0.  1.
         11    1    1    2    0    0 -0.33564078483E+02  0.22945648929E+02  0.21157436436E+02  0.45833255238E+02  0.00000000000E+00 0. -1.
<mgrwt>
<rscale>  0 0.13155893E+03</rscale>
<asrwt>0</asrwt>
<pdfrwt beam="2">  1        2 0.43979724E-01 0.13949815E+03</pdfrwt>
<pdfrwt beam="1">  1       -2 0.93564234E-02 0.13949815E+03</pdfrwt>
<totfact> 0.80902489E+03</totfact>
</mgrwt>
</event>
<event>
 7    1  0.7800420E-006  0.1272455E+03  0.7546771E-02  0.1245767E+00
         -2   -1    0    0    0  501 -0.00000000000E+00  0.00000000000E+00  0.10664588129E+02  0.10664588129E+02  0.00000000000E+00 0.  1.
          2   -1    0    0  501    0  0.00000000000E+00 -0.00000000000E+00 -0.11969261888E+04  0.11969261888E+04  0.00000000000E+00 0. -1.
         23    2    1    2    0    0  0.22880118829E+02 -0.65812923271E+01 -0.77804307424E+03  0.78837963706E+03  0.12499845403E+03 0.  0.
          5    1    3    3  502    0 -0.51066945656E+01 -0.32621240098E+02 -0.70513671249E+03  0.70592499384E+03  0.47000000000E+01 0. -1.
         -5    1    3    3    0  502  0.27986813394E+02  0.26039947771E+02 -0.72906361753E+02  0.82454643216E+02  0.47000000000E+01 0. -1.
        -11    1    1    2    0    0  0.68467434706E+01 -0.38840523739E+02 -0.13457494915E+03  0.14023509232E+03  0.00000000000E+00 0.  1.
         11    1    1    2    0    0 -0.29726862299E+02  0.45421816066E+02 -0.27364357727E+03  0.27897604753E+03  0.00000000000E+00 0. -1.
<mgrwt>
<rscale>  0 0.11839570E+03</rscale>
<asrwt>0</asrwt>
<pdfrwt beam="2">  1        2 0.18414237E+00 0.12724554E+03</pdfrwt>
<pdfrwt beam="1">  1       -2 0.16407069E-02 0.12724554E+03</pdfrwt>
<totfact> 0.19802007E+04</totfact>
</mgrwt>
</event>
<event>
 7    1  0.7800420E-006  0.1867907E+03  0.7546771E-02  0.1166626E+00
          2   -1    0    0  501    0  0.00000000000E+00  0.00000000000E+00  0.12706688975E+04  0.12706688975E+04  0.00000000000E+00 0. -1.
         -2   -1    0    0    0  501 -0.00000000000E+00 -0.00000000000E+00 -0.39094164427E+02  0.39094164427E+02  0.00000000000E+00 0.  1.
         23    2    1    2    0    0  0.79415306770E+02  0.11383255373E+03  0.10398470461E+04  0.10564907201E+04  0.12500448412E+03 0.  0.
          5    1    3    3  502    0  0.24909590351E+02  0.21837125506E+02  0.45914654149E+02  0.56811910789E+02  0.47000000000E+01 0. -1.
         -5    1    3    3    0  502  0.54505716419E+02  0.91995428227E+02  0.99393239196E+03  0.99967880928E+03  0.47000000000E+01 0. -1.
        -11    1    1    2    0    0 -0.62802019438E+02 -0.12576836626E+03  0.14348813578E+03  0.20087463929E+03  0.00000000000E+00 0.  1.
         11    1    1    2    0    0 -0.16613287332E+02  0.11935812530E+02  0.48239551190E+02  0.52397702580E+02  0.00000000000E+00 0. -1.
<mgrwt>
<rscale>  0 0.18122171E+03</rscale>
<asrwt>0</asrwt>
<pdfrwt beam="1">  1        2 0.19548749E+00 0.18679069E+03</pdfrwt>
<pdfrwt beam="2">  1       -2 0.60144878E-02 0.18679069E+03</pdfrwt>
<totfact> 0.26780098E+03</totfact>
</mgrwt>
</event>
<event>
 6    1  0.7800420E-006  0.1726193E+03  0.7546771E-02  0.1188766E+00
          2   -1    0    0  501    0  0.00000000000E+00  0.00000000000E+00  0.17162163776E+03  0.17162163776E+03  0.00000000000E+00 0. -1.
         -2   -1    0    0    0  501 -0.00000000000E+00 -0.00000000000E+00 -0.17050587217E+03  0.17050587217E+03  0.00000000000E+00 0.  1.
          5    1    1    2  502    0  0.24148771185E+02  0.68130371273E+01  0.10496830261E+03  0.10802784446E+03  0.47000000000E+01 0. -1.
         -5    1    1    2    0  502 -0.22057242408E+01  0.79874658302E+02 -0.22690710848E+02  0.83197263279E+02  0.47000000000E+01 0.  1.
        -11    1    1    2    0    0  0.13864150980E+02 -0.81788547971E+02 -0.79225984650E+02  0.11470979865E+03  0.00000000000E+00 0. -1.
         11    1    1    2    0    0 -0.35807197924E+02 -0.48991474584E+01 -0.19358415196E+01  0.36192603545E+02  0.00000000000E+00 0.  1.
<mgrwt>
<rscale>  0 0.15993880E+03</rscale>
<asrwt>0</asrwt>
<pdfrwt beam="1">  1        2 0.26403329E-01 0.17261935E+03</pdfrwt>
<pdfrwt beam="2">  1       -2 0.26231673E-01 0.17261935E+03</pdfrwt>
<totfact> 0.25820886E+03</totfact>
</mgrwt>
</event>
<event>
 7    1  0.7800420E-006  0.1991697E+03  0.7546771E-02  0.1154533E+00
         -1   -1    0    0    0  501 -0.00000000000E+00  0.00000000000E+00  0.71054662546E+02  0.71054662546E+02  0.00000000000E+00 0.  1.
          1   -1    0    0  501    0  0.00000000000E+00 -0.00000000000E+00 -0.52791356087E+03  0.52791356087E+03  0.00000000000E+00 0. -1.
         23    2    1    2    0    0  0.15423650670E+03 -0.15979400767E+02 -0.29699563619E+03  0.35759609218E+03  0.12499726387E+03 0.  0.
          5    1    3    3  502    0  0.10020854534E+03  0.40958457615E+02 -0.23018154847E+03  0.25441105138E+03  0.47000000000E+01 0.  1.
         -5    1    3    3    0  502  0.54027961360E+02 -0.56937858381E+02 -0.66814087723E+02  0.10318504080E+03  0.47000000000E+01 0.  1.
        -11    1    1    2    0    0 -0.16072219909E+03  0.56333675554E+01 -0.12278563058E+03  0.20233554109E+03  0.00000000000E+00 0.  1.
         11    1    1    2    0    0  0.64856923897E+01  0.10346033211E+02 -0.37077631552E+02  0.39036590150E+02  0.00000000000E+00 0. -1.
<mgrwt>
<rscale>  0 0.19442088E+03</rscale>
<asrwt>0</asrwt>
<pdfrwt beam="2">  1        1 0.81217468E-01 0.19916967E+03</pdfrwt>
<pdfrwt beam="1">  1       -1 0.10931487E-01 0.19916967E+03</pdfrwt>
<totfact> 0.22061044E+03</totfact>
</mgrwt>
</event>
<event>
 7    1  0.7800420E-006  0.1363493E+03  0.7546771E-02  0.1230537E+00
          2   -1    0    0  501    0  0.00000000000E+00  0.00000000000E+00  0.53096679326E+03  0.53096679326E+03  0.00000000000E+00 0. -1.
         -2   -1    0    0    0  501 -0.00000000000E+00 -0.00000000000E+00 -0.32596054726E+02  0.32596054726E+02  0.00000000000E+00 0.  1.
         23    2    1    2    0    0  0.84945920632E+01  0.53801882354E+02  0.38556259123E+03  0.40896166420E+03  0.12499732155E+03 0.  0.
          5    1    3    3  502    0 -0.41935678442E+01  0.59338462569E+02  0.65655774333E+02  0.88720966262E+02  0.47000000000E+01 0.  1.
         -5    1    3    3    0  502  0.12688159907E+02 -0.55365802151E+01  0.31990681689E+03  0.32024069794E+03  0.47000000000E+01 0.  1.
        -11    1    1    2    0    0  0.33032242672E+02 -0.25580835298E+02  0.14518237197E+02  0.44229937845E+02  0.00000000000E+00 0.  1.
         11    1    1    2    0    0 -0.41526834735E+02 -0.28221047056E+02  0.98289910106E+02  0.11037124593E+03  0.00000000000E+00 0. -1.
<mgrwt>
<rscale>  0 0.12794542E+03</rscale>
<asrwt>0</asrwt>
<pdfrwt beam="1">  1        2 0.81687193E-01 0.13634930E+03</pdfrwt>
<pdfrwt beam="2">  1       -2 0.50147780E-02 0.13634930E+03</pdfrwt>
<totfact> 0.10789672E+04</totfact>
</mgrwt>
</event>
<event>
 7    1  0.7800420E-006  0.1597768E+03  0.7546771E-02  0.1196963E+00
          1   -1    0    0  501    0  0.00000000000E+00  0.00000000000E+00  0.45624444679E+02  0.45624444679E+02  0.00000000000E+00 0. -1.
         -1   -1    0    0    0  501 -0.00000000000E+00 -0.00000000000E+00 -0.47551174548E+03  0.47551174548E+03  0.00000000000E+00 0.  1.
         23    2    1    2    0    0 -0.12109664278E+02 -0.98767873059E+02 -0.21415008452E+03  0.26718698303E+03  0.12500755371E+03 0.  0.
          5    1    3    3  502    0 -0.60069419221E+02 -0.83970915737E+02 -0.17547822936E+03  0.20365202870E+03  0.47000000000E+01 0.  1.
         -5    1    3    3    0  502  0.47959754943E+02 -0.14796957322E+02 -0.38671855155E+02  0.63534954327E+02  0.47000000000E+01 0.  1.
        -11    1    1    2    0    0  0.11813730197E+02  0.69791312088E+02 -0.52419628393E+02  0.88080695416E+02  0.00000000000E+00 0. -1.
         11    1    1    2    0    0  0.29593408098E+00  0.28976560970E+02 -0.16331758789E+03  0.16586851171E+03  0.00000000000E+00 0.  1.
<mgrwt>
<rscale>  0 0.15289252E+03</rscale>
<asrwt>0</asrwt>
<pdfrwt beam="1">  1        1 0.70191454E-02 0.15977680E+03</pdfrwt>
<pdfrwt beam="2">  1       -1 0.73155653E-01 0.15977680E+03</pdfrwt>
<totfact> 0.19969015E+03</totfact>
</mgrwt>
</event>
<event>
 7    1  0.7800420E-006  0.1446743E+03  0.7546771E-02  0.1221329E+00
          3   -1    0    0  501    0  0.00000000000E+00  0.00000000000E+00  0.89518083532E+02  0.89518083532E+02  0.00000000000E+00 0. -1.
         -3   -1    0    0    0  501 -0.00000000000E+00 -0.00000000000E+00 -0.26082656913E+03  0.26082656913E+03  0.00000000000E+00 0.  1.
         23    2    1    2    0    0  0.72836268954E+02 -0.10278490981E+01  0.41658436506E+01  0.14473428350E+03  0.12499792006E+03 0.  0.
          5    1    3    3  502    0  0.77417683833E+02  0.48324863217E+02  0.17829291385E+02  0.93106196390E+02  0.47000000000E+01 0. -1.
         -5    1    3    3    0  502 -0.45814148784E+01 -0.49352712315E+02 -0.13663447734E+02  0.51628087115E+02  0.47000000000E+01 0. -1.
        -11    1    1    2    0    0 -0.31245765947E+02  0.21488921700E+02 -0.14562017400E+03  0.15047693086E+03  0.00000000000E+00 0.  1.
         11    1    1    2    0    0 -0.41590503007E+02 -0.20461072602E+02 -0.29854155240E+02  0.55133438289E+02  0.00000000000E+00 0. -1.
<mgrwt>
<rscale>  0 0.13421685E+03</rscale>
<asrwt>0</asrwt>
<pdfrwt beam="1">  1        3 0.13772013E-01 0.14467432E+03</pdfrwt>
<pdfrwt beam="2">  1       -3 0.40127164E-01 0.14467432E+03</pdfrwt>
<totfact> 0.61999371E+02</totfact>
</mgrwt>
</event>
<event>
 6    1  0.7800420E-006  0.1310374E+03  0.7546771E-02  0.1237058E+00
          1   -1    0    0  501    0  0.00000000000E+00  0.00000000000E+00  0.11023189599E+03  0.11023189599E+03  0.00000000000E+00 0. -1.
         -1   -1    0    0    0  501 -0.00000000000E+00 -0.00000000000E+00 -0.13231346871E+03  0.13231346871E+03  0.00000000000E+00 0.  1.
          5    1    1    2  502    0  0.38177497268E+02  0.40447349867E+02  0.31004005889E+02  0.63850198042E+02  0.47000000000E+01 0. -1.
         -5    1    1    2    0  502 -0.57858747031E+02 -0.31796445547E+02 -0.15855848664E+02  0.68059874333E+02  0.47000000000E+01 0.  1.
        -11    1    1    2    0    0 -0.31480155010E+02 -0.78566455406E+01 -0.48393815616E+02  0.58263954796E+02  0.00000000000E+00 0.  1.
         11    1    1    2    0    0  0.51161404773E+02 -0.79425877889E+00  0.11164085677E+02  0.52371337527E+02  0.00000000000E+00 0. -1.
<mgrwt>
<rscale>  0 0.12373591E+03</rscale>
<asrwt>0</asrwt>
<pdfrwt beam="1">  1        1 0.16958753E-01 0.13103740E+03</pdfrwt>
<pdfrwt beam="2">  1       -1 0.20355918E-01 0.13103740E+03</pdfrwt>
<totfact> 0.58893209E+03</totfact>
</mgrwt>
</event>
<event>
 7    1  0.7800420E-006  0.1330332E+03  0.7546771E-02  0.1237481E+00
         -1   -1    0    0    0  501 -0.00000000000E+00  0.00000000000E+00  0.54185825703E+02  0.54185825703E+02  0.00000000000E+00 0.  1.
          1   -1    0    0  501    0  0.00000000000E+00 -0.00000000000E+00 -0.35572527716E+03  0.35572527716E+03  0.00000000000E+00 0. -1.
         23    2    1    2    0    0  0.15544294108E+02  0.42800413804E+02 -0.27836273857E+03  0.30851847597E+03  0.12499734113E+03 0.  0.
          5    1    3    3  502    0 -0.45348688030E+02  0.31046051268E+02 -0.60133673166E+02  0.81599690281E+02  0.47000000000E+01 0.  1.
         -5    1    3    3    0  502  0.60892982138E+02  0.11754362536E+02 -0.21822906540E+03  0.22691878569E+03  0.47000000000E+01 0.  1.
        -11    1    1    2    0    0  0.20035601532E+01 -0.58404782855E+02  0.11454095236E+02  0.59551063898E+02  0.00000000000E+00 0.  1.
         11    1    1    2    0    0 -0.17547854261E+02  0.15604369052E+02 -0.34630808130E+02  0.41841563002E+02  0.00000000000E+00 0. -1.
<mgrwt>
<rscale>  0 0.12346912E+03</rscale>
<asrwt>0</asrwt>
<pdfrwt beam="2">  1        1 0.54726966E-01 0.13303321E+03</pdfrwt>
<pdfrwt beam="1">  1       -1 0.83362808E-02 0.13303321E+03</pdfrwt>
<totfact> 0.54546189E+03</totfact>
</mgrwt>
</event>
<event>
 7    1  0.7800420E-006  0.1381820E+03  0.7546771E-02  0.1227503E+00
         -1   -1    0    0    0  501 -0.00000000000E+00  0.00000000000E+00  0.15366975846E+03  0.15366975846E+03  0.00000000000E+00 0.  1.
          1   -1    0    0  501    0  0.00000000000E+00 -0.00000000000E+00 -0.99287691721E+02  0.99287691721E+02  0.00000000000E+00 0. -1.
         23    2    1    2    0    0  0.40042839911E+02  0.43194125454E+02  0.20923238472E+02  0.13975705902E+03  0.12500036854E+03 0.  0.
          5    1    3    3  502    0 -0.43525009732E+02  0.29942166596E+02  0.28886975158E+01  0.53116799470E+02  0.47000000000E+01 0. -1.
         -5    1    3    3    0  502  0.83567849643E+02  0.13251958858E+02  0.18034540956E+02  0.86640259550E+02  0.47000000000E+01 0. -1.
        -11    1    1    2    0    0  0.39297365345E+01 -0.27753123769E+02  0.55097122912E+02  0.61817244045E+02  0.00000000000E+00 0.  1.
         11    1    1    2    0    0 -0.43972576445E+02 -0.15441001684E+02 -0.21638294646E+02  0.51383147115E+02  0.00000000000E+00 0. -1.
<mgrwt>
<rscale>  0 0.12996840E+03</rscale>
<asrwt>0</asrwt>
<pdfrwt beam="2">  1        1 0.15275030E-01 0.13818196E+03</pdfrwt>
<pdfrwt beam="1">  1       -1 0.23641501E-01 0.13818196E+03</pdfrwt>
<totfact> 0.53067062E+03</totfact>
</mgrwt>
</event>
<event>
 6    1  0.7800420E-006  0.5125600E+03  0.7546771E-02  0.1066408E+00
          2   -1    0    0  501    0  0.00000000000E+00  0.00000000000E+00  0.56701577959E+03  0.56701577959E+03  0.00000000000E+00 0. -1.
         -2   -1    0    0    0  501 -0.00000000000E+00 -0.00000000000E+00 -0.16664881192E+03  0.16664881192E+03  0.00000000000E+00 0.  1.
          5    1    1    2  502    0  0.16873980795E+03 -0.41543314124E+02  0.39886908369E+03  0.43510643027E+03  0.47000000000E+01 0. -1.
         -5    1    1    2    0  502 -0.18340584174E+03  0.76602641760E+01 -0.43360212013E+02  0.18867586072E+03  0.47000000000E+01 0.  1.
        -11    1    1    2    0    0  0.68621730276E+01  0.18122302606E+02 -0.28489796482E+02  0.34455417193E+02  0.00000000000E+00 0. -1.
         11    1    1    2    0    0  0.78038607714E+01  0.15760747343E+02  0.73347892467E+02  0.75426883331E+02  0.00000000000E+00 0.  1.
<mgrwt>
<rscale>  0 0.34091287E+03</rscale>
<asrwt>0</asrwt>
<pdfrwt beam="1">  1        2 0.87233196E-01 0.51256003E+03</pdfrwt>
<pdfrwt beam="2">  1       -2 0.25638279E-01 0.51256003E+03</pdfrwt>
<totfact> 0.73201368E+02</totfact>
</mgrwt>
</event>
<event>
 7    1  0.7800420E-006  0.1391864E+03  0.7546771E-02  0.1226492E+00
         -1   -1    0    0    0  501 -0.00000000000E+00  0.00000000000E+00  0.16462503458E+03  0.16462503458E+03  0.00000000000E+00 0.  1.
          1   -1    0    0  501    0  0.00000000000E+00 -0.00000000000E+00 -0.15374696511E+03  0.15374696511E+03  0.00000000000E+00 0. -1.
         23    2    1    2    0    0  0.47459700555E+02 -0.38687750132E+02 -0.93863980168E+02  0.16787885767E+03  0.12499479547E+03 0.  0.
          5    1    3    3  502    0  0.16514834386E+02 -0.14359235821E+01  0.30114043627E+02  0.34695060958E+02  0.47000000000E+01 0. -1.
         -5    1    3    3    0  502  0.30944866169E+02 -0.37251826550E+02 -0.12397802379E+03  0.13318379672E+03  0.47000000000E+01 0. -1.
        -11    1    1    2    0    0 -0.71464533083E+02  0.33692657898E+02  0.96295491628E+02  0.12456001121E+03  0.00000000000E+00 0. -1.
         11    1    1    2    0    0  0.24004832527E+02  0.49950922340E+01  0.84465580193E+01  0.25933130807E+02  0.00000000000E+00 0.  1.
<mgrwt>
<rscale>  0 0.13065181E+03</rscale>
<asrwt>0</asrwt>
<pdfrwt beam="2">  1        1 0.23653379E-01 0.13918644E+03</pdfrwt>
<pdfrwt beam="1">  1       -1 0.25326928E-01 0.13918644E+03</pdfrwt>
<totfact> 0.27138842E+03</totfact>
</mgrwt>
</event>
<event>
 7    1  0.7800420E-006  0.1558630E+03  0.7546771E-02  0.1202445E+00
          2   -1    0    0  501    0  0.00000000000E+00  0.00000000000E+00  0.96521744112E+03  0.96521744112E+03  0.00000000000E+00 0. -1.
         -2   -1    0    0    0  501 -0.00000000000E+00 -0.00000000000E+00 -0.21593486170E+02  0.21593486170E+02  0.00000000000E+00 0.  1.
         23    2    1    2    0    0  0.91158643496E+02 -0.18935113433E+02  0.60526426361E+03  0.62501048892E+03  0.12499938259E+03 0.  0.
          5    1    3    3  502    0  0.42741779064E+02  0.33925037212E+01  0.53473272443E+03  0.53646951948E+03  0.47000000000E+01 0.  1.
         -5    1    3    3    0  502  0.48416864432E+02 -0.22327617154E+02  0.70531539188E+02  0.88540969440E+02  0.47000000000E+01 0.  1.
        -11    1    1    2    0    0 -0.90321540725E+02  0.33121562547E+02  0.33299051093E+03  0.34660885591E+03  0.00000000000E+00 0. -1.
         11    1    1    2    0    0 -0.83710277056E+00 -0.14186449114E+02  0.53691804092E+01  0.15191582464E+02  0.00000000000E+00 0.  1.
<mgrwt>
<rscale>  0 0.14840667E+03</rscale>
<asrwt>0</asrwt>
<pdfrwt beam="1">  1        2 0.14849496E+00 0.15586302E+03</pdfrwt>
<pdfrwt beam="2">  1       -2 0.33220755E-02 0.15586302E+03</pdfrwt>
<totfact> 0.97470900E+03</totfact>
</mgrwt>
</event>
<event>
 7    1  0.1458166E-005  0.1673803E+03  0.7546771E-02  0.1188286E+00
          1   -1    0    0  501    0  0.00000000000E+00  0.00000000000E+00  0.43717196828E+03  0.43717196828E+03  0.00000000000E+00 0. -1.
         -1   -1    0    0    0  501 -0.00000000000E+00 -0.00000000000E+00 -0.54586447100E+02  0.54586447100E+02  0.00000000000E+00 0.  1.
         23    2    1    2    0    0  0.95416974536E+02  0.57331944342E+02  0.22211030635E+03  0.27811713268E+03  0.12499920173E+03 0.  0.
          5    1    3    3  502    0  0.10903979885E+02  0.67869381348E+02  0.47199654503E+02  0.83516747345E+02  0.47000000000E+01 0. -1.
         -5    1    3    3    0  502  0.84512994651E+02 -0.10537437005E+02  0.17491065184E+03  0.19460038533E+03  0.47000000000E+01 0. -1.
        -11    1    1    2    0    0 -0.10508810045E+03 -0.69108410904E+02  0.14203249466E+03  0.18971745005E+03  0.00000000000E+00 0. -1.
         11    1    1    2    0    0  0.96711259182E+01  0.11776466562E+02  0.18442720172E+02  0.23923832648E+02  0.00000000000E+00 0.  1.
<mgrwt>
<rscale>  0 0.16036454E+03</rscale>
<asrwt>0</asrwt>
<pdfrwt beam="1">  1        1 0.67257224E-01 0.16738026E+03</pdfrwt>
<pdfrwt beam="2">  1       -1 0.83979152E-02 0.16738026E+03</pdfrwt>
<totfact> 0.42060902E+03</totfact>
</mgrwt>
</event>
<event>
 7    1  0.7800420E-006  0.2022303E+03  0.7546771E-02  0.1152088E+00
          2   -1    0    0  501    0  0.00000000000E+00  0.00000000000E+00  0.61754036918E+03  0.61754036918E+03  0.00000000000E+00 0. -1.
         -2   -1    0    0    0  501 -0.00000000000E+00 -0.00000000000E+00 -0.72938552374E+02  0.72938552374E+02  0.00000000000E+00 0.  1.
         23    2    1    2    0    0 -0.89634363907E+02 -0.13128560275E+03  0.42832089165E+03  0.47366220171E+03  0.12500746547E+03 0.  0.
          5    1    3    3  502    0 -0.20985159447E+02 -0.76357723693E+02  0.73719062888E+02  0.10829343986E+03  0.47000000000E+01 0.  1.
         -5    1    3    3    0  502 -0.68649204460E+02 -0.54927879054E+02  0.35460182876E+03  0.36536876184E+03  0.47000000000E+01 0.  1.
        -11    1    1    2    0    0  0.34750421121E+02  0.11010457210E+03  0.10670143538E+03  0.15721261043E+03  0.00000000000E+00 0. -1.
         11    1    1    2    0    0  0.54883942786E+02  0.21181030651E+02  0.95794897726E+01  0.59604109418E+02  0.00000000000E+00 0.  1.
<mgrwt>
<rscale>  0 0.19724055E+03</rscale>
<asrwt>0</asrwt>
<pdfrwt beam="1">  1        2 0.95006207E-01 0.20223030E+03</pdfrwt>
<pdfrwt beam="2">  1       -2 0.11221316E-01 0.20223030E+03</pdfrwt>
<totfact> 0.26631480E+03</totfact>
</mgrwt>
</event>
<event>
 7    1  0.7800420E-006  0.1372771E+03  0.7546771E-02  0.1229250E+00
          1   -1    0    0  501    0  0.00000000000E+00  0.00000000000E+00  0.60276265077E+03  0.60276265077E+03  0.00000000000E+00 0. -1.
         -1   -1    0    0    0  501 -0.00000000000E+00 -0.00000000000E+00 -0.31042299622E+02  0.31042299622E+02  0.00000000000E+00 0.  1.
         23    2    1    2    0    0  0.50262751077E+02 -0.26326974761E+02  0.45780723211E+03  0.47794608926E+03  0.12500219486E+03 0.  0.
          5    1    3    3  502    0  0.40517594218E+02 -0.22798781405E+02  0.46306032208E+03  0.46541208811E+03  0.47000000000E+01 0.  1.
         -5    1    3    3    0  502  0.97451568595E+01 -0.35281933559E+01 -0.52530899687E+01  0.12534001149E+02  0.47000000000E+01 0.  1.
        -11    1    1    2    0    0 -0.27960285701E+02  0.57094613332E+02  0.47560569160E+02  0.79395089186E+02  0.00000000000E+00 0. -1.
         11    1    1    2    0    0 -0.22302465376E+02 -0.30767638571E+02  0.66352549880E+02  0.76463771949E+02  0.00000000000E+00 0.  1.
<mgrwt>
<rscale>  0 0.12879801E+03</rscale>
<asrwt>0</asrwt>
<pdfrwt beam="1">  1        1 0.92732707E-01 0.13727710E+03</pdfrwt>
<pdfrwt beam="2">  1       -1 0.47757388E-02 0.13727710E+03</pdfrwt>
<totfact> 0.63492139E+03</totfact>
</mgrwt>
</event>
<event>
 7    1  0.7800420E-006  0.1321177E+03  0.7546771E-02  0.1237683E+00
         -2   -1    0    0    0  501 -0.00000000000E+00  0.00000000000E+00  0.12464291044E+02  0.12464291044E+02  0.00000000000E+00 0.  1.
          2   -1    0    0  501    0  0.00000000000E+00 -0.00000000000E+00 -0.12461860121E+04  0.12461860121E+04  0.00000000000E+00 0. -1.
         23    2    1    2    0    0  0.31273970823E+02  0.32496753309E+02 -0.91532348984E+03  0.92480927144E+03  0.12418130802E+03 0.  0.
          5    1    3    3  502    0 -0.18110807585E+02  0.66038206031E+02 -0.38023372802E+03  0.38637911943E+03  0.47000000000E+01 0. -1.
         -5    1    3    3    0  502  0.49384778408E+02 -0.33541452723E+02 -0.53508976181E+03  0.53843015201E+03  0.47000000000E+01 0.  1.
        -11    1    1    2    0    0  0.30525593828E+01 -0.57487430445E+02 -0.16965376143E+03  0.17915502099E+03  0.00000000000E+00 0. -1.
         11    1    1    2    0    0 -0.34326530206E+02  0.24990677136E+02 -0.14874446979E+03  0.15468601072E+03  0.00000000000E+00 0.  1.
<mgrwt>
<rscale>  0 0.12334242E+03</rscale>
<asrwt>0</asrwt>
<pdfrwt beam="2">  1        2 0.19172102E+00 0.13211774E+03</pdfrwt>
<pdfrwt beam="1">  1       -2 0.19175823E-02 0.13211774E+03</pdfrwt>
<totfact> 0.14887385E+04</totfact>
</mgrwt>
</event>
<event>
 7    1  0.7800420E-006  0.1335241E+03  0.7546771E-02  0.1234026E+00
         -2   -1    0    0    0  501 -0.00000000000E+00  0.00000000000E+00  0.45743544472E+03  0.45743544472E+03  0.00000000000E+00 0.  1.
          2   -1    0    0  501    0  0.00000000000E+00 -0.00000000000E+00 -0.31208475092E+02  0.31208475092E+02  0.00000000000E+00 0. -1.
         23    2    1    2    0    0 -0.35742150948E+02  0.30445370639E+02  0.22058149173E+03  0.25784664230E+03  0.12499709799E+03 0.  0.
          5    1    3    3  502    0 -0.45605525843E+02  0.24316999097E+02  0.23388485809E+03  0.23957336513E+03  0.47000000000E+01 0.  1.
         -5    1    3    3    0  502  0.98633748959E+01  0.61283715420E+01 -0.13303366367E+02  0.18273277177E+02  0.47000000000E+01 0.  1.
        -11    1    1    2    0    0  0.30438438919E+02  0.30385297535E+02  0.98365177081E+02  0.10735675541E+03  0.00000000000E+00 0.  1.
         11    1    1    2    0    0  0.53037120281E+01 -0.60830668175E+02  0.10728030082E+03  0.12344052210E+03  0.00000000000E+00 0. -1.
<mgrwt>
<rscale>  0 0.12567008E+03</rscale>
<asrwt>0</asrwt>
<pdfrwt beam="2">  1        2 0.48013042E-02 0.13352414E+03</pdfrwt>
<pdfrwt beam="1">  1       -2 0.70374679E-01 0.13352414E+03</pdfrwt>
<totfact> 0.29862464E+03</totfact>
</mgrwt>
</event>
<event>
 7    1  0.7800420E-006  0.1599285E+03  0.7546771E-02  0.1196163E+00
         -2   -1    0    0    0  501 -0.00000000000E+00  0.00000000000E+00  0.80281145753E+02  0.80281145753E+02  0.00000000000E+00 0.  1.
          2   -1    0    0  501    0  0.00000000000E+00 -0.00000000000E+00 -0.30817674447E+03  0.30817674447E+03  0.00000000000E+00 0. -1.
         23    2    1    2    0    0 -0.96688949716E+02  0.24555387855E+02 -0.18791571184E+03  0.24675788453E+03  0.12500167499E+03 0.  0.
          5    1    3    3  502    0  0.11328617238E+02  0.47260741930E+02 -0.47830971253E+02  0.68350618924E+02  0.47000000000E+01 0. -1.
         -5    1    3    3    0  502 -0.10801756695E+03 -0.22705354074E+02 -0.14008474059E+03  0.17840726560E+03  0.47000000000E+01 0. -1.
        -11    1    1    2    0    0  0.57533241110E+02 -0.19523869005E+02 -0.69569330481E+02  0.92364208637E+02  0.00000000000E+00 0. -1.
         11    1    1    2    0    0  0.39155708606E+02 -0.50315188503E+01  0.29589443607E+02  0.49335797058E+02  0.00000000000E+00 0.  1.
<mgrwt>
<rscale>  0 0.15356198E+03</rscale>
<asrwt>0</asrwt>
<pdfrwt beam="2">  1        2 0.47411806E-01 0.15992854E+03</pdfrwt>
<pdfrwt beam="1">  1       -2 0.12350946E-01 0.15992854E+03</pdfrwt>
<totfact> 0.48506660E+03</totfact>
</mgrwt>
</event>
<event>
 7    1  0.7800420E-006  0.1275186E+03  0.7546771E-02  0.1246666E+00
          1   -1    0    0  501    0  0.00000000000E+00  0.00000000000E+00  0.15544699476E+03  0.15544699476E+03  0.00000000000E+00 0. -1.
         -1   -1    0    0    0  501 -0.00000000000E+00 -0.00000000000E+00 -0.22535780528E+03  0.22535780528E+03  0.00000000000E+00 0.  1.
         23    2    1    2    0    0 -0.19505733019E+02  0.16034874754E+02  0.11632906545E+03  0.17260777530E+03  0.12499360703E+03 0.  0.
          5    1    3    3  502    0 -0.85545878505E+01 -0.16144370813E+02 -0.22636983652E+02  0.29467689273E+02  0.47000000000E+01 0.  1.
         -5    1    3    3    0  502 -0.10951145168E+02  0.32179245567E+02  0.13896604910E+03  0.14314008603E+03  0.47000000000E+01 0.  1.
        -11    1    1    2    0    0  0.80533375425E+01 -0.44010283426E+02 -0.16574006862E+03  0.17167274577E+03  0.00000000000E+00 0.  1.
         11    1    1    2    0    0  0.11452395476E+02  0.27975408672E+02 -0.20499807356E+02  0.36524278968E+02  0.00000000000E+00 0. -1.
<mgrwt>
<rscale>  0 0.11786214E+03</rscale>
<asrwt>0</asrwt>
<pdfrwt beam="1">  1        1 0.23914923E-01 0.12751860E+03</pdfrwt>
<pdfrwt beam="2">  1       -1 0.34670431E-01 0.12751860E+03</pdfrwt>
<totfact> 0.15753692E+03</totfact>
</mgrwt>
</event>
<event>
 7    1  0.7800420E-006  0.1160851E+03  0.7546771E-02  0.1258248E+00
          1   -1    0    0  501    0  0.00000000000E+00  0.00000000000E+00  0.10683984679E+04  0.10683984679E+04  0.00000000000E+00 0. -1.
         -1   -1    0    0    0  501 -0.00000000000E+00 -0.00000000000E+00 -0.24619331099E+02  0.24619331099E+02  0.00000000000E+00 0.  1.
         23    2    1    2    0    0 -0.21688351353E+02 -0.23706420461E+02  0.95110227681E+03  0.95816036276E+03  0.11154981339E+03 0.  0.
          5    1    3    3  502    0 -0.65068844818E+01 -0.68273657314E+02  0.57311373622E+03  0.57722186070E+03  0.47000000000E+01 0. -1.
         -5    1    3    3    0  502 -0.15181466871E+02  0.44567236854E+02  0.37798854059E+03  0.38093850206E+03  0.47000000000E+01 0.  1.
        -11    1    1    2    0    0  0.38834913052E+01  0.33935395940E+02  0.10533552024E+03  0.11073510928E+03  0.00000000000E+00 0. -1.
         11    1    1    2    0    0  0.17804860047E+02 -0.10228975479E+02 -0.12658660219E+02  0.24122326986E+02  0.00000000000E+00 0.  1.
<mgrwt>
<rscale>  0 0.11126336E+03</rscale>
<asrwt>0</asrwt>
<pdfrwt beam="1">  1        1 0.16436896E+00 0.11608505E+03</pdfrwt>
<pdfrwt beam="2">  1       -1 0.37875902E-02 0.11608505E+03</pdfrwt>
<totfact> 0.37094381E+03</totfact>
</mgrwt>
</event>
<event>
 7    1  0.7800420E-006  0.1598655E+03  0.7546771E-02  0.1196722E+00
          2   -1    0    0  501    0  0.00000000000E+00  0.00000000000E+00  0.36846727548E+02  0.36846727548E+02  0.00000000000E+00 0. -1.
         -2   -1    0    0    0  501 -0.00000000000E+00 -0.00000000000E+00 -0.59533027310E+03  0.59533027310E+03  0.00000000000E+00 0.  1.
         23    2    1    2    0    0  0.98609173149E+02  0.14438511091E+02 -0.26745341764E+03  0.31158997993E+03  0.12499898142E+03 0.  0.
          5    1    3    3  502    0  0.12272775258E+03  0.73070089481E+01 -0.16400830557E+03  0.20502757846E+03  0.47000000000E+01 0. -1.
         -5    1    3    3    0  502 -0.24118579431E+02  0.71315021425E+01 -0.10344511207E+03  0.10656240147E+03  0.47000000000E+01 0. -1.
        -11    1    1    2    0    0 -0.15253556433E+02 -0.39607275730E+02 -0.13958549984E+03  0.14589557581E+03  0.00000000000E+00 0. -1.
         11    1    1    2    0    0 -0.83355616717E+02  0.25168764639E+02 -0.15144462807E+03  0.17469144491E+03  0.00000000000E+00 0.  1.
<mgrwt>
<rscale>  0 0.15309408E+03</rscale>
<asrwt>0</asrwt>
<pdfrwt beam="1">  1        2 0.56687270E-02 0.15986552E+03</pdfrwt>
<pdfrwt beam="2">  1       -2 0.91589277E-01 0.15986552E+03</pdfrwt>
<totfact> 0.13641506E+03</totfact>
</mgrwt>
</event>
<event>
 7    1  0.7800420E-006  0.2442499E+03  0.7546771E-02  0.1119751E+00
         -2   -1    0    0    0  501 -0.00000000000E+00  0.00000000000E+00  0.15284942245E+03  0.15284942245E+03  0.00000000000E+00 0.  1.
          2   -1    0    0  501    0  0.00000000000E+00 -0.00000000000E+00 -0.39731447825E+03  0.39731447825E+03  0.00000000000E+00 0. -1.
         23    2    1    2    0    0  0.17510502200E+03  0.11563378619E+03 -0.20493554378E+03  0.31883632531E+03  0.12500033599E+03 0.  0.
          5    1    3    3  502    0  0.81817039671E+02  0.10086758712E+03 -0.54026008357E+02  0.14074515157E+03  0.47000000000E+01 0. -1.
         -5    1    3    3    0  502  0.93287982324E+02  0.14766199067E+02 -0.15090953543E+03  0.17809117374E+03  0.47000000000E+01 0. -1.
        -11    1    1    2    0    0 -0.69062669847E+02 -0.48167155583E+02  0.27893054684E+02  0.88700336769E+02  0.00000000000E+00 0.  1.
         11    1    1    2    0    0 -0.10604235215E+03 -0.67466630607E+02 -0.67422566706E+02  0.14262723862E+03  0.00000000000E+00 0. -1.
<mgrwt>
<rscale>  0 0.24006225E+03</rscale>
<asrwt>0</asrwt>
<pdfrwt beam="2">  1        2 0.61125304E-01 0.24424992E+03</pdfrwt>
<pdfrwt beam="1">  1       -2 0.23515296E-01 0.24424992E+03</pdfrwt>
<totfact> 0.12728590E+03</totfact>
</mgrwt>
</event>
<event>
 7    1  0.7800420E-006  0.1589826E+03  0.7546771E-02  0.1196389E+00
          1   -1    0    0  501    0  0.00000000000E+00  0.00000000000E+00  0.20994754146E+03  0.20994754146E+03  0.00000000000E+00 0. -1.
         -1   -1    0    0    0  501 -0.00000000000E+00 -0.00000000000E+00 -0.10735905508E+03  0.10735905508E+03  0.00000000000E+00 0.  1.
         23    2    1    2    0    0 -0.97855228844E+02 -0.83110760329E+01  0.30522277574E+02  0.16188597008E+03  0.12502295022E+03 0.  0.
          5    1    3    3  502    0 -0.68571180467E+02 -0.24547527013E+01 -0.43876307998E+02  0.81579734034E+02  0.47000000000E+01 0.  1.
         -5    1    3    3    0  502 -0.29284048377E+02 -0.58563233316E+01  0.74398585572E+02  0.80306236043E+02  0.47000000000E+01 0.  1.
        -11    1    1    2    0    0  0.83119050172E+02  0.12369478537E+02  0.23697289626E+01  0.84067806657E+02  0.00000000000E+00 0.  1.
         11    1    1    2    0    0  0.14736178673E+02 -0.40584025043E+01  0.69696479843E+02  0.71352819813E+02  0.00000000000E+00 0. -1.
<mgrwt>
<rscale>  0 0.15337259E+03</rscale>
<asrwt>0</asrwt>
<pdfrwt beam="1">  1        1 0.32299622E-01 0.15898257E+03</pdfrwt>
<pdfrwt beam="2">  1       -1 0.16516778E-01 0.15898257E+03</pdfrwt>
<totfact> 0.36853710E+03</totfact>
</mgrwt>
</event>
<event>
 7    1  0.7800420E-006  0.1402276E+03  0.7546771E-02  0.1223973E+00
         -1   -1    0    0    0  501 -0.00000000000E+00  0.00000000000E+00  0.76478204515E+02  0.76478204515E+02  0.00000000000E+00 0.  1.
          1   -1    0    0  501    0  0.00000000000E+00 -0.00000000000E+00 -0.37800625533E+03  0.37800625533E+03  0.00000000000E+00 0. -1.
         23    2    1    2    0    0  0.27259436869E+02  0.57407911553E+02 -0.31256469813E+03  0.34257912929E+03  0.12500009640E+03 0.  0.
          5    1    3    3  502    0  0.38658141683E+02  0.68003686722E+02 -0.31632964670E+03  0.32589183590E+03  0.47000000000E+01 0.  1.
         -5    1    3    3    0  502 -0.11398704815E+02 -0.10595775169E+02  0.37649485686E+01  0.16687293387E+02  0.47000000000E+01 0.  1.
        -11    1    1    2    0    0  0.14157675571E+01  0.20867703557E+02  0.18877229260E+02  0.28174726867E+02  0.00000000000E+00 0.  1.
         11    1    1    2    0    0 -0.28675204426E+02 -0.78275615111E+02 -0.78405819502E+01  0.83730603695E+02  0.00000000000E+00 0. -1.
<mgrwt>
<rscale>  0 0.13237535E+03</rscale>
<asrwt>0</asrwt>
<pdfrwt beam="2">  1        1 0.58154809E-01 0.14022756E+03</pdfrwt>
<pdfrwt beam="1">  1       -1 0.11765878E-01 0.14022756E+03</pdfrwt>
<totfact> 0.29957402E+03</totfact>
</mgrwt>
</event>
<event>
 7    1  0.7800420E-006  0.1690213E+03  0.7546771E-02  0.1185644E+00
         -2   -1    0    0    0  501 -0.00000000000E+00  0.00000000000E+00  0.14636134361E+03  0.14636134361E+03  0.00000000000E+00 0.  1.
          2   -1    0    0  501    0  0.00000000000E+00 -0.00000000000E+00 -0.17321051706E+03  0.17321051706E+03  0.00000000000E+00 0. -1.
         23    2    1    2    0    0  0.31888789879E+02 -0.10920866569E+03 -0.40145252685E+02  0.17372343945E+03  0.12499905807E+03 0.  0.
          5    1    3    3  502    0 -0.10748227093E+02  0.25019223215E+02 -0.11476840234E+02  0.29921460153E+02  0.47000000000E+01 0. -1.
         -5    1    3    3    0  502  0.42637016973E+02 -0.13422788891E+03 -0.28668412450E+02  0.14380197930E+03  0.47000000000E+01 0. -1.
        -11    1    1    2    0    0 -0.10650589323E+02  0.90427286276E+02 -0.28442571720E+02  0.95391346789E+02  0.00000000000E+00 0. -1.
         11    1    1    2    0    0 -0.21238200556E+02  0.18781379417E+02  0.41738650956E+02  0.50457074423E+02  0.00000000000E+00 0.  1.
<mgrwt>
<rscale>  0 0.16273404E+03</rscale>
<asrwt>0</asrwt>
<pdfrwt beam="2">  1        2 0.26647772E-01 0.16902128E+03</pdfrwt>
<pdfrwt beam="1">  1       -2 0.22517130E-01 0.16902128E+03</pdfrwt>
<totfact> 0.33345919E+03</totfact>
</mgrwt>
</event>
<event>
 7    1  0.9079850E-006  0.2051421E+03  0.7546771E-02  0.1149570E+00
          1   -1    0    0  501    0  0.00000000000E+00  0.00000000000E+00  0.98339689060E+03  0.98339689060E+03  0.00000000000E+00 0. -1.
         -1   -1    0    0    0  501 -0.00000000000E+00 -0.00000000000E+00 -0.40312727216E+02  0.40312727216E+02  0.00000000000E+00 0.  1.
         23    2    1    2    0    0  0.16170518445E+03 -0.17607701131E+02  0.58911126199E+03  0.62380714893E+03  0.12499872893E+03 0.  0.
          5    1    3    3  502    0  0.78990055443E+02  0.23071379883E+02  0.11922948034E+03  0.14494646049E+03  0.47000000000E+01 0.  1.
         -5    1    3    3    0  502  0.82715129012E+02 -0.40679081015E+02  0.46988178165E+03  0.47886068843E+03  0.47000000000E+01 0.  1.
        -11    1    1    2    0    0 -0.45023298922E+02  0.41136356213E+02  0.17167145948E+03  0.18218229126E+03  0.00000000000E+00 0. -1.
         11    1    1    2    0    0 -0.11668188553E+03 -0.23528655082E+02  0.18230144191E+03  0.21772017762E+03  0.00000000000E+00 0.  1.
<mgrwt>
<rscale>  0 0.20020047E+03</rscale>
<asrwt>0</asrwt>
<pdfrwt beam="1">  1        1 0.15129181E+00 0.20514210E+03</pdfrwt>
<pdfrwt beam="2">  1       -1 0.62019588E-02 0.20514210E+03</pdfrwt>
<totfact> 0.20847417E+03</totfact>
</mgrwt>
</event>
<event>
 7    1  0.7800420E-006  0.1548101E+03  0.7546771E-02  0.1202583E+00
         -2   -1    0    0    0  501 -0.00000000000E+00  0.00000000000E+00  0.43850659239E+02  0.43850659239E+02  0.00000000000E+00 0.  1.
          2   -1    0    0  501    0  0.00000000000E+00 -0.00000000000E+00 -0.50476673543E+03  0.50476673543E+03  0.00000000000E+00 0. -1.
         23    2    1    2    0    0  0.74371894310E+02  0.53004321670E+02 -0.32668664636E+03  0.36151119487E+03  0.12500216929E+03 0.  0.
          5    1    3    3  502    0 -0.59311529255E+01  0.26631861880E+02 -0.40829758844E+01  0.27985627281E+02  0.47000000000E+01 0.  1.
         -5    1    3    3    0  502  0.80303047236E+02  0.26372459790E+02 -0.32260367048E+03  0.33352556759E+03  0.47000000000E+01 0.  1.
        -11    1    1    2    0    0 -0.48774271755E+02  0.89187348486E+00 -0.10729612709E+02  0.49948469570E+02  0.00000000000E+00 0.  1.
         11    1    1    2    0    0 -0.25597622555E+02 -0.53896195155E+02 -0.12349981712E+03  0.13715773023E+03  0.00000000000E+00 0. -1.
<mgrwt>
<rscale>  0 0.14829535E+03</rscale>
<asrwt>0</asrwt>
<pdfrwt beam="2">  1        2 0.77656429E-01 0.15481014E+03</pdfrwt>
<pdfrwt beam="1">  1       -2 0.67462546E-02 0.15481014E+03</pdfrwt>
<totfact> 0.73372757E+03</totfact>
</mgrwt>
</event>
<event>
 7    1  0.7800420E-006  0.1286277E+03  0.7546771E-02  0.1242831E+00
          2   -1    0    0  501    0  0.00000000000E+00  0.00000000000E+00  0.26606450972E+03  0.26606450972E+03  0.00000000000E+00 0. -1.
         -2   -1    0    0    0  501 -0.00000000000E+00 -0.00000000000E+00 -0.48253052581E+02  0.48253052581E+02  0.00000000000E+00 0.  1.
         23    2    1    2    0    0  0.20475962354E+02 -0.22362983953E+02  0.12140979595E+03  0.17687682611E+03  0.12500281987E+03 0.  0.
          5    1    3    3  502    0  0.65276539276E+02 -0.43733172112E+02  0.76867870745E+02  0.11001989127E+03  0.47000000000E+01 0. -1.
         -5    1    3    3    0  502 -0.44800576922E+02  0.21370188159E+02  0.44541925207E+02  0.66856934836E+02  0.47000000000E+01 0. -1.
        -11    1    1    2    0    0  0.18742731700E+02 -0.15462983772E+02 -0.25984971469E+01  0.24436571898E+02  0.00000000000E+00 0. -1.
         11    1    1    2    0    0 -0.39218694054E+02  0.37825967725E+02  0.99000158337E+02  0.11300416430E+03  0.00000000000E+00 0.  1.
<mgrwt>
<rscale>  0 0.12016164E+03</rscale>
<asrwt>0</asrwt>
<pdfrwt beam="1">  1        2 0.40933000E-01 0.12862765E+03</pdfrwt>
<pdfrwt beam="2">  1       -2 0.74235467E-02 0.12862765E+03</pdfrwt>
<totfact> 0.12415928E+04</totfact>
</mgrwt>
</event>
<event>
 7    1  0.7800420E-006  0.1919761E+03  0.7546771E-02  0.1162328E+00
          1   -1    0    0  501    0  0.00000000000E+00  0.00000000000E+00  0.22389871501E+03  0.22389871501E+03  0.00000000000E+00 0. -1.
         -1   -1    0    0    0  501 -0.00000000000E+00 -0.00000000000E+00 -0.14534221146E+03  0.14534221146E+03  0.00000000000E+00 0.  1.
         23    2    1    2    0    0 -0.12041397373E+03  0.82040948472E+02  0.51188348727E+02  0.19868334444E+03  0.12499832806E+03 0.  0.
          5    1    3    3  502    0 -0.55641390558E+02  0.97509175375E+02 -0.34445146377E+01  0.11241867419E+03  0.47000000000E+01 0. -1.
         -5    1    3    3    0  502 -0.64772583176E+02 -0.15468226902E+02  0.54632863365E+02  0.86264670255E+02  0.47000000000E+01 0. -1.
        -11    1    1    2    0    0 -0.48318013827E+01 -0.22135765078E+02 -0.12807774213E+02  0.26026476529E+02  0.00000000000E+00 0.  1.
         11    1    1    2    0    0  0.12524577512E+03 -0.59905183394E+02  0.40175929036E+02  0.14453110550E+03  0.00000000000E+00 0. -1.
<mgrwt>
<rscale>  0 0.18577490E+03</rscale>
<asrwt>0</asrwt>
<pdfrwt beam="1">  1        1 0.34445956E-01 0.19197610E+03</pdfrwt>
<pdfrwt beam="2">  1       -1 0.22360340E-01 0.19197610E+03</pdfrwt>
<totfact> 0.21039086E+03</totfact>
</mgrwt>
</event>
<event>
 7    1  0.7800420E-006  0.1398796E+03  0.7546771E-02  0.1225056E+00
          1   -1    0    0  501    0  0.00000000000E+00  0.00000000000E+00  0.36932477842E+03  0.36932477842E+03  0.00000000000E+00 0. -1.
         -1   -1    0    0    0  501 -0.00000000000E+00 -0.00000000000E+00 -0.45123277722E+02  0.45123277722E+02  0.00000000000E+00 0.  1.
         23    2    1    2    0    0 -0.44573256248E+02  0.44210517053E+02  0.23315190458E+03  0.27189359138E+03  0.12499987773E+03 0.  0.
          5    1    3    3  502    0  0.19937994180E+02  0.55213451063E+02  0.17348772404E+03  0.18321061427E+03  0.47000000000E+01 0.  1.
         -5    1    3    3    0  502 -0.64511250428E+02 -0.11002934011E+02  0.59664180541E+02  0.88682977105E+02  0.47000000000E+01 0.  1.
        -11    1    1    2    0    0 -0.20700021446E+02 -0.18897173417E+02  0.59485945665E+02  0.65758435068E+02  0.00000000000E+00 0. -1.
         11    1    1    2    0    0  0.65273277694E+02 -0.25313343636E+02  0.31563650452E+02  0.76796029694E+02  0.00000000000E+00 0.  1.
<mgrwt>
<rscale>  0 0.13163063E+03</rscale>
<asrwt>0</asrwt>
<pdfrwt beam="1">  1        1 0.56819195E-01 0.13987964E+03</pdfrwt>
<pdfrwt beam="2">  1       -1 0.69420430E-02 0.13987964E+03</pdfrwt>
<totfact> 0.68758167E+03</totfact>
</mgrwt>
</event>
<event>
 7    1  0.7800420E-006  0.2766057E+03  0.7546771E-02  0.1099422E+00
         -2   -1    0    0    0  501 -0.00000000000E+00  0.00000000000E+00  0.92534196982E+02  0.92534196982E+02  0.00000000000E+00 0.  1.
          2   -1    0    0  501    0  0.00000000000E+00 -0.00000000000E+00 -0.98588372608E+03  0.98588372608E+03  0.00000000000E+00 0. -1.
         23    2    1    2    0    0 -0.18977440090E+03 -0.15769771336E+03 -0.69676234373E+03  0.74965892210E+03  0.12501137469E+03 0.  0.
          5    1    3    3  502    0  0.50350156841E+00 -0.42083743243E+02 -0.49425814427E+02  0.65086835005E+02  0.47000000000E+01 0. -1.
         -5    1    3    3    0  502 -0.19027790247E+03 -0.11561397012E+03 -0.64733652930E+03  0.68457208709E+03  0.47000000000E+01 0. -1.
        -11    1    1    2    0    0  0.88523648117E+02  0.21185796741E+02 -0.47486984160E+02  0.10266590439E+03  0.00000000000E+00 0.  1.
         11    1    1    2    0    0  0.10125075279E+03  0.13651191662E+03 -0.14910020121E+03  0.22609309657E+03  0.00000000000E+00 0. -1.
<mgrwt>
<rscale>  0 0.27327125E+03</rscale>
<asrwt>0</asrwt>
<pdfrwt beam="2">  1        2 0.15167443E+00 0.27660574E+03</pdfrwt>
<pdfrwt beam="1">  1       -2 0.14236029E-01 0.27660574E+03</pdfrwt>
<totfact> 0.10019684E+03</totfact>
</mgrwt>
</event>
<event>
 6    1  0.7800420E-006  0.2519119E+03  0.7546771E-02  0.1124811E+00
          2   -1    0    0  501    0  0.00000000000E+00  0.00000000000E+00  0.40802832781E+02  0.40802832781E+02  0.00000000000E+00 0. -1.
         -2   -1    0    0    0  501 -0.00000000000E+00 -0.00000000000E+00 -0.14576017759E+04  0.14576017759E+04  0.00000000000E+00 0.  1.
          5    1    1    2  502    0 -0.92104628225E+02  0.72382471428E+02 -0.12889665517E+03  0.17423811989E+03  0.47000000000E+01 0. -1.
         -5    1    1    2    0  502 -0.65712061551E+02 -0.92638247796E+02 -0.33328570301E+03  0.35213828224E+03  0.47000000000E+01 0.  1.
        -11    1    1    2    0    0 -0.21894467487E+01  0.22075561920E+02 -0.87339120403E+02  0.90112407935E+02  0.00000000000E+00 0. -1.
         11    1    1    2    0    0  0.16000613653E+03 -0.18197855525E+01 -0.86727746452E+03  0.88191579859E+03  0.00000000000E+00 0.  1.
<mgrwt>
<rscale>  0 0.23261706E+03</rscale>
<asrwt>0</asrwt>
<pdfrwt beam="1">  1        2 0.62773597E-02 0.25191186E+03</pdfrwt>
<pdfrwt beam="2">  1       -2 0.22424640E+00 0.25191186E+03</pdfrwt>
<totfact> 0.11882069E+02</totfact>
</mgrwt>
</event>
<event>
 7    1  0.7800420E-006  0.1255730E+03  0.7546771E-02  0.1250260E+00
          3   -1    0    0  501    0  0.00000000000E+00  0.00000000000E+00  0.15253038041E+03  0.15253038041E+03  0.00000000000E+00 0. -1.
         -3   -1    0    0    0  501 -0.00000000000E+00 -0.00000000000E+00 -0.79419432285E+02  0.79419432285E+02  0.00000000000E+00 0.  1.
         23    2    1    2    0    0  0.10027552207E+02 -0.65475093182E+01  0.63614651525E+02  0.14076718165E+03  0.12500061544E+03 0.  0.
          5    1    3    3  502    0  0.12722612020E+02  0.29392542565E+01 -0.37022866415E+02  0.39538420679E+02  0.47000000000E+01 0.  1.
         -5    1    3    3    0  502 -0.26950598134E+01 -0.94867635747E+01  0.10063751794E+03  0.10122876097E+03  0.47000000000E+01 0.  1.
        -11    1    1    2    0    0  0.39326828581E+02 -0.58957661756E+01  0.51540440055E+01  0.40098923610E+02  0.00000000000E+00 0. -1.
         11    1    1    2    0    0 -0.49354380788E+02  0.12443275494E+02  0.43422525961E+01  0.51083707437E+02  0.00000000000E+00 0.  1.
<mgrwt>
<rscale>  0 0.11575991E+03</rscale>
<asrwt>0</asrwt>
<pdfrwt beam="1">  1        3 0.23466212E-01 0.12557299E+03</pdfrwt>
<pdfrwt beam="2">  1       -3 0.12218374E-01 0.12557299E+03</pdfrwt>
<totfact> 0.20079978E+03</totfact>
</mgrwt>
</event>
<event>
 7    1  0.9561551E-006  0.4917489E+03  0.7546771E-02  0.1016458E+00
          2   -1    0    0  501    0  0.00000000000E+00  0.00000000000E+00  0.32367188421E+04  0.32367188421E+04  0.00000000000E+00 0. -1.
         -2   -1    0    0    0  501 -0.00000000000E+00 -0.00000000000E+00 -0.74146655572E+02  0.74146655572E+02  0.00000000000E+00 0.  1.
         23    2    1    2    0    0  0.31956267395E+03  0.35223593301E+03  0.14484686800E+04  0.15296661478E+04  0.12500620668E+03 0.  0.
          5    1    3    3  502    0  0.10364656337E+03  0.66819776294E+02  0.24849248563E+03  0.27744927107E+03  0.47000000000E+01 0. -1.
         -5    1    3    3    0  502  0.21591611058E+03  0.28541615671E+03  0.11999761944E+04  0.12522168768E+04  0.47000000000E+01 0. -1.
        -11    1    1    2    0    0 -0.60888026811E+02 -0.75569242332E+02  0.50209209004E+03  0.51138491284E+03  0.00000000000E+00 0.  1.
         11    1    1    2    0    0 -0.25867464713E+03 -0.27666669068E+03  0.12120114164E+04  0.12698144370E+04  0.00000000000E+00 0. -1.
<mgrwt>
<rscale>  0 0.48986918E+03</rscale>
<asrwt>0</asrwt>
<pdfrwt beam="1">  1        2 0.49795664E+00 0.49174893E+03</pdfrwt>
<pdfrwt beam="2">  1       -2 0.11407180E-01 0.49174893E+03</pdfrwt>
<totfact> 0.75561152E+01</totfact>
</mgrwt>
</event>
<event>
 7    1  0.7800420E-006  0.1367531E+03  0.7546771E-02  0.1229982E+00
         -1   -1    0    0    0  501 -0.00000000000E+00  0.00000000000E+00  0.22442301765E+02  0.22442301765E+02  0.00000000000E+00 0.  1.
          1   -1    0    0  501    0  0.00000000000E+00 -0.00000000000E+00 -0.65808665189E+03  0.65808665189E+03  0.00000000000E+00 0. -1.
         23    2    1    2    0    0  0.34100331208E+02  0.43730750773E+02 -0.37511430648E+03  0.39926451476E+03  0.12500479458E+03 0.  0.
          5    1    3    3  502    0  0.33950592658E+01  0.66140530716E+02 -0.34274353999E+03  0.34911505330E+03  0.47000000000E+01 0. -1.
         -5    1    3    3    0  502  0.30705271942E+02 -0.22409779944E+02 -0.32370766490E+02  0.50149461466E+02  0.47000000000E+01 0. -1.
        -11    1    1    2    0    0 -0.36933081473E+02  0.17445635464E+02 -0.14321907906E+03  0.14892987380E+03  0.00000000000E+00 0. -1.
         11    1    1    2    0    0  0.28327502658E+01 -0.61176386237E+02 -0.11731096459E+03  0.13233456510E+03  0.00000000000E+00 0.  1.
<mgrwt>
<rscale>  0 0.12831240E+03</rscale>
<asrwt>0</asrwt>
<pdfrwt beam="2">  1        1 0.10124408E+00 0.13675310E+03</pdfrwt>
<pdfrwt beam="1">  1       -1 0.34526625E-02 0.13675310E+03</pdfrwt>
<totfact> 0.90567190E+03</totfact>
</mgrwt>
</event>
<event>
 7    1  0.7800420E-006  0.1386324E+03  0.7546771E-02  0.1228604E+00
          1   -1    0    0  501    0  0.00000000000E+00  0.00000000000E+00  0.97637924032E+03  0.97637924032E+03  0.00000000000E+00 0. -1.
         -1   -1    0    0    0  501 -0.00000000000E+00 -0.00000000000E+00 -0.15157906635E+02  0.15157906635E+02  0.00000000000E+00 0.  1.
         23    2    1    2    0    0 -0.40048893893E+02 -0.44611569362E+02  0.54586889452E+03  0.56319782783E+03  0.12499934897E+03 0.  0.
          5    1    3    3  502    0 -0.15542740775E+01  0.30611281342E+02  0.32809888697E+03  0.32956097455E+03  0.47000000000E+01 0.  1.
         -5    1    3    3    0  502 -0.38494619816E+02 -0.75222850703E+02  0.21777000755E+03  0.23363685328E+03  0.47000000000E+01 0.  1.
        -11    1    1    2    0    0  0.90929777142E+01 -0.16073925902E+02  0.20249009492E+02  0.27405760763E+02  0.00000000000E+00 0.  1.
         11    1    1    2    0    0  0.30955916179E+02  0.60685495264E+02  0.39510342968E+03  0.40093355837E+03  0.00000000000E+00 0. -1.
<mgrwt>
<rscale>  0 0.12922890E+03</rscale>
<asrwt>0</asrwt>
<pdfrwt beam="1">  1        1 0.15021214E+00 0.13863240E+03</pdfrwt>
<pdfrwt beam="2">  1       -1 0.23319864E-02 0.13863240E+03</pdfrwt>
<totfact> 0.88190452E+03</totfact>
</mgrwt>
</event>
<event>
 7    1  0.7800420E-006  0.1283946E+03  0.7546771E-02  0.1244066E+00
         -1   -1    0    0    0  501 -0.00000000000E+00  0.00000000000E+00  0.23178130407E+03  0.23178130407E+03  0.00000000000E+00 0.  1.
          1   -1    0    0  501    0  0.00000000000E+00 -0.00000000000E+00 -0.58067500382E+02  0.58067500382E+02  0.00000000000E+00 0. -1.
         23    2    1    2    0    0  0.27249885927E+02 -0.10785122605E+02  0.62226291945E+02  0.14267899981E+03  0.12500524159E+03 0.  0.
          5    1    3    3  502    0  0.37992412749E+02 -0.63624118371E+02  0.34843236679E+02  0.82021905654E+02  0.47000000000E+01 0. -1.
         -5    1    3    3    0  502 -0.10742526822E+02  0.52838995766E+02  0.27383055266E+02  0.60657094159E+02  0.47000000000E+01 0. -1.
        -11    1    1    2    0    0  0.14177688381E+02  0.17513502502E+02  0.10157560251E+03  0.10404485880E+03  0.00000000000E+00 0.  1.
         11    1    1    2    0    0 -0.41427574308E+02 -0.67283798977E+01  0.99119092374E+01  0.43124945841E+02  0.00000000000E+00 0. -1.
<mgrwt>
<rscale>  0 0.11941459E+03</rscale>
<asrwt>0</asrwt>
<pdfrwt beam="2">  1        1 0.89334617E-02 0.12839465E+03</pdfrwt>
<pdfrwt beam="1">  1       -1 0.35658662E-01 0.12839465E+03</pdfrwt>
<totfact> 0.53697703E+03</totfact>
</mgrwt>
</event>
<event>
 7    1  0.7800420E-006  0.1418345E+03  0.7546771E-02  0.1221146E+00
         -1   -1    0    0    0  501 -0.00000000000E+00  0.00000000000E+00  0.45848359195E+03  0.45848359195E+03  0.00000000000E+00 0.  1.
          1   -1    0    0  501    0  0.00000000000E+00 -0.00000000000E+00 -0.36114424125E+02  0.36114424125E+02  0.00000000000E+00 0. -1.
         23    2    1    2    0    0 -0.57807460818E+02  0.33923715615E+02  0.20861168338E+03  0.25226148205E+03  0.12499799949E+03 0.  0.
          5    1    3    3  502    0 -0.62233177949E+02 -0.63056113744E+01  0.20132501989E+03  0.21087100988E+03  0.47000000000E+01 0. -1.
         -5    1    3    3    0  502  0.44257171304E+01  0.40229326989E+02  0.72866634884E+01  0.41390472175E+02  0.47000000000E+01 0. -1.
        -11    1    1    2    0    0 -0.99583988008E+01 -0.36114626248E+02  0.12592318623E+03  0.13137764180E+03  0.00000000000E+00 0.  1.
         11    1    1    2    0    0  0.67765859619E+02  0.21909106334E+01  0.87834298215E+02  0.11095889222E+03  0.00000000000E+00 0. -1.
<mgrwt>
<rscale>  0 0.13434582E+03</rscale>
<asrwt>0</asrwt>
<pdfrwt beam="2">  1        1 0.55560656E-02 0.14183448E+03</pdfrwt>
<pdfrwt beam="1">  1       -1 0.70535933E-01 0.14183448E+03</pdfrwt>
<totfact> 0.29337667E+03</totfact>
</mgrwt>
</event>
<event>
 7    1  0.7800420E-006  0.1701571E+03  0.7546771E-02  0.1184697E+00
         -2   -1    0    0    0  501 -0.00000000000E+00  0.00000000000E+00  0.66608303648E+02  0.66608303648E+02  0.00000000000E+00 0.  1.
          2   -1    0    0  501    0  0.00000000000E+00 -0.00000000000E+00 -0.37421747795E+03  0.37421747795E+03  0.00000000000E+00 0. -1.
         23    2    1    2    0    0 -0.11014459255E+03 -0.34589863566E+02 -0.15777599471E+03  0.23204895123E+03  0.12500064531E+03 0.  0.
          5    1    3    3  502    0 -0.62637415173E+01  0.27409974841E+02 -0.87581625532E+02  0.92104138395E+02  0.47000000000E+01 0. -1.
         -5    1    3    3    0  502 -0.10388085103E+03 -0.61999838407E+02 -0.70194369178E+02  0.13994481283E+03  0.47000000000E+01 0. -1.
        -11    1    1    2    0    0  0.48538125232E+02 -0.23129929137E+02 -0.91616765042E+02  0.10622887959E+03  0.00000000000E+00 0. -1.
         11    1    1    2    0    0  0.61606467320E+02  0.57719792703E+02 -0.58216414545E+02  0.10254795077E+03  0.00000000000E+00 0.  1.
<mgrwt>
<rscale>  0 0.16359501E+03</rscale>
<asrwt>0</asrwt>
<pdfrwt beam="2">  1        2 0.57571918E-01 0.17015714E+03</pdfrwt>
<pdfrwt beam="1">  1       -2 0.10247432E-01 0.17015714E+03</pdfrwt>
<totfact> 0.53257759E+03</totfact>
</mgrwt>
</event>
<event>
 7    1  0.7800420E-006  0.1434657E+03  0.7546771E-02  0.1219905E+00
         -1   -1    0    0    0  501 -0.00000000000E+00  0.00000000000E+00  0.27986507774E+03  0.27986507774E+03  0.00000000000E+00 0.  1.
          1   -1    0    0  501    0  0.00000000000E+00 -0.00000000000E+00 -0.63796987044E+02  0.63796987044E+02  0.00000000000E+00 0. -1.
         23    2    1    2    0    0  0.62434117990E+02 -0.32553158315E+02  0.72284213055E+02  0.16064685096E+03  0.12499870424E+03 0.  0.
          5    1    3    3  502    0  0.47849480108E+02  0.14088874320E+02  0.94345397920E+02  0.10682328040E+03  0.47000000000E+01 0.  1.
         -5    1    3    3    0  502  0.14584637881E+02 -0.46642032635E+02 -0.22061184865E+02  0.53823570563E+02  0.47000000000E+01 0.  1.
        -11    1    1    2    0    0 -0.28566964240E+02  0.56371411293E+02  0.50292910877E+02  0.80766232681E+02  0.00000000000E+00 0. -1.
         11    1    1    2    0    0 -0.33867153750E+02 -0.23818252977E+02  0.93490966760E+02  0.10224898114E+03  0.00000000000E+00 0.  1.
<mgrwt>
<rscale>  0 0.13522291E+03</rscale>
<asrwt>0</asrwt>
<pdfrwt beam="2">  1        1 0.98149213E-02 0.14346569E+03</pdfrwt>
<pdfrwt beam="1">  1       -1 0.43056165E-01 0.14346569E+03</pdfrwt>
<totfact> 0.34319345E+03</totfact>
</mgrwt>
</event>
<event>
 7    1  0.7800420E-006  0.1292641E+03  0.7546771E-02  0.1245193E+00
         -2   -1    0    0    0  501 -0.00000000000E+00  0.00000000000E+00  0.18266371656E+03  0.18266371656E+03  0.00000000000E+00 0.  1.
          2   -1    0    0  501    0  0.00000000000E+00 -0.00000000000E+00 -0.67745631786E+02  0.67745631786E+02  0.00000000000E+00 0. -1.
         23    2    1    2    0    0 -0.23906076873E+02  0.22668779247E+02  0.54284763796E+02  0.14020005674E+03  0.12499538498E+03 0.  0.
          5    1    3    3  502    0 -0.23900522193E+02  0.72032326734E+02  0.48704869358E+02  0.90300306506E+02  0.47000000000E+01 0.  1.
         -5    1    3    3    0  502 -0.55546799478E-02 -0.49363547487E+02  0.55798944376E+01  0.49899750233E+02  0.47000000000E+01 0.  1.
        -11    1    1    2    0    0 -0.40734657292E+01 -0.17884245880E+02  0.75826428338E+02  0.78013374548E+02  0.00000000000E+00 0.  1.
         11    1    1    2    0    0  0.27979542602E+02 -0.47845333662E+01 -0.15193107364E+02  0.32195917057E+02  0.00000000000E+00 0. -1.
<mgrwt>
<rscale>  0 0.11873862E+03</rscale>
<asrwt>0</asrwt>
<pdfrwt beam="2">  1        2 0.10422405E-01 0.12926415E+03</pdfrwt>
<pdfrwt beam="1">  1       -2 0.28102110E-01 0.12926415E+03</pdfrwt>
<totfact> 0.66065629E+03</totfact>
</mgrwt>
</event>
<event>
 7    1  0.7800420E-006  0.2140702E+03  0.7546771E-02  0.1141812E+00
          1   -1    0    0  501    0  0.00000000000E+00  0.00000000000E+00  0.77088683802E+02  0.77088683802E+02  0.00000000000E+00 0. -1.
         -1   -1    0    0    0  501 -0.00000000000E+00 -0.00000000000E+00 -0.58010576060E+03  0.58010576060E+03  0.00000000000E+00 0.  1.
         23    2    1    2    0    0  0.89279575646E+02 -0.14909846776E+03 -0.18434056614E+03  0.28250217813E+03  0.12499936241E+03 0.  0.
          5    1    3    3  502    0 -0.26666399687E+02 -0.64665547184E+02 -0.69295676149E+02  0.98573376719E+02  0.47000000000E+01 0.  1.
         -5    1    3    3    0  502  0.11594597533E+03 -0.84432920580E+02 -0.11504488999E+03  0.18392880141E+03  0.47000000000E+01 0.  1.
        -11    1    1    2    0    0 -0.85206673497E+02  0.12463346780E+03 -0.31540336340E+03  0.34967550693E+03  0.00000000000E+00 0.  1.
         11    1    1    2    0    0 -0.40729021485E+01  0.24464999968E+02 -0.32731472614E+01  0.25016759350E+02  0.00000000000E+00 0. -1.
<mgrwt>
<rscale>  0 0.20968937E+03</rscale>
<asrwt>0</asrwt>
<pdfrwt beam="1">  1        1 0.11859797E-01 0.21407017E+03</pdfrwt>
<pdfrwt beam="2">  1       -1 0.89247042E-01 0.21407017E+03</pdfrwt>
<totfact> 0.65882581E+02</totfact>
</mgrwt>
</event>
<event>
 7    1  0.7800420E-006  0.1272426E+03  0.7546771E-02  0.1250055E+00
         -1   -1    0    0    0  501 -0.00000000000E+00  0.00000000000E+00  0.93887125932E+02  0.93887125932E+02  0.00000000000E+00 0.  1.
          1   -1    0    0  501    0  0.00000000000E+00 -0.00000000000E+00 -0.14701521867E+03  0.14701521867E+03  0.00000000000E+00 0. -1.
         23    2    1    2    0    0 -0.48834649945E+00 -0.23796172242E+02 -0.78832375946E+02  0.14968376574E+03  0.12499675969E+03 0.  0.
          5    1    3    3  502    0  0.60155412867E+02 -0.26565735728E+02 -0.34857871128E+02  0.74575955854E+02  0.47000000000E+01 0. -1.
         -5    1    3    3    0  502 -0.60643759366E+02  0.27695634862E+01 -0.43974504818E+02  0.75107809887E+02  0.47000000000E+01 0. -1.
        -11    1    1    2    0    0 -0.33634143505E+02  0.37835684086E+02  0.14962096849E+02  0.52788814551E+02  0.00000000000E+00 0. -1.
         11    1    1    2    0    0  0.34122490004E+02 -0.14039511845E+02  0.10742186361E+02  0.38429764308E+02  0.00000000000E+00 0.  1.
<mgrwt>
<rscale>  0 0.11587878E+03</rscale>
<asrwt>0</asrwt>
<pdfrwt beam="2">  1        1 0.22617726E-01 0.12724263E+03</pdfrwt>
<pdfrwt beam="1">  1       -1 0.14444173E-01 0.12724263E+03</pdfrwt>
<totfact> 0.70137077E+03</totfact>
</mgrwt>
</event>
<event>
 7    1  0.7800420E-006  0.1404571E+03  0.7546771E-02  0.1218280E+00
         -2   -1    0    0    0  501 -0.00000000000E+00  0.00000000000E+00  0.21846843806E+03  0.21846843806E+03  0.00000000000E+00 0.  1.
          2   -1    0    0  501    0  0.00000000000E+00 -0.00000000000E+00 -0.10007450284E+03  0.10007450284E+03  0.00000000000E+00 0. -1.
         23    2    1    2    0    0  0.33317672186E+02  0.54709405034E+02 -0.82517022053E+01  0.14069923389E+03  0.12499999020E+03 0.  0.
          5    1    3    3  502    0  0.69192840235E+01  0.77407878428E+02  0.34673867623E+02  0.85230412588E+02  0.47000000000E+01 0.  1.
         -5    1    3    3    0  502  0.26398388162E+02 -0.22698473394E+02 -0.42925569828E+02  0.55468821306E+02  0.47000000000E+01 0.  1.
        -11    1    1    2    0    0 -0.37773956179E+02 -0.21635573464E+02  0.13631617901E+03  0.14309811482E+03  0.00000000000E+00 0.  1.
         11    1    1    2    0    0  0.44562839934E+01 -0.33073831570E+02 -0.96705415867E+01  0.34745592185E+02  0.00000000000E+00 0. -1.
<mgrwt>
<rscale>  0 0.13638320E+03</rscale>
<asrwt>0</asrwt>
<pdfrwt beam="2">  1        2 0.15396077E-01 0.14045705E+03</pdfrwt>
<pdfrwt beam="1">  1       -2 0.33610529E-01 0.14045705E+03</pdfrwt>
<totfact> 0.30176003E+03</totfact>
</mgrwt>
</event>
<event>
 7    1  0.7800420E-006  0.1963679E+03  0.7546771E-02  0.1157212E+00
          2   -1    0    0  501    0  0.00000000000E+00  0.00000000000E+00  0.19212920277E+04  0.19212920277E+04  0.00000000000E+00 0. -1.
         -2   -1    0    0    0  501 -0.00000000000E+00 -0.00000000000E+00 -0.18966428333E+02  0.18966428333E+02  0.00000000000E+00 0.  1.
         23    2    1    2    0    0 -0.35402983952E+02  0.14724595475E+03  0.11977039312E+04  0.12136948023E+04  0.12500249572E+03 0.  0.
          5    1    3    3  502    0  0.33476444561E+02  0.11231618329E+03  0.79759859220E+03  0.80617690469E+03  0.47000000000E+01 0. -1.
         -5    1    3    3    0  502 -0.68879428514E+02  0.34929771455E+02  0.40010533901E+03  0.40751789766E+03  0.47000000000E+01 0. -1.
        -11    1    1    2    0    0 -0.18650802846E+02 -0.93102634638E+02  0.29650260650E+03  0.31133542793E+03  0.00000000000E+00 0. -1.
         11    1    1    2    0    0  0.54053786798E+02 -0.54143320108E+02  0.40811906160E+03  0.41522822571E+03  0.00000000000E+00 0.  1.
<mgrwt>
<rscale>  0 0.19139228E+03</rscale>
<asrwt>0</asrwt>
<pdfrwt beam="1">  1        2 0.29558324E+00 0.19636794E+03</pdfrwt>
<pdfrwt beam="2">  1       -2 0.29179136E-02 0.19636794E+03</pdfrwt>
<totfact> 0.36055776E+03</totfact>
</mgrwt>
</event>
<event>
 7    1  0.7800420E-006  0.1255902E+03  0.7546771E-02  0.1249689E+00
         -2   -1    0    0    0  501 -0.00000000000E+00  0.00000000000E+00  0.15271959280E+02  0.15271959280E+02  0.00000000000E+00 0.  1.
          2   -1    0    0  501    0  0.00000000000E+00 -0.00000000000E+00 -0.86347351946E+03  0.86347351946E+03  0.00000000000E+00 0. -1.
         23    2    1    2    0    0  0.12010153601E+02  0.21492126288E+01 -0.62411115337E+03  0.63662205603E+03  0.12499619015E+03 0.  0.
          5    1    3    3  502    0  0.33102671999E+02  0.44495605007E+02 -0.50965331505E+03  0.51268336944E+03  0.47000000000E+01 0. -1.
         -5    1    3    3    0  502 -0.21092518398E+02 -0.42346392378E+02 -0.11445783832E+03  0.12393868659E+03  0.47000000000E+01 0. -1.
        -11    1    1    2    0    0 -0.23063130896E+02 -0.32246420008E+02 -0.19447939296E+03  0.19847915230E+03  0.00000000000E+00 0. -1.
         11    1    1    2    0    0  0.11052977294E+02  0.30097207379E+02 -0.29611013848E+02  0.43644270417E+02  0.00000000000E+00 0.  1.
<mgrwt>
<rscale>  0 0.11609102E+03</rscale>
<asrwt>0</asrwt>
<pdfrwt beam="2">  1        2 0.13284213E+00 0.12559025E+03</pdfrwt>
<pdfrwt beam="1">  1       -2 0.23495313E-02 0.12559025E+03</pdfrwt>
<totfact> 0.18506418E+04</totfact>
</mgrwt>
</event>
<event>
 7    1  0.7800420E-006  0.1308692E+03  0.7546771E-02  0.1241072E+00
         -1   -1    0    0    0  501 -0.00000000000E+00  0.00000000000E+00  0.18374115350E+03  0.18374115350E+03  0.00000000000E+00 0.  1.
          1   -1    0    0  501    0  0.00000000000E+00 -0.00000000000E+00 -0.77476703730E+02  0.77476703730E+02  0.00000000000E+00 0. -1.
         23    2    1    2    0    0  0.36610247507E+02  0.12605881588E+02  0.21024482843E+02  0.13254724043E+03  0.12501009397E+03 0.  0.
          5    1    3    3  502    0  0.82397316191E+02  0.17924635349E+02  0.15787815136E+02  0.85918306400E+02  0.47000000000E+01 0.  1.
         -5    1    3    3    0  502 -0.45787068684E+02 -0.53187537612E+01  0.52366677068E+01  0.46628934032E+02  0.47000000000E+01 0.  1.
        -11    1    1    2    0    0 -0.38671877315E+02  0.24309520898E+01  0.10015618437E+03  0.10739033891E+03  0.00000000000E+00 0.  1.
         11    1    1    2    0    0  0.20616298085E+01 -0.15036833678E+02 -0.14916217439E+02  0.21280277893E+02  0.00000000000E+00 0. -1.
<mgrwt>
<rscale>  0 0.12123600E+03</rscale>
<asrwt>0</asrwt>
<pdfrwt beam="2">  1        1 0.11919493E-01 0.13086918E+03</pdfrwt>
<pdfrwt beam="1">  1       -1 0.28267870E-01 0.13086918E+03</pdfrwt>
<totfact> 0.54399655E+03</totfact>
</mgrwt>
</event>
<event>
 7    1  0.7800420E-006  0.1323447E+03  0.7546771E-02  0.1237517E+00
          2   -1    0    0  501    0  0.00000000000E+00  0.00000000000E+00  0.18504744817E+03  0.18504744817E+03  0.00000000000E+00 0. -1.
         -2   -1    0    0    0  501 -0.00000000000E+00 -0.00000000000E+00 -0.73178509896E+02  0.73178509896E+02  0.00000000000E+00 0.  1.
         23    2    1    2    0    0 -0.20986329304E+02  0.38093397181E+02  0.69059271939E+02  0.14927932143E+03  0.12499439923E+03 0.  0.
          5    1    3    3  502    0 -0.62786449798E+02  0.40755704105E+02  0.84787896515E+01  0.75479438056E+02  0.47000000000E+01 0. -1.
         -5    1    3    3    0  502  0.41800120494E+02 -0.26623069245E+01  0.60580482287E+02  0.73799883372E+02  0.47000000000E+01 0. -1.
        -11    1    1    2    0    0 -0.98176322392E+00 -0.60694836506E+02  0.67859727134E+01  0.61080900969E+02  0.00000000000E+00 0.  1.
         11    1    1    2    0    0  0.21968092528E+02  0.22601439325E+02  0.36023693620E+02  0.47865735667E+02  0.00000000000E+00 0. -1.
<mgrwt>
<rscale>  0 0.12344654E+03</rscale>
<asrwt>0</asrwt>
<pdfrwt beam="1">  1        2 0.28468838E-01 0.13234475E+03</pdfrwt>
<pdfrwt beam="2">  1       -2 0.11258232E-01 0.13234475E+03</pdfrwt>
<totfact> 0.95968372E+03</totfact>
</mgrwt>
</event>
<event>
 7    1  0.7800420E-006  0.1267423E+03  0.7546771E-02  0.1246862E+00
          1   -1    0    0  501    0  0.00000000000E+00  0.00000000000E+00  0.21424861064E+03  0.21424861064E+03  0.00000000000E+00 0. -1.
         -1   -1    0    0    0  501 -0.00000000000E+00 -0.00000000000E+00 -0.95507899889E+02  0.95507899889E+02  0.00000000000E+00 0.  1.
         23    2    1    2    0    0 -0.14139494254E+02  0.15481328891E+02  0.16218183391E+03  0.20583140435E+03  0.12499609164E+03 0.  0.
          5    1    3    3  502    0 -0.12913946477E+02  0.47466326896E+02  0.16605213959E+03  0.17324902674E+03  0.47000000000E+01 0. -1.
         -5    1    3    3    0  502 -0.12255477770E+01 -0.31984998005E+02 -0.38703056832E+01  0.32582377611E+02  0.47000000000E+01 0. -1.
        -11    1    1    2    0    0  0.26663890374E+02  0.27200885716E+02 -0.45569774750E+02  0.59392386754E+02  0.00000000000E+00 0.  1.
         11    1    1    2    0    0 -0.12524396120E+02 -0.42682214607E+02  0.21286515914E+01  0.44532719426E+02  0.00000000000E+00 0. -1.
<mgrwt>
<rscale>  0 0.11774598E+03</rscale>
<asrwt>0</asrwt>
<pdfrwt beam="1">  1        1 0.32961324E-01 0.12674234E+03</pdfrwt>
<pdfrwt beam="2">  1       -1 0.14693523E-01 0.12674234E+03</pdfrwt>
<totfact> 0.42680900E+03</totfact>
</mgrwt>
</event>
<event>
 7    1  0.7800420E-006  0.1308614E+03  0.7546771E-02  0.1239743E+00
          2   -1    0    0  501    0  0.00000000000E+00  0.00000000000E+00  0.47524011297E+03  0.47524011297E+03  0.00000000000E+00 0.  1.
         -2   -1    0    0    0  501 -0.00000000000E+00 -0.00000000000E+00 -0.28189251646E+02  0.28189251646E+02  0.00000000000E+00 0. -1.
         23    2    1    2    0    0 -0.36106617898E+02  0.13944503803E+02  0.28320300877E+03  0.31197541721E+03  0.12500631876E+03 0.  0.
          5    1    3    3  502    0  0.28376881521E+02  0.47779173119E+02  0.95567346288E+02  0.11064946663E+03  0.47000000000E+01 0. -1.
         -5    1    3    3    0  502 -0.64483499418E+02 -0.33834669316E+02  0.18763566248E+03  0.20132595058E+03  0.47000000000E+01 0. -1.
        -11    1    1    2    0    0  0.54540356785E+02  0.21794400289E+02  0.10126768243E+03  0.11706745879E+03  0.00000000000E+00 0.  1.
         11    1    1    2    0    0 -0.18433738888E+02 -0.35738904092E+02  0.62580170120E+02  0.74386488608E+02  0.00000000000E+00 0. -1.
<mgrwt>
<rscale>  0 0.12205598E+03</rscale>
<asrwt>0</asrwt>
<pdfrwt beam="1">  1        2 0.73113858E-01 0.13086144E+03</pdfrwt>
<pdfrwt beam="2">  1       -2 0.43368083E-02 0.13086144E+03</pdfrwt>
<totfact> 0.15098355E+04</totfact>
</mgrwt>
</event>
<event>
 7    1  0.7800420E-006  0.2013044E+03  0.7546771E-02  0.1153097E+00
         -2   -1    0    0    0  501 -0.00000000000E+00  0.00000000000E+00  0.11849290787E+03  0.11849290787E+03  0.00000000000E+00 0.  1.
          2   -1    0    0  501    0  0.00000000000E+00 -0.00000000000E+00 -0.35524621324E+03  0.35524621324E+03  0.00000000000E+00 0. -1.
         23    2    1    2    0    0  0.72578939298E+02  0.14011107809E+03 -0.20947835486E+03  0.29052479324E+03  0.12499863079E+03 0.  0.
          5    1    3    3  502    0  0.43943271539E+02  0.15633633967E+03 -0.14402391102E+03  0.21711066109E+03  0.47000000000E+01 0. -1.
         -5    1    3    3    0  502  0.28635667759E+02 -0.16225261575E+02 -0.65454443841E+02  0.73414132153E+02  0.47000000000E+01 0. -1.
        -11    1    1    2    0    0 -0.19531852060E+02 -0.63031701522E+02 -0.54696155945E+02  0.85709731751E+02  0.00000000000E+00 0. -1.
         11    1    1    2    0    0 -0.53047087238E+02 -0.77079376569E+02  0.27421205435E+02  0.97504596119E+02  0.00000000000E+00 0.  1.
<mgrwt>
<rscale>  0 0.19607094E+03</rscale>
<asrwt>0</asrwt>
<pdfrwt beam="2">  1        2 0.54653263E-01 0.20130443E+03</pdfrwt>
<pdfrwt beam="1">  1       -2 0.18229678E-01 0.20130443E+03</pdfrwt>
<totfact> 0.22162879E+03</totfact>
</mgrwt>
</event>
<event>
 7    1  0.9839714E-006  0.2046048E+03  0.7546771E-02  0.1150324E+00
         -1   -1    0    0    0  501 -0.00000000000E+00  0.00000000000E+00  0.79780139121E+02  0.79780139121E+02  0.00000000000E+00 0.  1.
          1   -1    0    0  501    0  0.00000000000E+00 -0.00000000000E+00 -0.48842333534E+03  0.48842333534E+03  0.00000000000E+00 0. -1.
         23    2    1    2    0    0  0.46051934961E+02  0.15529627147E+03 -0.26384545588E+03  0.33388255063E+03  0.12500168152E+03 0.  0.
          5    1    3    3  502    0 -0.10657730994E+02  0.12872608101E+03 -0.22658895414E+03  0.26086133347E+03  0.47000000000E+01 0. -1.
         -5    1    3    3    0  502  0.56709665955E+02  0.26570190458E+02 -0.37256501739E+02  0.73021217160E+02  0.47000000000E+01 0. -1.
        -11    1    1    2    0    0 -0.55507228418E+02 -0.41072855037E+02 -0.63414842993E+02  0.93752195384E+02  0.00000000000E+00 0.  1.
         11    1    1    2    0    0  0.94552934571E+01 -0.11422341643E+03 -0.81382897348E+02  0.14056872845E+03  0.00000000000E+00 0. -1.
<mgrwt>
<rscale>  0 0.19930846E+03</rscale>
<asrwt>0</asrwt>
<pdfrwt beam="2">  1        1 0.75142052E-01 0.20460482E+03</pdfrwt>
<pdfrwt beam="1">  1       -1 0.12273868E-01 0.20460482E+03</pdfrwt>
<totfact> 0.20439774E+03</totfact>
</mgrwt>
</event>
<event>
 7    1  0.7800420E-006  0.1971503E+03  0.7546771E-02  0.1156699E+00
          2   -1    0    0  501    0  0.00000000000E+00  0.00000000000E+00  0.76277092763E+03  0.76277092763E+03  0.00000000000E+00 0. -1.
         -2   -1    0    0    0  501 -0.00000000000E+00 -0.00000000000E+00 -0.45948902011E+02  0.45948902011E+02  0.00000000000E+00 0.  1.
         23    2    1    2    0    0  0.44408909059E+02  0.14584898619E+03  0.37065816322E+03  0.41982821930E+03  0.12499672709E+03 0.  0.
          5    1    3    3  502    0 -0.37578002600E+02  0.61548313476E+02  0.19887244769E+03  0.21159546692E+03  0.47000000000E+01 0.  1.
         -5    1    3    3    0  502  0.81986911659E+02  0.84300672716E+02  0.17178571553E+03  0.20823275238E+03  0.47000000000E+01 0.  1.
        -11    1    1    2    0    0 -0.14127671576E+02 -0.35549235894E+02  0.19827491029E+03  0.20193137281E+03  0.00000000000E+00 0. -1.
         11    1    1    2    0    0 -0.30281237483E+02 -0.11029975030E+03  0.14788895211E+03  0.18696023753E+03  0.00000000000E+00 0.  1.
<mgrwt>
<rscale>  0 0.19196715E+03</rscale>
<asrwt>0</asrwt>
<pdfrwt beam="1">  1        2 0.11734936E+00 0.19715035E+03</pdfrwt>
<pdfrwt beam="2">  1       -2 0.70690624E-02 0.19715035E+03</pdfrwt>
<totfact> 0.42704579E+03</totfact>
</mgrwt>
</event>
<event>
 7    1  0.7800420E-006  0.1431655E+03  0.7546771E-02  0.1219884E+00
         -1   -1    0    0    0  501 -0.00000000000E+00  0.00000000000E+00  0.23622207828E+03  0.23622207828E+03  0.00000000000E+00 0.  1.
          1   -1    0    0  501    0  0.00000000000E+00 -0.00000000000E+00 -0.70373330150E+02  0.70373330150E+02  0.00000000000E+00 0. -1.
         23    2    1    2    0    0  0.41802833046E+02 -0.55887260381E+02  0.81018125676E+02  0.16450013248E+03  0.12500197668E+03 0.  0.
          5    1    3    3  502    0  0.15250078810E+02 -0.53569456670E+02 -0.20423415447E+02  0.59510146111E+02  0.47000000000E+01 0. -1.
         -5    1    3    3    0  502  0.26552754236E+02 -0.23178037106E+01  0.10144154112E+03  0.10498998637E+03  0.47000000000E+01 0. -1.
        -11    1    1    2    0    0 -0.26524267355E+02 -0.15164778227E+02  0.21618130683E+00  0.30554115790E+02  0.00000000000E+00 0. -1.
         11    1    1    2    0    0 -0.15278565691E+02  0.71052038608E+02  0.84614441146E+02  0.11154116016E+03  0.00000000000E+00 0.  1.
<mgrwt>
<rscale>  0 0.13523842E+03</rscale>
<asrwt>0</asrwt>
<pdfrwt beam="2">  1        1 0.10826666E-01 0.14316549E+03</pdfrwt>
<pdfrwt beam="1">  1       -1 0.36341858E-01 0.14316549E+03</pdfrwt>
<totfact> 0.40552108E+03</totfact>
</mgrwt>
</event>
<event>
 7    1  0.7800420E-006  0.1264060E+03  0.7546771E-02  0.1254487E+00
         -1   -1    0    0    0  501 -0.00000000000E+00  0.00000000000E+00  0.22399513726E+03  0.22399513726E+03  0.00000000000E+00 0.  1.
          1   -1    0    0  501    0  0.00000000000E+00 -0.00000000000E+00 -0.52888489991E+02  0.52888489991E+02  0.00000000000E+00 0. -1.
         23    2    1    2    0    0  0.13467455801E+02  0.13053113703E+02  0.62655758691E+02  0.14108233915E+03  0.12500690453E+03 0.  0.
          5    1    3    3  502    0 -0.43124784534E+01 -0.30936807797E+02  0.83328168790E+02  0.89114293247E+02  0.47000000000E+01 0.  1.
         -5    1    3    3    0  502  0.17779934255E+02  0.43989921500E+02 -0.20672410099E+02  0.51968045903E+02  0.47000000000E+01 0.  1.
        -11    1    1    2    0    0 -0.22321827298E+02 -0.32301866499E+02  0.18528246993E+02  0.43416246843E+02  0.00000000000E+00 0. -1.
         11    1    1    2    0    0  0.88543714973E+01  0.19248752796E+02  0.89922641584E+02  0.92385041258E+02  0.00000000000E+00 0.  1.
<mgrwt>
<rscale>  0 0.11335119E+03</rscale>
<asrwt>0</asrwt>
<pdfrwt beam="2">  1        1 0.81366909E-02 0.12640602E+03</pdfrwt>
<pdfrwt beam="1">  1       -1 0.34460790E-01 0.12640602E+03</pdfrwt>
<totfact> 0.64420520E+03</totfact>
</mgrwt>
</event>
<event>
 7    1  0.7800420E-006  0.1286324E+03  0.7546771E-02  0.1243583E+00
         -3   -1    0    0    0  501 -0.00000000000E+00  0.00000000000E+00  0.33870975715E+02  0.33870975715E+02  0.00000000000E+00 0.  1.
          3   -1    0    0  501    0  0.00000000000E+00 -0.00000000000E+00 -0.42469728948E+03  0.42469728948E+03  0.00000000000E+00 0. -1.
         23    2    1    2    0    0  0.10366018038E+01 -0.30319321325E+02 -0.29848925345E+03  0.32502633736E+03  0.12500379898E+03 0.  0.
          5    1    3    3  502    0 -0.34140036558E+02 -0.47124227235E+02 -0.27069263193E+03  0.27691664065E+03  0.47000000000E+01 0. -1.
         -5    1    3    3    0  502  0.35176638361E+02  0.16804905909E+02 -0.27796621523E+02  0.48109696706E+02  0.47000000000E+01 0. -1.
        -11    1    1    2    0    0 -0.55784006617E+01 -0.11108079090E+02  0.14361128008E+02  0.18993419193E+02  0.00000000000E+00 0.  1.
         11    1    1    2    0    0  0.45417988580E+01  0.41427400415E+02 -0.10669818832E+03  0.11454850864E+03  0.00000000000E+00 0. -1.
<mgrwt>
<rscale>  0 0.11970595E+03</rscale>
<asrwt>0</asrwt>
<pdfrwt beam="2">  1        3 0.65338047E-01 0.12863237E+03</pdfrwt>
<pdfrwt beam="1">  1       -3 0.52109192E-02 0.12863237E+03</pdfrwt>
<totfact> 0.11238902E+03</totfact>
</mgrwt>
</event>
<event>
 7    1  0.7800420E-006  0.1361442E+03  0.7546771E-02  0.1229610E+00
          3   -1    0    0  501    0  0.00000000000E+00  0.00000000000E+00  0.11918631703E+03  0.11918631703E+03  0.00000000000E+00 0. -1.
         -3   -1    0    0    0  501 -0.00000000000E+00 -0.00000000000E+00 -0.16236950044E+03  0.16236950044E+03  0.00000000000E+00 0.  1.
         23    2    1    2    0    0 -0.56248811425E+02  0.23969394400E+02  0.43451798667E+02  0.14291012817E+03  0.12164203743E+03 0.  0.
          5    1    3    3  502    0 -0.57576536701E+01  0.10224491040E+02  0.78657092475E+02  0.79666297701E+02  0.47000000000E+01 0. -1.
         -5    1    3    3    0  502 -0.50491157755E+02  0.13744903360E+02 -0.35205293808E+02  0.63243830465E+02  0.47000000000E+01 0.  1.
        -11    1    1    2    0    0  0.32597335008E+02  0.29138254919E+02 -0.14638597548E+02  0.46107620710E+02  0.00000000000E+00 0. -1.
         11    1    1    2    0    0  0.23651476417E+02 -0.53107649319E+02 -0.71996384537E+02  0.92538068595E+02  0.00000000000E+00 0.  1.
<mgrwt>
<rscale>  0 0.12855870E+03</rscale>
<asrwt>0</asrwt>
<pdfrwt beam="1">  1        3 0.18336357E-01 0.13614421E+03</pdfrwt>
<pdfrwt beam="2">  1       -3 0.24979923E-01 0.13614421E+03</pdfrwt>
<totfact> 0.90890721E+02</totfact>
</mgrwt>
</event>
<event>
 7    1  0.7800420E-006  0.1269130E+03  0.7546771E-02  0.1247251E+00
          1   -1    0    0  501    0  0.00000000000E+00  0.00000000000E+00  0.24529904293E+02  0.24529904293E+02  0.00000000000E+00 0. -1.
         -1   -1    0    0    0  501 -0.00000000000E+00 -0.00000000000E+00 -0.49712310299E+03  0.49712310299E+03  0.00000000000E+00 0.  1.
         23    2    1    2    0    0 -0.62739485683E+01 -0.21084680369E+02 -0.25248291905E+03  0.28258545477E+03  0.12499195436E+03 0.  0.
          5    1    3    3  502    0 -0.53074238808E+02 -0.25346603707E+02 -0.21301821546E+03  0.22103885465E+03  0.47000000000E+01 0.  1.
         -5    1    3    3    0  502  0.46800290239E+02  0.42619233371E+01 -0.39464703590E+02  0.61546600121E+02  0.47000000000E+01 0.  1.
        -11    1    1    2    0    0 -0.11420962888E+02 -0.28463987992E+02 -0.13931855435E+03  0.14265446573E+03  0.00000000000E+00 0.  1.
         11    1    1    2    0    0  0.17694911456E+02  0.49548668362E+02 -0.80791725293E+02  0.96413086787E+02  0.00000000000E+00 0. -1.
<mgrwt>
<rscale>  0 0.11751660E+03</rscale>
<asrwt>0</asrwt>
<pdfrwt beam="1">  1        1 0.37738318E-02 0.12691302E+03</pdfrwt>
<pdfrwt beam="2">  1       -1 0.76480470E-01 0.12691302E+03</pdfrwt>
<totfact> 0.42112772E+03</totfact>
</mgrwt>
</event>
<event>
 7    1  0.7800420E-006  0.1584747E+03  0.7546771E-02  0.1197868E+00
          1   -1    0    0  501    0  0.00000000000E+00  0.00000000000E+00  0.12169871123E+04  0.12169871123E+04  0.00000000000E+00 0. -1.
         -1   -1    0    0    0  501 -0.00000000000E+00 -0.00000000000E+00 -0.23977385670E+02  0.23977385670E+02  0.00000000000E+00 0.  1.
         23    2    1    2    0    0 -0.31157801608E+02 -0.92286216340E+02  0.95030163420E+03  0.96342484009E+03  0.12500668865E+03 0.  0.
          5    1    3    3  502    0  0.96089165499E+01 -0.70138910156E+02  0.84838591998E+03  0.85134749499E+03  0.47000000000E+01 0. -1.
         -5    1    3    3    0  502 -0.40766718157E+02 -0.22147306184E+02  0.10191571422E+03  0.11207734510E+03  0.47000000000E+01 0. -1.
        -11    1    1    2    0    0 -0.23730322107E+02 -0.16779226266E+01  0.27345990649E+02  0.36245645479E+02  0.00000000000E+00 0.  1.
         11    1    1    2    0    0  0.54888123715E+02  0.93964138967E+02  0.21536210176E+03  0.24129401238E+03  0.00000000000E+00 0. -1.
<mgrwt>
<rscale>  0 0.15213980E+03</rscale>
<asrwt>0</asrwt>
<pdfrwt beam="1">  1        1 0.18722874E+00 0.15847469E+03</pdfrwt>
<pdfrwt beam="2">  1       -1 0.36888295E-02 0.15847469E+03</pdfrwt>
<totfact> 0.30644444E+03</totfact>
</mgrwt>
</event>
<event>
 7    1  0.7800420E-006  0.1328043E+03  0.7546771E-02  0.1235884E+00
         -2   -1    0    0    0  501 -0.00000000000E+00  0.00000000000E+00  0.17960026215E+02  0.17960026215E+02  0.00000000000E+00 0.  1.
          2   -1    0    0  501    0  0.00000000000E+00 -0.00000000000E+00 -0.79568896077E+03  0.79568896077E+03  0.00000000000E+00 0. -1.
         23    2    1    2    0    0  0.74728894375E+01  0.44230110049E+02 -0.36594736064E+03  0.38929995215E+03  0.12499934110E+03 0.  0.
          5    1    3    3  502    0 -0.55043760080E+02 -0.92407096531E+00 -0.14001251036E+03  0.15051997372E+03  0.47000000000E+01 0.  1.
         -5    1    3    3    0  502  0.62516649518E+02  0.45154181015E+02 -0.22593485028E+03  0.23877997843E+03  0.47000000000E+01 0.  1.
        -11    1    1    2    0    0  0.39184924494E+02 -0.22642144337E+02 -0.12375545647E+03  0.13177077830E+03  0.00000000000E+00 0.  1.
         11    1    1    2    0    0 -0.46657813931E+02 -0.21587965713E+02 -0.28802611746E+03  0.29257825654E+03  0.00000000000E+00 0. -1.
<mgrwt>
<rscale>  0 0.12447992E+03</rscale>
<asrwt>0</asrwt>
<pdfrwt beam="2">  1        2 0.12241366E+00 0.13280430E+03</pdfrwt>
<pdfrwt beam="1">  1       -2 0.27630815E-02 0.13280430E+03</pdfrwt>
<totfact> 0.16257544E+04</totfact>
</mgrwt>
</event>
<event>
 7    1  0.7800420E-006  0.1510857E+03  0.7546771E-02  0.1207597E+00
         -2   -1    0    0    0  501 -0.00000000000E+00  0.00000000000E+00  0.42021266171E+02  0.42021266171E+02  0.00000000000E+00 0. -1.
          2   -1    0    0  501    0  0.00000000000E+00 -0.00000000000E+00 -0.45650685218E+03  0.45650685218E+03  0.00000000000E+00 0.  1.
         23    2    1    2    0    0 -0.84764157380E+02  0.13885511407E+01 -0.22185228354E+03  0.26841260658E+03  0.12505999044E+03 0.  0.
          5    1    3    3  502    0  0.87504085892E+01 -0.30197405201E+02 -0.79199355041E+01  0.32760773949E+02  0.47000000000E+01 0. -1.
         -5    1    3    3    0  502 -0.93514565970E+02  0.31585956342E+02 -0.21393234803E+03  0.23565183263E+03  0.47000000000E+01 0. -1.
        -11    1    1    2    0    0 -0.44846468997E+01 -0.18483943483E+02 -0.94399827282E+02  0.96296913841E+02  0.00000000000E+00 0.  1.
         11    1    1    2    0    0  0.89248804280E+02  0.17095392342E+02 -0.98233475195E+02  0.13381859794E+03  0.00000000000E+00 0. -1.
<mgrwt>
<rscale>  0 0.14434641E+03</rscale>
<asrwt>0</asrwt>
<pdfrwt beam="2">  1        2 0.70231825E-01 0.15108571E+03</pdfrwt>
<pdfrwt beam="1">  1       -2 0.64648100E-02 0.15108571E+03</pdfrwt>
<totfact> 0.87303747E+03</totfact>
</mgrwt>
</event>
<event>
 7    1  0.7800420E-006  0.3226914E+03  0.7546771E-02  0.1075748E+00
          1   -1    0    0  501    0  0.00000000000E+00  0.00000000000E+00  0.18894909645E+03  0.18894909645E+03  0.00000000000E+00 0. -1.
         -1   -1    0    0    0  501 -0.00000000000E+00 -0.00000000000E+00 -0.53875252605E+03  0.53875252605E+03  0.00000000000E+00 0.  1.
         23    2    1    2    0    0 -0.52310089742E+02 -0.29286341693E+03 -0.13638661884E+03  0.35032991199E+03  0.12499764388E+03 0.  0.
          5    1    3    3  502    0  0.41115846804E+02 -0.90453970124E+02 -0.48354520505E+02  0.11060146121E+03  0.47000000000E+01 0.  1.
         -5    1    3    3    0  502 -0.93425936546E+02 -0.20240944681E+03 -0.88032098330E+02  0.23972845078E+03  0.47000000000E+01 0.  1.
        -11    1    1    2    0    0  0.20806418645E+02  0.26516768485E+03 -0.16369104583E+03  0.31231645271E+03  0.00000000000E+00 0. -1.
         11    1    1    2    0    0  0.31503671098E+02  0.27695732076E+02 -0.49725764938E+02  0.65055257793E+02  0.00000000000E+00 0.  1.
<mgrwt>
<rscale>  0 0.31978648E+03</rscale>
<asrwt>0</asrwt>
<pdfrwt beam="1">  1        1 0.29069092E-01 0.32269140E+03</pdfrwt>
<pdfrwt beam="2">  1       -1 0.82885004E-01 0.32269140E+03</pdfrwt>
<totfact> 0.23933025E+02</totfact>
</mgrwt>
</event>
<event>
 7    1  0.7800420E-006  0.1932710E+03  0.7546771E-02  0.1160286E+00
          2   -1    0    0  501    0  0.00000000000E+00  0.00000000000E+00  0.33362403229E+03  0.33362403229E+03  0.00000000000E+00 0.  1.
         -2   -1    0    0    0  501 -0.00000000000E+00 -0.00000000000E+00 -0.10299964810E+03  0.10299964810E+03  0.00000000000E+00 0. -1.
         23    2    1    2    0    0 -0.43480701665E+01 -0.14734241687E+03  0.87782301971E+02  0.21227202860E+03  0.12499995226E+03 0.  0.
          5    1    3    3  502    0 -0.19033359899E+01 -0.15914532677E+03  0.41965169676E+02  0.16466336322E+03  0.47000000000E+01 0. -1.
         -5    1    3    3    0  502 -0.24447341766E+01  0.11802909907E+02  0.45817132296E+02  0.47608665380E+02  0.47000000000E+01 0. -1.
        -11    1    1    2    0    0 -0.39588014948E+02  0.38590440157E+02  0.53225692509E+02  0.76742474173E+02  0.00000000000E+00 0. -1.
         11    1    1    2    0    0  0.43936085115E+02  0.10875197671E+03  0.89616389700E+02  0.14760917762E+03  0.00000000000E+00 0.  1.
<mgrwt>
<rscale>  0 0.18799141E+03</rscale>
<asrwt>0</asrwt>
<pdfrwt beam="1">  1        2 0.51326774E-01 0.19327101E+03</pdfrwt>
<pdfrwt beam="2">  1       -2 0.15846100E-01 0.19327101E+03</pdfrwt>
<totfact> 0.29928660E+03</totfact>
</mgrwt>
</event>
<event>
 7    1  0.7800420E-006  0.1386381E+03  0.7546771E-02  0.1228010E+00
         -2   -1    0    0    0  501 -0.00000000000E+00  0.00000000000E+00  0.86347622187E+02  0.86347622187E+02  0.00000000000E+00 0.  1.
          2   -1    0    0  501    0  0.00000000000E+00 -0.00000000000E+00 -0.18352712494E+03  0.18352712494E+03  0.00000000000E+00 0. -1.
         23    2    1    2    0    0 -0.54259642227E+02  0.25511716764E+02 -0.23004272219E+02  0.14053367270E+03  0.12500224060E+03 0.  0.
          5    1    3    3  502    0 -0.32666508565E+02  0.50525892450E+02 -0.63801839200E+02  0.87822157085E+02  0.47000000000E+01 0.  1.
         -5    1    3    3    0  502 -0.21593133662E+02 -0.25014175686E+02  0.40797566981E+02  0.52711515613E+02  0.47000000000E+01 0.  1.
        -11    1    1    2    0    0  0.51970880099E+01 -0.20467542717E+02 -0.77093803237E+02  0.79933625755E+02  0.00000000000E+00 0. -1.
         11    1    1    2    0    0  0.49062554218E+02 -0.50441740463E+01  0.29185727019E+01  0.49407448677E+02  0.00000000000E+00 0.  1.
<mgrwt>
<rscale>  0 0.12962703E+03</rscale>
<asrwt>0</asrwt>
<pdfrwt beam="2">  1        2 0.28234942E-01 0.13863808E+03</pdfrwt>
<pdfrwt beam="1">  1       -2 0.13284250E-01 0.13863808E+03</pdfrwt>
<totfact> 0.74564965E+03</totfact>
</mgrwt>
</event>
<event>
 7    1  0.7800420E-006  0.1564094E+03  0.7546771E-02  0.1200984E+00
          3   -1    0    0  501    0  0.00000000000E+00  0.00000000000E+00  0.75639023102E+02  0.75639023102E+02  0.00000000000E+00 0. -1.
         -3   -1    0    0    0  501 -0.00000000000E+00 -0.00000000000E+00 -0.32122406678E+03  0.32122406678E+03  0.00000000000E+00 0.  1.
         23    2    1    2    0    0  0.32445794914E+02  0.88244631008E+02 -0.55229659619E+02  0.16587405571E+03  0.12499617013E+03 0.  0.
          5    1    3    3  502    0 -0.90910169414E+01 -0.55170645133E+00  0.32597436494E+02  0.34170657515E+02  0.47000000000E+01 0. -1.
         -5    1    3    3    0  502  0.41536811855E+02  0.88796337460E+02 -0.87827096112E+02  0.13170339820E+03  0.47000000000E+01 0. -1.
        -11    1    1    2    0    0 -0.68690572355E+01 -0.41632951412E+02 -0.16816191745E+03  0.17337507627E+03  0.00000000000E+00 0.  1.
         11    1    1    2    0    0 -0.25576737678E+02 -0.46611679597E+02 -0.22193466613E+02  0.57613957904E+02  0.00000000000E+00 0. -1.
<mgrwt>
<rscale>  0 0.14958479E+03</rscale>
<asrwt>0</asrwt>
<pdfrwt beam="1">  1        3 0.11636773E-01 0.15640936E+03</pdfrwt>
<pdfrwt beam="2">  1       -3 0.49419088E-01 0.15640936E+03</pdfrwt>
<totfact> 0.55347102E+02</totfact>
</mgrwt>
</event>
<event>
 7    1  0.7800420E-006  0.1971002E+03  0.7546771E-02  0.1156765E+00
         -2   -1    0    0    0  501 -0.00000000000E+00  0.00000000000E+00  0.44380994349E+02  0.44380994349E+02  0.00000000000E+00 0.  1.
          2   -1    0    0  501    0  0.00000000000E+00 -0.00000000000E+00 -0.89853030177E+03  0.89853030177E+03  0.00000000000E+00 0. -1.
         23    2    1    2    0    0 -0.32287733722E+02 -0.14893236286E+03 -0.61175644866E+03  0.64272422259E+03  0.12500050951E+03 0.  0.
          5    1    3    3  502    0  0.62928496834E+01  0.17836379877E+02 -0.12972482685E+03  0.13118062778E+03  0.47000000000E+01 0. -1.
         -5    1    3    3    0  502 -0.38580583405E+02 -0.16676874273E+03 -0.48203162181E+03  0.51154359481E+03  0.47000000000E+01 0. -1.
        -11    1    1    2    0    0  0.35440357514E+02  0.67089364963E+02 -0.49414397552E+02  0.90547139753E+02  0.00000000000E+00 0.  1.
         11    1    1    2    0    0 -0.31526237926E+01  0.81842997895E+02 -0.19297846121E+03  0.20963993377E+03  0.00000000000E+00 0. -1.
<mgrwt>
<rscale>  0 0.19189283E+03</rscale>
<asrwt>0</asrwt>
<pdfrwt beam="2">  1        2 0.13823543E+00 0.19710016E+03</pdfrwt>
<pdfrwt beam="1">  1       -2 0.68278455E-02 0.19710016E+03</pdfrwt>
<totfact> 0.36524354E+03</totfact>
</mgrwt>
</event>
<event>
 7    1  0.7800420E-006  0.1174662E+03  0.7546771E-02  0.1292897E+00
         -2   -1    0    0    0  501 -0.00000000000E+00  0.00000000000E+00  0.17013295737E+02  0.17013295737E+02  0.00000000000E+00 0.  1.
          2   -1    0    0  501    0  0.00000000000E+00 -0.00000000000E+00 -0.42257359068E+03  0.42257359068E+03  0.00000000000E+00 0. -1.
         23    2    1    2    0    0  0.29468608575E+02  0.41699667187E+01 -0.32369646279E+03  0.34435114732E+03  0.11363329232E+03 0.  0.
          5    1    3    3  502    0  0.47277419413E+02  0.39869183540E+02 -0.27145762793E+03  0.27845294027E+03  0.47000000000E+01 0. -1.
         -5    1    3    3    0  502 -0.17808810837E+02 -0.35699216822E+02 -0.52238834856E+02  0.65898207048E+02  0.47000000000E+01 0.  1.
        -11    1    1    2    0    0 -0.19473318051E+02  0.12070998600E+02 -0.67726287463E+02  0.71496637240E+02  0.00000000000E+00 0.  1.
         11    1    1    2    0    0 -0.99952905245E+01 -0.16240965319E+02 -0.14137544691E+02  0.23739101859E+02  0.00000000000E+00 0. -1.
<mgrwt>
<rscale>  0 0.94240178E+02</rscale>
<asrwt>0</asrwt>
<pdfrwt beam="2">  1        2 0.65011323E-01 0.11746622E+03</pdfrwt>
<pdfrwt beam="1">  1       -2 0.26174301E-02 0.11746622E+03</pdfrwt>
<totfact> 0.35681403E+04</totfact>
</mgrwt>
</event>
<event>
 7    1  0.7800420E-006  0.1317326E+03  0.7546771E-02  0.1238765E+00
          2   -1    0    0  501    0  0.00000000000E+00  0.00000000000E+00  0.11993156404E+04  0.11993156404E+04  0.00000000000E+00 0. -1.
         -2   -1    0    0    0  501 -0.00000000000E+00 -0.00000000000E+00 -0.11400038348E+02  0.11400038348E+02  0.00000000000E+00 0.  1.
         23    2    1    2    0    0  0.26246174878E+02  0.32271957440E+02  0.77296765262E+03  0.78411253920E+03  0.12499256453E+03 0.  0.
          5    1    3    3  502    0  0.45726098238E+02  0.35183310526E+02  0.75446672454E+03  0.75668412818E+03  0.47000000000E+01 0.  1.
         -5    1    3    3    0  502 -0.19479923360E+02 -0.29113530861E+01  0.18500928079E+02  0.27428411013E+02  0.47000000000E+01 0.  1.
        -11    1    1    2    0    0 -0.44671293517E+02 -0.54298690139E+02  0.29705954415E+03  0.30526749743E+03  0.00000000000E+00 0. -1.
         11    1    1    2    0    0  0.18425118639E+02  0.22026732700E+02  0.11788840525E+03  0.12133564210E+03  0.00000000000E+00 0.  1.
<mgrwt>
<rscale>  0 0.12266480E+03</rscale>
<asrwt>0</asrwt>
<pdfrwt beam="1">  1        2 0.18451000E+00 0.13173262E+03</pdfrwt>
<pdfrwt beam="2">  1       -2 0.17538530E-02 0.13173262E+03</pdfrwt>
<totfact> 0.17971513E+04</totfact>
</mgrwt>
</event>
<event>
 7    1  0.7800420E-006  0.1431482E+03  0.7546771E-02  0.1218611E+00
         -2   -1    0    0    0  501 -0.00000000000E+00  0.00000000000E+00  0.25839512572E+02  0.25839512572E+02  0.00000000000E+00 0.  1.
          2   -1    0    0  501    0  0.00000000000E+00 -0.00000000000E+00 -0.73736643140E+03  0.73736643140E+03  0.00000000000E+00 0. -1.
         23    2    1    2    0    0  0.24395029243E+02  0.65350382426E+02 -0.51401575379E+03  0.53357623970E+03  0.12500247394E+03 0.  0.
          5    1    3    3  502    0  0.72059477698E+02  0.22122551281E+02 -0.33143760117E+03  0.33993374218E+03  0.47000000000E+01 0.  1.
         -5    1    3    3    0  502 -0.47664448454E+02  0.43227831145E+02 -0.18257815262E+03  0.19364249752E+03  0.47000000000E+01 0.  1.
        -11    1    1    2    0    0  0.26819363384E+02 -0.29554670438E+02 -0.27410603328E+02  0.48415885531E+02  0.00000000000E+00 0.  1.
         11    1    1    2    0    0 -0.51214392627E+02 -0.35795711988E+02 -0.17010056171E+03  0.18121381874E+03  0.00000000000E+00 0. -1.
<mgrwt>
<rscale>  0 0.13614613E+03</rscale>
<asrwt>0</asrwt>
<pdfrwt beam="2">  1        2 0.11344097E+00 0.14314820E+03</pdfrwt>
<pdfrwt beam="1">  1       -2 0.39753102E-02 0.14314820E+03</pdfrwt>
<totfact> 0.10485517E+04</totfact>
</mgrwt>
</event>
<event>
 7    1  0.7800420E-006  0.2005257E+03  0.7546771E-02  0.1153379E+00
         -2   -1    0    0    0  501 -0.00000000000E+00  0.00000000000E+00  0.15665471467E+03  0.15665471467E+03  0.00000000000E+00 0.  1.
          2   -1    0    0  501    0  0.00000000000E+00 -0.00000000000E+00 -0.24984919934E+03  0.24984919934E+03  0.00000000000E+00 0. -1.
         23    2    1    2    0    0 -0.77316006704E+02  0.13641485752E+03  0.30577104596E+01  0.20054905849E+03  0.12499518800E+03 0.  0.
          5    1    3    3  502    0 -0.31278573365E+02 -0.80869678680E+00  0.40090977321E+02  0.51072297822E+02  0.47000000000E+01 0.  1.
         -5    1    3    3    0  502 -0.46037433339E+02  0.13722355430E+03 -0.37033266861E+02  0.14947676066E+03  0.47000000000E+01 0.  1.
        -11    1    1    2    0    0  0.42972525634E+02 -0.91166362003E+02 -0.10823982609E+03  0.14789794952E+03  0.00000000000E+00 0. -1.
         11    1    1    2    0    0  0.34343481070E+02 -0.45248495514E+02  0.11987630969E+02  0.58056906003E+02  0.00000000000E+00 0.  1.
<mgrwt>
<rscale>  0 0.19574597E+03</rscale>
<asrwt>0</asrwt>
<pdfrwt beam="2">  1        2 0.38438338E-01 0.20052575E+03</pdfrwt>
<pdfrwt beam="1">  1       -2 0.24100725E-01 0.20052575E+03</pdfrwt>
<totfact> 0.20020018E+03</totfact>
</mgrwt>
</event>
<event>
 7    1  0.7800420E-006  0.1484375E+03  0.7546771E-02  0.1212318E+00
         -2   -1    0    0    0  501 -0.00000000000E+00  0.00000000000E+00  0.49715874975E+02  0.49715874975E+02  0.00000000000E+00 0.  1.
          2   -1    0    0  501    0  0.00000000000E+00 -0.00000000000E+00 -0.36642210600E+03  0.36642210600E+03  0.00000000000E+00 0. -1.
         23    2    1    2    0    0  0.49142407121E+02  0.63214581083E+02 -0.19668379895E+03  0.24641062478E+03  0.12499047882E+03 0.  0.
          5    1    3    3  502    0  0.54475185254E+02  0.97364615767E+02 -0.13179987077E+03  0.17274463855E+03  0.47000000000E+01 0. -1.
         -5    1    3    3    0  502 -0.53327781333E+01 -0.34150034685E+02 -0.64883928182E+02  0.73665986235E+02  0.47000000000E+01 0. -1.
        -11    1    1    2    0    0 -0.75187277026E+02 -0.52336675139E+02 -0.87784073422E+02  0.12687906737E+03  0.00000000000E+00 0.  1.
         11    1    1    2    0    0  0.26044869905E+02 -0.10877905944E+02 -0.32238358644E+02  0.42848288812E+02  0.00000000000E+00 0. -1.
<mgrwt>
<rscale>  0 0.14075390E+03</rscale>
<asrwt>0</asrwt>
<pdfrwt beam="2">  1        2 0.56372633E-01 0.14843746E+03</pdfrwt>
<pdfrwt beam="1">  1       -2 0.76485960E-02 0.14843746E+03</pdfrwt>
<totfact> 0.85333209E+03</totfact>
</mgrwt>
</event>
<event>
 7    1  0.7800420E-006  0.1257437E+03  0.7546771E-02  0.1250749E+00
          3   -1    0    0  501    0  0.00000000000E+00  0.00000000000E+00  0.56755693227E+03  0.56755693227E+03  0.00000000000E+00 0. -1.
         -3   -1    0    0    0  501 -0.00000000000E+00 -0.00000000000E+00 -0.27989929365E+02  0.27989929365E+02  0.00000000000E+00 0.  1.
         23    2    1    2    0    0  0.12122133576E+02  0.63933645324E+01  0.45643072408E+03  0.47343476595E+03  0.12499460184E+03 0.  0.
          5    1    3    3  502    0 -0.56462632311E+02  0.61249435124E+01  0.20977651121E+03  0.21737943425E+03  0.47000000000E+01 0.  1.
         -5    1    3    3    0  502  0.68584765886E+02  0.26842101997E+00  0.24665421287E+03  0.25605533169E+03  0.47000000000E+01 0.  1.
        -11    1    1    2    0    0 -0.14733568604E+02 -0.34133293863E+02  0.30324781788E+01  0.37300880923E+02  0.00000000000E+00 0.  1.
         11    1    1    2    0    0  0.26114350280E+01  0.27739929331E+02  0.80103800649E+02  0.84811214769E+02  0.00000000000E+00 0. -1.
<mgrwt>
<rscale>  0 0.11547793E+03</rscale>
<asrwt>0</asrwt>
<pdfrwt beam="1">  1        3 0.87316443E-01 0.12574367E+03</pdfrwt>
<pdfrwt beam="2">  1       -3 0.43061434E-02 0.12574367E+03</pdfrwt>
<totfact> 0.81245548E+02</totfact>
</mgrwt>
</event>
<event>
 6    1  0.7800420E-006  0.1868802E+03  0.7546771E-02  0.1174197E+00
          1   -1    0    0  501    0  0.00000000000E+00  0.00000000000E+00  0.34460420447E+03  0.34460420447E+03  0.00000000000E+00 0. -1.
         -1   -1    0    0    0  501 -0.00000000000E+00 -0.00000000000E+00 -0.96205820646E+02  0.96205820646E+02  0.00000000000E+00 0.  1.
          5    1    1    2  502    0  0.32729790205E+00 -0.51215590824E+02  0.46092089326E+02  0.69063120157E+02  0.47000000000E+01 0.  1.
         -5    1    1    2    0  502  0.99975907742E+02  0.87874143286E+02  0.19024137006E+03  0.23223030825E+03  0.47000000000E+01 0.  1.
        -11    1    1    2    0    0 -0.42386767324E+02 -0.57107856079E+02  0.27392873712E+02  0.76212300846E+02  0.00000000000E+00 0. -1.
         11    1    1    2    0    0 -0.57916438320E+02  0.20449303617E+02 -0.15327949272E+02  0.63304295865E+02  0.00000000000E+00 0.  1.
<mgrwt>
<rscale>  0 0.17354876E+03</rscale>
<asrwt>0</asrwt>
<pdfrwt beam="1">  1        1 0.53016031E-01 0.18688025E+03</pdfrwt>
<pdfrwt beam="2">  1       -1 0.14800896E-01 0.18688025E+03</pdfrwt>
<totfact> 0.23774687E+03</totfact>
</mgrwt>
</event>
<event>
 7    1  0.7800420E-006  0.1355667E+03  0.7546771E-02  0.1228502E+00
         -2   -1    0    0    0  501 -0.00000000000E+00  0.00000000000E+00  0.29698497797E+02  0.29698497797E+02  0.00000000000E+00 0.  1.
          2   -1    0    0  501    0  0.00000000000E+00 -0.00000000000E+00 -0.65922065300E+03  0.65922065300E+03  0.00000000000E+00 0. -1.
         23    2    1    2    0    0 -0.34018892249E+02  0.39950225372E+02 -0.49767638224E+03  0.51581015713E+03  0.12500012488E+03 0.  0.
          5    1    3    3  502    0 -0.28123050402E+02  0.56384069899E+02 -0.10379246929E+03  0.12151146441E+03  0.47000000000E+01 0. -1.
         -5    1    3    3    0  502 -0.58958418472E+01 -0.16433844526E+02 -0.39388391295E+03  0.39429869271E+03  0.47000000000E+01 0. -1.
        -11    1    1    2    0    0 -0.69481088062E+01 -0.39022233027E+02 -0.51717303476E+01  0.39971961187E+02  0.00000000000E+00 0.  1.
         11    1    1    2    0    0  0.40967001055E+02 -0.92799234583E+00 -0.12667404261E+03  0.13313703248E+03  0.00000000000E+00 0. -1.
<mgrwt>
<rscale>  0 0.12929736E+03</rscale>
<asrwt>0</asrwt>
<pdfrwt beam="2">  1        2 0.10141857E+00 0.13556672E+03</pdfrwt>
<pdfrwt beam="1">  1       -2 0.45689993E-02 0.13556672E+03</pdfrwt>
<totfact> 0.96993580E+03</totfact>
</mgrwt>
</event>
<event>
 7    1  0.7800420E-006  0.1891561E+03  0.7546771E-02  0.1164291E+00
          2   -1    0    0  501    0  0.00000000000E+00  0.00000000000E+00  0.10909880185E+04  0.10909880185E+04  0.00000000000E+00 0. -1.
         -2   -1    0    0    0  501 -0.00000000000E+00 -0.00000000000E+00 -0.33677610495E+02  0.33677610495E+02  0.00000000000E+00 0.  1.
         23    2    1    2    0    0 -0.12210976630E+03 -0.72436358596E+02  0.75900183390E+03  0.78221724783E+03  0.12498887101E+03 0.  0.
          5    1    3    3  502    0 -0.12241276410E+03 -0.83924998132E+02  0.46892993981E+03  0.49187972979E+03  0.47000000000E+01 0. -1.
         -5    1    3    3    0  502  0.30299779319E+00  0.11488639536E+02  0.29007189408E+03  0.29033751804E+03  0.47000000000E+01 0. -1.
        -11    1    1    2    0    0  0.17903461017E+02 -0.13440394383E+02  0.10900693377E+02  0.24899864129E+02  0.00000000000E+00 0.  1.
         11    1    1    2    0    0  0.10420630529E+03  0.85876752979E+02  0.28740788072E+03  0.31754851703E+03  0.00000000000E+00 0. -1.
<mgrwt>
<rscale>  0 0.18367742E+03</rscale>
<asrwt>0</asrwt>
<pdfrwt beam="1">  1        2 0.16784428E+00 0.18915612E+03</pdfrwt>
<pdfrwt beam="2">  1       -2 0.51811717E-02 0.18915612E+03</pdfrwt>
<totfact> 0.42470076E+03</totfact>
</mgrwt>
</event>
<event>
 7    1  0.7800420E-006  0.1535202E+03  0.7546771E-02  0.1203700E+00
         -2   -1    0    0    0  501 -0.00000000000E+00  0.00000000000E+00  0.72656910626E+03  0.72656910626E+03  0.00000000000E+00 0.  1.
          2   -1    0    0  501    0  0.00000000000E+00 -0.00000000000E+00 -0.29087773862E+02  0.29087773862E+02  0.00000000000E+00 0. -1.
         23    2    1    2    0    0  0.81709407735E+02  0.35581871680E+02  0.29502231817E+03  0.33257575789E+03  0.12500387840E+03 0.  0.
          5    1    3    3  502    0  0.17545193887E+02  0.65078814568E+02  0.72654155059E+02  0.99215937134E+02  0.47000000000E+01 0. -1.
         -5    1    3    3    0  502  0.64164213848E+02 -0.29496942888E+02  0.22236816311E+03  0.23335982076E+03  0.47000000000E+01 0. -1.
        -11    1    1    2    0    0 -0.10148070095E+03 -0.17239582856E+02  0.30176335379E+03  0.31883641193E+03  0.00000000000E+00 0. -1.
         11    1    1    2    0    0  0.19771293211E+02 -0.18342288824E+02  0.10069566044E+03  0.10424471030E+03  0.00000000000E+00 0.  1.
<mgrwt>
<rscale>  0 0.14740362E+03</rscale>
<asrwt>0</asrwt>
<pdfrwt beam="2">  1        2 0.44750427E-02 0.15352025E+03</pdfrwt>
<pdfrwt beam="1">  1       -2 0.11177985E+00 0.15352025E+03</pdfrwt>
<totfact> 0.11700013E+03</totfact>
</mgrwt>
</event>
<event>
 7    1  0.1027481E-005  0.4524736E+03  0.7546771E-02  0.1027575E+00
         -1   -1    0    0    0  501 -0.00000000000E+00  0.00000000000E+00  0.26157962883E+03  0.26157962883E+03  0.00000000000E+00 0.  1.
          1   -1    0    0  501    0  0.00000000000E+00 -0.00000000000E+00 -0.77166391958E+03  0.77166391958E+03  0.00000000000E+00 0. -1.
         23    2    1    2    0    0  0.60184816426E+02  0.43067815799E+03 -0.22762623865E+03  0.50650379747E+03  0.12500601759E+03 0.  0.
          5    1    3    3  502    0 -0.11086001160E+02  0.23521943789E+03 -0.70836666263E+02  0.24594919530E+03  0.47000000000E+01 0.  1.
         -5    1    3    3    0  502  0.71270817586E+02  0.19545872010E+03 -0.15678957238E+03  0.26055460217E+03  0.47000000000E+01 0.  1.
        -11    1    1    2    0    0 -0.47676189228E+02 -0.21623679045E+03 -0.19414304103E+03  0.29448750219E+03  0.00000000000E+00 0. -1.
         11    1    1    2    0    0 -0.12508627198E+02 -0.21444136754E+03 -0.88315011068E+02  0.23225224875E+03  0.00000000000E+00 0.  1.
<mgrwt>
<rscale>  0 0.45049312E+03</rscale>
<asrwt>0</asrwt>
<pdfrwt beam="2">  1        1 0.11871753E+00 0.45247364E+03</pdfrwt>
<pdfrwt beam="1">  1       -1 0.40243020E-01 0.45247364E+03</pdfrwt>
<totfact> 0.14687071E+02</totfact>
</mgrwt>
</event>
<event>
 7    1  0.7800420E-006  0.1407736E+03  0.7546771E-02  0.1223397E+00
          3   -1    0    0  501    0  0.00000000000E+00  0.00000000000E+00  0.87551077782E+02  0.87551077782E+02  0.00000000000E+00 0. -1.
         -3   -1    0    0    0  501 -0.00000000000E+00 -0.00000000000E+00 -0.21259286487E+03  0.21259286487E+03  0.00000000000E+00 0.  1.
         23    2    1    2    0    0 -0.60352371563E+02 -0.23438130540E+02 -0.11760641817E+02  0.14126400826E+03  0.12500181046E+03 0.  0.
          5    1    3    3  502    0 -0.56120163609E+02  0.25456967626E+02  0.36909372681E+02  0.71985566303E+02  0.47000000000E+01 0.  1.
         -5    1    3    3    0  502 -0.42322079537E+01 -0.48895098166E+02 -0.48670014498E+02  0.69278441957E+02  0.47000000000E+01 0.  1.
        -11    1    1    2    0    0  0.83064676133E+02  0.70601775685E+01 -0.86518539389E+02  0.12014592871E+03  0.00000000000E+00 0.  1.
         11    1    1    2    0    0 -0.22712304571E+02  0.16377952971E+02 -0.26762605884E+02  0.38734005681E+02  0.00000000000E+00 0. -1.
<mgrwt>
<rscale>  0 0.13277409E+03</rscale>
<asrwt>0</asrwt>
<pdfrwt beam="1">  1        3 0.13469397E-01 0.14077360E+03</pdfrwt>
<pdfrwt beam="2">  1       -3 0.32706594E-01 0.14077360E+03</pdfrwt>
<totfact> 0.94576829E+02</totfact>
</mgrwt>
</event>
<event>
 6    1  0.7800420E-006  0.3519616E+03  0.7546771E-02  0.1061813E+00
         -1   -1    0    0    0  501 -0.00000000000E+00  0.00000000000E+00  0.35789440489E+03  0.35789440489E+03  0.00000000000E+00 0.  1.
          1   -1    0    0  501    0  0.00000000000E+00 -0.00000000000E+00 -0.86531806550E+02  0.86531806550E+02  0.00000000000E+00 0. -1.
          5    1    1    2  502    0  0.64017500996E+02  0.11305110203E+03  0.33387131843E+01  0.13004625758E+03  0.47000000000E+01 0. -1.
         -5    1    1    2    0  502 -0.11698712645E+02 -0.25587706895E+02  0.28752124974E+02  0.40501423583E+02  0.47000000000E+01 0.  1.
        -11    1    1    2    0    0 -0.49103055116E+02 -0.33576914943E+02  0.52092584070E+02  0.79070579573E+02  0.00000000000E+00 0. -1.
         11    1    1    2    0    0 -0.32157332342E+01 -0.53886480195E+02  0.18717917611E+03  0.19480795070E+03  0.00000000000E+00 0.  1.
<mgrwt>
<rscale>  0 0.35196164E+03</rscale>
<asrwt>0</asrwt>
<pdfrwt beam="2">  1        1 0.13312586E-01 0.35196164E+03</pdfrwt>
<pdfrwt beam="1">  1       -1 0.55060677E-01 0.35196164E+03</pdfrwt>
<totfact> 0.15018171E+03</totfact>
</mgrwt>
</event>
<event>
 7    1  0.7800420E-006  0.1371938E+03  0.7546771E-02  0.1229239E+00
         -2   -1    0    0    0  501 -0.00000000000E+00  0.00000000000E+00  0.24492996789E+02  0.24492996789E+02  0.00000000000E+00 0.  1.
          2   -1    0    0  501    0  0.00000000000E+00 -0.00000000000E+00 -0.60935943278E+03  0.60935943278E+03  0.00000000000E+00 0. -1.
         23    2    1    2    0    0 -0.42728379493E+02  0.37014784827E+02 -0.35002830213E+03  0.37595471963E+03  0.12500532074E+03 0.  0.
          5    1    3    3  502    0 -0.37522572101E+02  0.21004285904E+02 -0.35512312730E+03  0.35774802444E+03  0.47000000000E+01 0. -1.
         -5    1    3    3    0  502 -0.52058073920E+01  0.16010498923E+02  0.50948251744E+01  0.18206695195E+02  0.47000000000E+01 0. -1.
        -11    1    1    2    0    0 -0.88840872958E+01  0.24631020738E+02 -0.56150930805E+02  0.61955961940E+02  0.00000000000E+00 0.  1.
         11    1    1    2    0    0  0.51612466789E+02 -0.61645805565E+02 -0.17868720306E+03  0.19594174800E+03  0.00000000000E+00 0. -1.
<mgrwt>
<rscale>  0 0.12880539E+03</rscale>
<asrwt>0</asrwt>
<pdfrwt beam="2">  1        2 0.93747587E-01 0.13719380E+03</pdfrwt>
<pdfrwt beam="1">  1       -2 0.37681541E-02 0.13719380E+03</pdfrwt>
<totfact> 0.14161380E+04</totfact>
</mgrwt>
</event>
<event>
 7    1  0.7800420E-006  0.1439626E+03  0.7546771E-02  0.1218162E+00
          1   -1    0    0  501    0  0.00000000000E+00  0.00000000000E+00  0.26006743333E+03  0.26006743333E+03  0.00000000000E+00 0. -1.
         -1   -1    0    0    0  501 -0.00000000000E+00 -0.00000000000E+00 -0.69180789876E+02  0.69180789876E+02  0.00000000000E+00 0.  1.
         23    2    1    2    0    0 -0.50824958377E+01  0.71280996162E+02  0.14484292665E+03  0.20421726580E+03  0.12497362150E+03 0.  0.
          5    1    3    3  502    0 -0.23075709151E+02 -0.30995701805E+02  0.28807776318E+02  0.48427263598E+02  0.47000000000E+01 0.  1.
         -5    1    3    3    0  502  0.17993213313E+02  0.10227669797E+03  0.11603515033E+03  0.15579000220E+03  0.47000000000E+01 0.  1.
        -11    1    1    2    0    0  0.11378995473E+02 -0.23483594485E+02  0.67420053408E+02  0.72294013234E+02  0.00000000000E+00 0. -1.
         11    1    1    2    0    0 -0.62964996352E+01 -0.47797401677E+02 -0.21376336602E+02  0.52736944178E+02  0.00000000000E+00 0.  1.
<mgrwt>
<rscale>  0 0.13646774E+03</rscale>
<asrwt>0</asrwt>
<pdfrwt beam="1">  1        1 0.40010374E-01 0.14396256E+03</pdfrwt>
<pdfrwt beam="2">  1       -1 0.10643199E-01 0.14396256E+03</pdfrwt>
<totfact> 0.55718370E+03</totfact>
</mgrwt>
</event>
<event>
 7    1  0.7800420E-006  0.1679677E+03  0.7546771E-02  0.1186721E+00
          1   -1    0    0  501    0  0.00000000000E+00  0.00000000000E+00  0.40189361321E+02  0.40189361321E+02  0.00000000000E+00 0.  1.
         -1   -1    0    0    0  501 -0.00000000000E+00 -0.00000000000E+00 -0.62791173076E+03  0.62791173076E+03  0.00000000000E+00 0. -1.
         23    2    1    2    0    0  0.11220246200E+03 -0.16586052476E+01 -0.25486760415E+03  0.30523866489E+03  0.12498401277E+03 0.  0.
          5    1    3    3  502    0 -0.91108063441E+01 -0.19083119084E+01  0.96395623639E+01  0.14200690446E+02  0.47000000000E+01 0.  1.
         -5    1    3    3    0  502  0.12131326835E+03  0.24970666081E+00 -0.26450716651E+03  0.29103797444E+03  0.47000000000E+01 0.  1.
        -11    1    1    2    0    0 -0.43403784072E+02  0.11425815027E+01 -0.31212772801E+02  0.53473649119E+02  0.00000000000E+00 0.  1.
         11    1    1    2    0    0 -0.68798677931E+02  0.51602374487E+00 -0.30164199248E+03  0.30938877807E+03  0.00000000000E+00 0. -1.
<mgrwt>
<rscale>  0 0.16176235E+03</rscale>
<asrwt>0</asrwt>
<pdfrwt beam="1">  1        1 0.61829788E-02 0.16796770E+03</pdfrwt>
<pdfrwt beam="2">  1       -1 0.96601803E-01 0.16796770E+03</pdfrwt>
<totfact> 0.13300544E+03</totfact>
</mgrwt>
</event>
<event>
 7    1  0.7800420E-006  0.1456791E+03  0.7546771E-02  0.1215428E+00
          2   -1    0    0  501    0  0.00000000000E+00  0.00000000000E+00  0.99895126270E+02  0.99895126270E+02  0.00000000000E+00 0. -1.
         -2   -1    0    0    0  501 -0.00000000000E+00 -0.00000000000E+00 -0.17945145968E+03  0.17945145968E+03  0.00000000000E+00 0.  1.
         23    2    1    2    0    0  0.16006402979E+02  0.73084330686E+02 -0.22129643720E+02  0.14735036223E+03  0.12499953516E+03 0.  0.
          5    1    3    3  502    0 -0.75484624324E+01  0.25409478117E+02 -0.70404798890E+02  0.75376034454E+02  0.47000000000E+01 0.  1.
         -5    1    3    3    0  502  0.23554865412E+02  0.47674852569E+02  0.48275155170E+02  0.71974327775E+02  0.47000000000E+01 0.  1.
        -11    1    1    2    0    0  0.11031514300E+01 -0.88528687881E+02 -0.62527633360E+02  0.10838934659E+03  0.00000000000E+00 0.  1.
         11    1    1    2    0    0 -0.17109554409E+02  0.15444357195E+02  0.51009436742E+01  0.23606877126E+02  0.00000000000E+00 0. -1.
<mgrwt>
<rscale>  0 0.13845136E+03</rscale>
<asrwt>0</asrwt>
<pdfrwt beam="1">  1        2 0.15368481E-01 0.14567913E+03</pdfrwt>
<pdfrwt beam="2">  1       -2 0.27607917E-01 0.14567913E+03</pdfrwt>
<totfact> 0.43222964E+03</totfact>
</mgrwt>
</event>
<event>
 7    1  0.1002207E-005  0.4590079E+03  0.7546771E-02  0.1025588E+00
         -1   -1    0    0    0  501 -0.00000000000E+00  0.00000000000E+00  0.35014593211E+03  0.35014593211E+03  0.00000000000E+00 0.  1.
          1   -1    0    0  501    0  0.00000000000E+00 -0.00000000000E+00 -0.67153740116E+03  0.67153740116E+03  0.00000000000E+00 0. -1.
         23    2    1    2    0    0 -0.43954484187E+03  0.43165486284E+02 -0.33707236225E+03  0.56947871727E+03  0.12500121923E+03 0.  0.
          5    1    3    3  502    0 -0.13563580094E+02 -0.11586302597E+02 -0.48869330892E+02  0.52235185600E+02  0.47000000000E+01 0. -1.
         -5    1    3    3    0  502 -0.42598126178E+03  0.54751788881E+02 -0.28820303136E+03  0.51724353167E+03  0.47000000000E+01 0. -1.
        -11    1    1    2    0    0  0.25726221716E+03 -0.77568154705E+01  0.53056007019E+02  0.26279070845E+03  0.00000000000E+00 0. -1.
         11    1    1    2    0    0  0.18228262471E+03 -0.35408670813E+02 -0.37375113811E+02  0.18941390755E+03  0.00000000000E+00 0.  1.
<mgrwt>
<rscale>  0 0.45722875E+03</rscale>
<asrwt>0</asrwt>
<pdfrwt beam="2">  1        1 0.10331345E+00 0.45900788E+03</pdfrwt>
<pdfrwt beam="1">  1       -1 0.53868605E-01 0.45900788E+03</pdfrwt>
<totfact> 0.10544026E+02</totfact>
</mgrwt>
</event>
<event>
 7    1  0.7800420E-006  0.1278571E+03  0.7546771E-02  0.1245250E+00
          1   -1    0    0  501    0  0.00000000000E+00  0.00000000000E+00  0.21064655512E+03  0.21064655512E+03  0.00000000000E+00 0. -1.
         -1   -1    0    0    0  501 -0.00000000000E+00 -0.00000000000E+00 -0.68136249788E+02  0.68136249788E+02  0.00000000000E+00 0.  1.
         23    2    1    2    0    0  0.69866884917E+01 -0.25831722312E+02  0.13106908959E+03  0.18310252108E+03  0.12502533857E+03 0.  0.
          5    1    3    3  502    0  0.89111736015E+01  0.42381451178E+02  0.11021546188E+02  0.44935074266E+02  0.47000000000E+01 0. -1.
         -5    1    3    3    0  502 -0.19244851098E+01 -0.68213173490E+02  0.12004754341E+03  0.13816744681E+03  0.47000000000E+01 0. -1.
        -11    1    1    2    0    0 -0.35569441173E+02 -0.31000405353E+01  0.33889179960E+02  0.49226739838E+02  0.00000000000E+00 0. -1.
         11    1    1    2    0    0  0.28582752682E+02  0.28931762847E+02 -0.22447964218E+02  0.46453543996E+02  0.00000000000E+00 0.  1.
<mgrwt>
<rscale>  0 0.11870453E+03</rscale>
<asrwt>0</asrwt>
<pdfrwt beam="1">  1        1 0.32407162E-01 0.12785706E+03</pdfrwt>
<pdfrwt beam="2">  1       -1 0.10482500E-01 0.12785706E+03</pdfrwt>
<totfact> 0.73460676E+03</totfact>
</mgrwt>
</event>
<event>
 7    1  0.7800420E-006  0.1295719E+03  0.7546771E-02  0.1243832E+00
         -1   -1    0    0    0  501 -0.00000000000E+00  0.00000000000E+00  0.27250712590E+02  0.27250712590E+02  0.00000000000E+00 0.  1.
          1   -1    0    0  501    0  0.00000000000E+00 -0.00000000000E+00 -0.10733686016E+04  0.10733686016E+04  0.00000000000E+00 0. -1.
         23    2    1    2    0    0 -0.13149333899E+01 -0.34047909485E+02 -0.97301559327E+03  0.98160492710E+03  0.12501159535E+03 0.  0.
          5    1    3    3  502    0  0.17944724157E+02 -0.25639295411E+02 -0.94828410771E+03  0.94881200748E+03  0.47000000000E+01 0.  1.
         -5    1    3    3    0  502 -0.19259657547E+02 -0.84086140740E+01 -0.24731485557E+02  0.32792919622E+02  0.47000000000E+01 0.  1.
        -11    1    1    2    0    0  0.41974481497E+02  0.31777253765E+02 -0.34797299589E+02  0.63107075772E+02  0.00000000000E+00 0.  1.
         11    1    1    2    0    0 -0.40659548107E+02  0.22706557197E+01 -0.38304996181E+02  0.55907311348E+02  0.00000000000E+00 0. -1.
<mgrwt>
<rscale>  0 0.11955555E+03</rscale>
<asrwt>0</asrwt>
<pdfrwt beam="2">  1        1 0.16513360E+00 0.12957194E+03</pdfrwt>
<pdfrwt beam="1">  1       -1 0.41924180E-02 0.12957194E+03</pdfrwt>
<totfact> 0.31817411E+03</totfact>
</mgrwt>
</event>
<event>
 7    1  0.7800420E-006  0.1513727E+03  0.7546771E-02  0.1207352E+00
          1   -1    0    0  501    0  0.00000000000E+00  0.00000000000E+00  0.15033889925E+03  0.15033889925E+03  0.00000000000E+00 0. -1.
         -1   -1    0    0    0  501 -0.00000000000E+00 -0.00000000000E+00 -0.18762354482E+03  0.18762354482E+03  0.00000000000E+00 0.  1.
         23    2    1    2    0    0 -0.55059155243E+02  0.65248971920E+02  0.75348460039E+02  0.16908896717E+03  0.12499899790E+03 0.  0.
          5    1    3    3  502    0 -0.59817713636E+02  0.93615513220E+02  0.83235113743E+02  0.13889635467E+03  0.47000000000E+01 0. -1.
         -5    1    3    3    0  502  0.47585583927E+01 -0.28366541300E+02 -0.78866537038E+01  0.30192612506E+02  0.47000000000E+01 0. -1.
        -11    1    1    2    0    0  0.10780350949E+02 -0.76873155063E+02 -0.86242673640E+02  0.11603230883E+03  0.00000000000E+00 0.  1.
         11    1    1    2    0    0  0.44278804294E+02  0.11624183142E+02 -0.26390431971E+02  0.52841168071E+02  0.00000000000E+00 0. -1.
<mgrwt>
<rscale>  0 0.14453656E+03</rscale>
<asrwt>0</asrwt>
<pdfrwt beam="1">  1        1 0.23129061E-01 0.15137268E+03</pdfrwt>
<pdfrwt beam="2">  1       -1 0.28865161E-01 0.15137268E+03</pdfrwt>
<totfact> 0.22547633E+03</totfact>
</mgrwt>
</event>
<event>
 7    1  0.7800420E-006  0.1518566E+03  0.7546771E-02  0.1208155E+00
          2   -1    0    0  501    0  0.00000000000E+00  0.00000000000E+00  0.50447176530E+03  0.50447176530E+03  0.00000000000E+00 0.  1.
         -2   -1    0    0    0  501 -0.00000000000E+00 -0.00000000000E+00 -0.38171535119E+02  0.38171535119E+02  0.00000000000E+00 0. -1.
         23    2    1    2    0    0  0.79538268615E+02  0.33071061637E+02  0.21680449012E+03  0.26469720919E+03  0.12506156213E+03 0.  0.
          5    1    3    3  502    0  0.53284630379E+02  0.37285261923E+02  0.23183771418E+02  0.69202744516E+02  0.47000000000E+01 0.  1.
         -5    1    3    3    0  502  0.26253638236E+02 -0.42142002863E+01  0.19362071871E+03  0.19549446467E+03  0.47000000000E+01 0.  1.
        -11    1    1    2    0    0 -0.15469902831E+02 -0.53079354079E+02  0.10737980245E+03  0.12077730622E+03  0.00000000000E+00 0. -1.
         11    1    1    2    0    0 -0.64068365784E+02  0.20008292442E+02  0.14211593760E+03  0.15716878501E+03  0.00000000000E+00 0.  1.
<mgrwt>
<rscale>  0 0.14391565E+03</rscale>
<asrwt>0</asrwt>
<pdfrwt beam="1">  1        2 0.77611036E-01 0.15185660E+03</pdfrwt>
<pdfrwt beam="2">  1       -2 0.58725442E-02 0.15185660E+03</pdfrwt>
<totfact> 0.90609294E+03</totfact>
</mgrwt>
</event>
<event>
 7    1  0.7800420E-006  0.1581937E+03  0.7546771E-02  0.1197757E+00
         -2   -1    0    0    0  501 -0.00000000000E+00  0.00000000000E+00  0.40381737704E+02  0.40381737704E+02  0.00000000000E+00 0.  1.
          2   -1    0    0  501    0  0.00000000000E+00 -0.00000000000E+00 -0.60500232318E+03  0.60500232318E+03  0.00000000000E+00 0. -1.
         23    2    1    2    0    0 -0.99598036455E+02  0.82450698390E+01 -0.41123605598E+03  0.44061361178E+03  0.12262752998E+03 0.  0.
          5    1    3    3  502    0 -0.24687516105E+02  0.59234836840E+02 -0.21483890447E+03  0.22426788495E+03  0.47000000000E+01 0. -1.
         -5    1    3    3    0  502 -0.74910520349E+02 -0.50989767001E+02 -0.19639715151E+03  0.21634572684E+03  0.47000000000E+01 0.  1.
        -11    1    1    2    0    0  0.73944539317E+02 -0.41642567105E+02 -0.13352130090E+03  0.15820820485E+03  0.00000000000E+00 0.  1.
         11    1    1    2    0    0  0.25653497138E+02  0.33397497266E+02 -0.19863228604E+02  0.46562244250E+02  0.00000000000E+00 0. -1.
<mgrwt>
<rscale>  0 0.15223215E+03</rscale>
<asrwt>0</asrwt>
<pdfrwt beam="2">  1        2 0.93077273E-01 0.15819375E+03</pdfrwt>
<pdfrwt beam="1">  1       -2 0.62125755E-02 0.15819375E+03</pdfrwt>
<totfact> 0.67968679E+03</totfact>
</mgrwt>
</event>
<event>
 7    1  0.7800420E-006  0.1273688E+03  0.7546771E-02  0.1243402E+00
          1   -1    0    0  501    0  0.00000000000E+00  0.00000000000E+00  0.11820324377E+04  0.11820324377E+04  0.00000000000E+00 0. -1.
         -1   -1    0    0    0  501 -0.00000000000E+00 -0.00000000000E+00 -0.14022576144E+02  0.14022576144E+02  0.00000000000E+00 0.  1.
         23    2    1    2    0    0  0.17478206601E+02 -0.17112780835E+02  0.91947015729E+03  0.92825005781E+03  0.12499785879E+03 0.  0.
          5    1    3    3  502    0 -0.23670250456E+02 -0.52351773098E+02  0.24933232835E+03  0.25590953257E+03  0.47000000000E+01 0.  1.
         -5    1    3    3    0  502  0.41148457056E+02  0.35238992263E+02  0.67013782895E+03  0.67234052524E+03  0.47000000000E+01 0.  1.
        -11    1    1    2    0    0  0.11023467815E+02  0.43784984823E+02  0.59037305380E+02  0.74323920545E+02  0.00000000000E+00 0.  1.
         11    1    1    2    0    0 -0.28501674416E+02 -0.26672203988E+02  0.18950239883E+03  0.19348103544E+03  0.00000000000E+00 0. -1.
<mgrwt>
<rscale>  0 0.11981508E+03</rscale>
<asrwt>0</asrwt>
<pdfrwt beam="1">  1        1 0.18185107E+00 0.12736875E+03</pdfrwt>
<pdfrwt beam="2">  1       -1 0.21573203E-02 0.12736875E+03</pdfrwt>
<totfact> 0.70204617E+03</totfact>
</mgrwt>
</event>
<event>
 7    1  0.7800420E-006  0.1416271E+03  0.7546771E-02  0.1221820E+00
          3   -1    0    0  501    0  0.00000000000E+00  0.00000000000E+00  0.10980067856E+03  0.10980067856E+03  0.00000000000E+00 0. -1.
         -3   -1    0    0    0  501 -0.00000000000E+00 -0.00000000000E+00 -0.14989257996E+03  0.14989257996E+03  0.00000000000E+00 0.  1.
         23    2    1    2    0    0  0.17934805489E+02  0.64126132956E+02 -0.66319283291E+01  0.14178229061E+03  0.12499766910E+03 0.  0.
          5    1    3    3  502    0  0.39027220480E+02 -0.56849185939E+01 -0.44356807671E+02  0.59540394898E+02  0.47000000000E+01 0. -1.
         -5    1    3    3    0  502 -0.21092414991E+02  0.69811051549E+02  0.37724879342E+02  0.82241895710E+02  0.47000000000E+01 0. -1.
        -11    1    1    2    0    0 -0.93966123551E+01 -0.52775389793E+02 -0.64445127391E+02  0.83825488582E+02  0.00000000000E+00 0.  1.
         11    1    1    2    0    0 -0.85381931339E+01 -0.11350743162E+02  0.30985154325E+02  0.34085479326E+02  0.00000000000E+00 0. -1.
<mgrwt>
<rscale>  0 0.13387229E+03</rscale>
<asrwt>0</asrwt>
<pdfrwt beam="1">  1        3 0.16892412E-01 0.14162710E+03</pdfrwt>
<pdfrwt beam="2">  1       -3 0.23060397E-01 0.14162710E+03</pdfrwt>
<totfact> 0.12176971E+03</totfact>
</mgrwt>
</event>
