<event>
 7    1  0.5951278E-006  0.1200130E+03  0.7561462E-02  0.1243076E+00
          2   -1    0    0  501    0  0.00000000000E+00  0.00000000000E+00  0.13537856187E+04  0.13537856187E+04  0.00000000000E+00 0. -1.
         -2   -1    0    0    0  501 -0.00000000000E+00 -0.00000000000E+00 -0.23368263342E+02  0.23368263342E+02  0.00000000000E+00 0.  1.
         23    2    1    2    0    0 -0.34683236727E+02  0.53114954777E+02  0.64378949170E+03  0.65298997130E+03  0.88920569357E+02 0.  0.
          5    1    1    2  502    0 -0.64993746355E+01  0.33745735628E+02  0.57805364842E+03  0.57908937945E+03  0.41800000000E+01 0. -1.
         -5    1    1    2    0  502  0.41182611363E+02 -0.86860690405E+02  0.10857421524E+03  0.14507453130E+03  0.41800000000E+01 0.  1.
        -11    1    3    3    0    0  0.29829446038E+02  0.94661677783E+01  0.17643789525E+03  0.17919189452E+03  0.00000000000E+00 0.  1.
         11    1    3    3    0    0 -0.64512682765E+02  0.43648786998E+02  0.46735159646E+03  0.47379807678E+03  0.00000000000E+00 0. -1.
</event>
<event>
 8    1  0.5951278E-006  0.1556369E+03  0.7561462E-02  0.1193713E+00
         -1   -1    0    0    0  501 -0.00000000000E+00  0.00000000000E+00  0.14227513119E+03  0.14227513119E+03  0.00000000000E+00 0.  1.
          1   -1    0    0  501    0  0.00000000000E+00 -0.00000000000E+00 -0.26539127636E+03  0.26539127636E+03  0.00000000000E+00 0. -1.
         23    2    1    2    0    0  0.95443540815E+02  0.81960545042E+02  0.39803727937E+02  0.18182202160E+03  0.12509160785E+03 0.  0.
         23    2    1    2    0    0 -0.95443540815E+02 -0.81960545042E+02 -0.16291987311E+03  0.22584438595E+03  0.92929011522E+02 0.  0.
          5    1    3    3  502    0  0.95757426875E+02  0.10350467543E+03  0.58764215461E+02  0.15281821899E+03  0.41800000000E+01 0. -1.
         -5    1    3    3    0  502 -0.31388605998E+00 -0.21544130387E+02 -0.18960487524E+02  0.29003802608E+02  0.41800000000E+01 0. -1.
        -11    1    4    4    0    0 -0.35955371775E+02 -0.81155831058E+02 -0.60573759062E+02  0.10746272824E+03  0.00000000000E+00 0.  1.
         11    1    4    4    0    0 -0.59488169040E+02 -0.80471398409E+00 -0.10234611405E+03  0.11838165770E+03  0.00000000000E+00 0. -1.
</event>
<event>
 8    1  0.5951278E-006  0.1316066E+03  0.7561462E-02  0.1225091E+00
          1   -1    0    0  501    0  0.00000000000E+00  0.00000000000E+00  0.24261130296E+02  0.24261130296E+02  0.00000000000E+00 0. -1.
         -1   -1    0    0    0  501 -0.00000000000E+00 -0.00000000000E+00 -0.85215470920E+03  0.85215470920E+03  0.00000000000E+00 0.  1.
         23    2    1    2    0    0  0.46220015433E+02 -0.60336608073E+02 -0.61310636247E+03  0.63033661164E+03  0.12509211076E+03 0.  0.
         23    2    1    2    0    0 -0.46220015433E+02  0.60336608073E+02 -0.21478721644E+03  0.24607922785E+03  0.92976566601E+02 0.  0.
          5    1    3    3  502    0  0.62160773215E+02  0.17058283751E+02 -0.21727805420E+03  0.22667635962E+03  0.41800000000E+01 0. -1.
         -5    1    3    3    0  502 -0.15940757782E+02 -0.77394891824E+02 -0.39582830827E+03  0.40366025203E+03  0.41800000000E+01 0. -1.
        -11    1    4    4    0    0  0.70789543689E+01 -0.21046961360E+02 -0.50178431383E+02  0.54872225702E+02  0.00000000000E+00 0.  1.
         11    1    4    4    0    0 -0.53298969802E+02  0.81383569433E+02 -0.16460878505E+03  0.19120700215E+03  0.00000000000E+00 0. -1.
</event>
<event>
 8    1  0.5951278E-006  0.9508720E+02  0.7561462E-02  0.1290980E+00
          2   -1    0    0  501    0  0.00000000000E+00  0.00000000000E+00  0.34121272222E+03  0.34121272222E+03  0.00000000000E+00 0. -1.
         -2   -1    0    0    0  501 -0.00000000000E+00 -0.00000000000E+00 -0.11021264328E+03  0.11021264328E+03  0.00000000000E+00 0.  1.
         23    2    1    2    0    0  0.44787097669E+02  0.63055062061E+02 -0.41996330271E+02  0.15295036487E+03  0.12509315484E+03 0.  0.
         23    2    1    2    0    0 -0.44787097669E+02 -0.63055062061E+02  0.27299640922E+03  0.29847500063E+03  0.92619984828E+02 0.  0.
          5    1    3    3  502    0  0.34446525462E+02  0.41161624529E+02 -0.86632937398E+02  0.10199794455E+03  0.41800000000E+01 0. -1.
         -5    1    3    3    0  502  0.10340572207E+02  0.21893437532E+02  0.44636607127E+02  0.50952420319E+02  0.41800000000E+01 0. -1.
        -11    1    4    4    0    0 -0.90589555440E+01 -0.73881788433E+02  0.22889568898E+03  0.24069445314E+03  0.00000000000E+00 0. -1.
         11    1    4    4    0    0 -0.35728142125E+02  0.10826726371E+02  0.44100720235E+02  0.57780547496E+02  0.00000000000E+00 0.  1.
</event>
<event>
 8    1  0.5951278E-006  0.9209102E+02  0.7561462E-02  0.1297866E+00
          1   -1    0    0  501    0  0.00000000000E+00  0.00000000000E+00  0.12301121594E+03  0.12301121594E+03  0.00000000000E+00 0. -1.
         -1   -1    0    0    0  501 -0.00000000000E+00 -0.00000000000E+00 -0.10321920250E+03  0.10321920250E+03  0.00000000000E+00 0.  1.
         23    2    1    2    0    0 -0.17296747063E+02  0.13325890972E+02 -0.10526443265E+02  0.12741973733E+03  0.12509287200E+03 0.  0.
         23    2    1    2    0    0  0.17296747063E+02 -0.13325890972E+02  0.30318456704E+02  0.98810681114E+02  0.91474504952E+02 0.  0.
          5    1    3    3  502    0 -0.59407159505E+02 -0.22851623929E+02 -0.27137870197E+02  0.69320586520E+02  0.41800000000E+01 0.  1.
         -5    1    3    3    0  502  0.42110412442E+02  0.36177514901E+02  0.16611426932E+02  0.58099150813E+02  0.41800000000E+01 0.  1.
        -11    1    4    4    0    0  0.37249275602E+02  0.50564343426E+01 -0.19302863292E+02  0.42257266741E+02  0.00000000000E+00 0. -1.
         11    1    4    4    0    0 -0.19952528539E+02 -0.18382325315E+02  0.49621319996E+02  0.56553414373E+02  0.00000000000E+00 0.  1.
</event>
<event>
 8    1  0.7041289E-006  0.1789442E+03  0.7561462E-02  0.1168829E+00
          2   -1    0    0  501    0  0.00000000000E+00  0.00000000000E+00  0.10578168505E+04  0.10578168505E+04  0.00000000000E+00 0. -1.
         -2   -1    0    0    0  501 -0.00000000000E+00 -0.00000000000E+00 -0.40867319703E+02  0.40867319703E+02  0.00000000000E+00 0.  1.
         23    2    1    2    0    0 -0.78609415430E+02 -0.14615057279E+03  0.36735384279E+03  0.42206101922E+03  0.12508888044E+03 0.  0.
         23    2    1    2    0    0  0.78609415430E+02  0.14615057279E+03  0.64959568802E+03  0.67662315100E+03  0.91131226521E+02 0.  0.
          5    1    3    3  502    0 -0.40956838946E+02 -0.10422033024E+03  0.10457048932E+03  0.15327034784E+03  0.41800000000E+01 0. -1.
         -5    1    3    3    0  502 -0.37652576483E+02 -0.41930242551E+02  0.26278335347E+03  0.26879067137E+03  0.41800000000E+01 0. -1.
        -11    1    4    4    0    0  0.38543584601E+02  0.14414102850E+03  0.51383067899E+03  0.53505533422E+03  0.00000000000E+00 0.  1.
         11    1    4    4    0    0  0.40065830829E+02  0.20095442910E+01  0.13576500904E+03  0.14156781678E+03  0.00000000000E+00 0. -1.
</event>
<event>
 8    1  0.5951278E-006  0.1532957E+03  0.7561462E-02  0.1196481E+00
         -2   -1    0    0    0  501 -0.00000000000E+00  0.00000000000E+00  0.16071150031E+02  0.16071150031E+02  0.00000000000E+00 0.  1.
          2   -1    0    0  501    0  0.00000000000E+00 -0.00000000000E+00 -0.16078940713E+04  0.16078940713E+04  0.00000000000E+00 0. -1.
         23    2    1    2    0    0 -0.72728610069E+02  0.95665039440E+02 -0.74688245752E+03  0.76582505353E+03  0.11921978349E+03 0.  0.
         23    2    1    2    0    0  0.72728610069E+02 -0.95665039440E+02 -0.84494046371E+03  0.85814016775E+03  0.89659967719E+02 0.  0.
          5    1    3    3  502    0 -0.77478241886E+02  0.19180855992E+02 -0.52490278887E+03  0.53095309903E+03  0.41800000000E+01 0. -1.
         -5    1    3    3    0  502  0.47496318168E+01  0.76484183448E+02 -0.22197966864E+03  0.23487195450E+03  0.41800000000E+01 0.  1.
        -11    1    4    4    0    0  0.91496772017E+02 -0.59404701220E+02 -0.60947874500E+03  0.61916469411E+03  0.00000000000E+00 0.  1.
         11    1    4    4    0    0 -0.18768161949E+02 -0.36260338220E+02 -0.23546171870E+03  0.23897547365E+03  0.00000000000E+00 0. -1.
</event>
<event>
 8    1  0.5951278E-006  0.6663580E+02  0.7561462E-02  0.1371922E+00
         -4   -1    0    0    0  501 -0.00000000000E+00  0.00000000000E+00  0.92034865052E+02  0.92034865052E+02  0.00000000000E+00 0.  1.
          4   -1    0    0  501    0  0.00000000000E+00 -0.00000000000E+00 -0.13315349903E+03  0.13315349903E+03  0.00000000000E+00 0. -1.
         23    2    1    2    0    0  0.46948542302E+01  0.20160593608E+02 -0.35339508089E+02  0.13162400475E+03  0.12508999402E+03 0.  0.
         23    2    1    2    0    0 -0.46948542302E+01 -0.20160593608E+02 -0.57791258880E+01  0.93564359329E+02  0.91062614995E+02 0.  0.
          5    1    3    3  502    0 -0.16444003662E+02  0.19229627986E+02  0.43166241224E+02  0.50209367954E+02  0.41800000000E+01 0. -1.
         -5    1    3    3    0  502  0.21138857892E+02  0.93096562181E+00 -0.78505749312E+02  0.81414636799E+02  0.41800000000E+01 0. -1.
        -11    1    4    4    0    0 -0.27122267189E+02  0.24201123268E+02  0.15469471278E+02  0.39504636266E+02  0.00000000000E+00 0.  1.
         11    1    4    4    0    0  0.22427412958E+02 -0.44361716876E+02 -0.21248597166E+02  0.54059723063E+02  0.00000000000E+00 0. -1.
</event>
<event>
 8    1  0.5951278E-006  0.9576502E+02  0.7561462E-02  0.1289462E+00
         -2   -1    0    0    0  501 -0.00000000000E+00  0.00000000000E+00  0.26828019967E+02  0.26828019967E+02  0.00000000000E+00 0. -1.
          2   -1    0    0  501    0  0.00000000000E+00 -0.00000000000E+00 -0.54944358086E+03  0.54944358086E+03  0.00000000000E+00 0.  1.
         23    2    1    2    0    0  0.51746377846E+02 -0.17618470964E+01 -0.25958450880E+03  0.29276784943E+03  0.12509238478E+03 0.  0.
         23    2    1    2    0    0 -0.51746377846E+02  0.17618470964E+01 -0.26303105210E+03  0.28350375139E+03  0.92240180842E+02 0.  0.
          5    1    3    3  502    0 -0.27801767858E+02  0.37169151902E+02 -0.95307288253E+02  0.10609163842E+03  0.41800000000E+01 0. -1.
         -5    1    3    3    0  502  0.79548145704E+02 -0.38930998998E+02 -0.16427722054E+03  0.18667621101E+03  0.41800000000E+01 0. -1.
        -11    1    4    4    0    0 -0.75231924563E+01 -0.79936120221E+01  0.47207834206E+01  0.11949144488E+02  0.00000000000E+00 0. -1.
         11    1    4    4    0    0 -0.44223185390E+02  0.97554591186E+01 -0.26775183552E+03  0.27155460690E+03  0.00000000000E+00 0.  1.
</event>
<event>
 8    1  0.5951278E-006  0.1333363E+03  0.7561462E-02  0.1222588E+00
          2   -1    0    0  501    0  0.00000000000E+00  0.00000000000E+00  0.77327087643E+02  0.77327087643E+02  0.00000000000E+00 0. -1.
         -2   -1    0    0    0  501 -0.00000000000E+00 -0.00000000000E+00 -0.31251197858E+03  0.31251197858E+03  0.00000000000E+00 0.  1.
         23    2    1    2    0    0 -0.11019846026E+03  0.13950824336E+02 -0.14739290387E+03  0.22295813404E+03  0.12508930923E+03 0.  0.
         23    2    1    2    0    0  0.11019846026E+03 -0.13950824336E+02 -0.87791987067E+02  0.16688093217E+03  0.88337344236E+02 0.  0.
          5    1    3    3  502    0 -0.89774229268E+02 -0.38573587606E+02 -0.48753755827E+02  0.10927824582E+03  0.41800000000E+01 0.  1.
         -5    1    3    3    0  502 -0.20424230993E+02  0.52524411941E+02 -0.98639148040E+02  0.11367988823E+03  0.41800000000E+01 0.  1.
        -11    1    4    4    0    0  0.47223534767E+02 -0.14451850603E+02  0.10170457868E+02  0.50421785321E+02  0.00000000000E+00 0. -1.
         11    1    4    4    0    0  0.62974925495E+02  0.50102626733E+00 -0.97962444934E+02  0.11645914685E+03  0.00000000000E+00 0.  1.
</event>
<event>
 8    1  0.6999827E-006  0.2233840E+03  0.7561462E-02  0.1131385E+00
         -2   -1    0    0    0  501 -0.00000000000E+00  0.00000000000E+00  0.14385192626E+03  0.14385192626E+03  0.00000000000E+00 0.  1.
          2   -1    0    0  501    0  0.00000000000E+00 -0.00000000000E+00 -0.38377738942E+03  0.38377738942E+03  0.00000000000E+00 0. -1.
         23    2    1    2    0    0 -0.15412010675E+03 -0.13605009651E+03 -0.90548085017E+02  0.25711546786E+03  0.12508705788E+03 0.  0.
         23    2    1    2    0    0  0.15412010675E+03  0.13605009651E+03 -0.14937737814E+03  0.27051384781E+03  0.92744297358E+02 0.  0.
          5    1    3    3  502    0 -0.17520833732E+03 -0.11021547809E+03 -0.77723742184E+02  0.22114218407E+03  0.41800000000E+01 0. -1.
         -5    1    3    3    0  502  0.21088230571E+02 -0.25834618418E+02 -0.12824342833E+02  0.35973283788E+02  0.41800000000E+01 0. -1.
        -11    1    4    4    0    0  0.10536211024E+03  0.83486442920E+02 -0.40952862882E+02  0.14052863553E+03  0.00000000000E+00 0.  1.
         11    1    4    4    0    0  0.48757996504E+02  0.52563653592E+02 -0.10842451526E+03  0.12998521228E+03  0.00000000000E+00 0. -1.
</event>
<event>
 8    1  0.5951278E-006  0.2104149E+03  0.7561462E-02  0.1141238E+00
         -1   -1    0    0    0  501 -0.00000000000E+00  0.00000000000E+00  0.58004116065E+02  0.58004116065E+02  0.00000000000E+00 0.  1.
          1   -1    0    0  501    0  0.00000000000E+00 -0.00000000000E+00 -0.94001905874E+03  0.94001905874E+03  0.00000000000E+00 0. -1.
         23    2    1    2    0    0 -0.91519704269E+02 -0.16806407856E+03 -0.29038640544E+03  0.36958599333E+03  0.12509257064E+03 0.  0.
         23    2    1    2    0    0  0.91519704269E+02  0.16806407856E+03 -0.59162853723E+03  0.62843718148E+03  0.91036114926E+02 0.  0.
          5    1    3    3  502    0 -0.55297999227E+01 -0.98081551441E+02 -0.21214923847E+03  0.23382758863E+03  0.41800000000E+01 0.  1.
         -5    1    3    3    0  502 -0.85989904346E+02 -0.69982527117E+02 -0.78237166971E+02  0.13575840470E+03  0.41800000000E+01 0.  1.
        -11    1    4    4    0    0  0.94325400047E+02  0.80668140227E+02 -0.32886432423E+03  0.35150586580E+03  0.00000000000E+00 0. -1.
         11    1    4    4    0    0 -0.28056957782E+01  0.87395938330E+02 -0.26276421300E+03  0.27693131567E+03  0.00000000000E+00 0.  1.
</event>
<event>
 8    1  0.5951278E-006  0.2177034E+03  0.7561462E-02  0.1135607E+00
         -1   -1    0    0    0  501 -0.00000000000E+00  0.00000000000E+00  0.48537970640E+02  0.48537970640E+02  0.00000000000E+00 0.  1.
          1   -1    0    0  501    0  0.00000000000E+00 -0.00000000000E+00 -0.10778311484E+04  0.10778311484E+04  0.00000000000E+00 0. -1.
         23    2    1    2    0    0 -0.15896318764E+03 -0.11171201680E+03 -0.66085253934E+03  0.70008723717E+03  0.12508873323E+03 0.  0.
         23    2    1    2    0    0  0.15896318764E+03  0.11171201680E+03 -0.36844063839E+03  0.42628188184E+03  0.90657978360E+02 0.  0.
          5    1    3    3  502    0 -0.12747996657E+03 -0.13927217163E+03 -0.55064291012E+03  0.58212796405E+03  0.41800000000E+01 0.  1.
         -5    1    3    3    0  502 -0.31483221076E+02  0.27560154822E+02 -0.11020962922E+03  0.11795927312E+03  0.41800000000E+01 0.  1.
        -11    1    4    4    0    0  0.93820917533E+02  0.26976246119E+02 -0.11268043239E+03  0.14908709624E+03  0.00000000000E+00 0.  1.
         11    1    4    4    0    0  0.65142270108E+02  0.84735770685E+02 -0.25576020600E+03  0.27719478560E+03  0.00000000000E+00 0. -1.
</event>
<event>
 7    1  0.5951278E-006  0.9915833E+02  0.7561462E-02  0.1282076E+00
          3   -1    0    0  501    0  0.00000000000E+00  0.00000000000E+00  0.67769765829E+02  0.67769765829E+02  0.00000000000E+00 0. -1.
         -3   -1    0    0    0  501 -0.00000000000E+00 -0.00000000000E+00 -0.42220078806E+03  0.42220078806E+03  0.00000000000E+00 0.  1.
         23    2    1    2    0    0  0.29637176902E+02  0.16425014191E+02 -0.86424357870E+01  0.97562440122E+02  0.91080155250E+02 0.  0.
          5    1    1    2  502    0  0.21742360666E+02  0.47947706360E+02 -0.20210722834E+02  0.56547842664E+02  0.41800000000E+01 0. -1.
         -5    1    1    2    0  502 -0.51379537568E+02 -0.64372720551E+02 -0.32557786361E+03  0.33586027110E+03  0.41800000000E+01 0.  1.
        -11    1    3    3    0    0 -0.14447374139E+02 -0.31705837770E+01 -0.38214211031E+02  0.40976885506E+02  0.00000000000E+00 0. -1.
         11    1    3    3    0    0  0.44084551041E+02  0.19595597968E+02  0.29571775244E+02  0.56585554617E+02  0.00000000000E+00 0.  1.
</event>
<event>
 8    1  0.5951278E-006  0.1914170E+03  0.7561462E-02  0.1157189E+00
         -2   -1    0    0    0  501 -0.00000000000E+00  0.00000000000E+00  0.58108142028E+02  0.58108142028E+02  0.00000000000E+00 0.  1.
          2   -1    0    0  501    0  0.00000000000E+00 -0.00000000000E+00 -0.79074469692E+03  0.79074469692E+03  0.00000000000E+00 0. -1.
         23    2    1    2    0    0  0.14489014112E+03 -0.76222694136E+02 -0.20950338140E+03  0.29384044499E+03  0.12508992045E+03 0.  0.
         23    2    1    2    0    0 -0.14489014112E+03  0.76222694136E+02 -0.52313317349E+03  0.55501239396E+03  0.86990735979E+02 0.  0.
          5    1    3    3  502    0  0.25458058205E+02  0.33252523579E+02 -0.60403024926E+02  0.73619568541E+02  0.41800000000E+01 0. -1.
         -5    1    3    3    0  502  0.11943208291E+03 -0.10947521772E+03 -0.14910035648E+03  0.22022087645E+03  0.41800000000E+01 0. -1.
        -11    1    4    4    0    0 -0.12770320240E+03  0.90347833911E+02 -0.49509599370E+03  0.51922141903E+03  0.00000000000E+00 0. -1.
         11    1    4    4    0    0 -0.17186938714E+02 -0.14125139775E+02 -0.28037179790E+02  0.35790974932E+02  0.00000000000E+00 0.  1.
</event>
<event>
 8    1  0.5951278E-006  0.1149134E+03  0.7561462E-02  0.1251732E+00
         -2   -1    0    0    0  501 -0.00000000000E+00  0.00000000000E+00  0.13887570104E+02  0.13887570104E+02  0.00000000000E+00 0. -1.
          2   -1    0    0  501    0  0.00000000000E+00 -0.00000000000E+00 -0.10379903436E+04  0.10379903436E+04  0.00000000000E+00 0.  1.
         23    2    1    2    0    0  0.20043330718E+02 -0.24100662398E+02 -0.43242046980E+03  0.45123963293E+03  0.12508863494E+03 0.  0.
         23    2    1    2    0    0 -0.20043330718E+02  0.24100662398E+02 -0.59168230371E+03  0.60063828079E+03  0.98467348852E+02 0.  0.
          5    1    3    3  502    0  0.44599807434E+02  0.38532860424E+02 -0.24632772056E+03  0.25331549986E+03  0.41800000000E+01 0.  1.
         -5    1    3    3    0  502 -0.24556476716E+02 -0.62633522822E+02 -0.18609274925E+03  0.19792413307E+03  0.41800000000E+01 0.  1.
        -11    1    4    4    0    0  0.10440562437E+02  0.57310702706E+02 -0.33572334061E+03  0.34073990582E+03  0.00000000000E+00 0.  1.
         11    1    4    4    0    0 -0.30483893155E+02 -0.33210040308E+02 -0.25595896310E+03  0.25989837496E+03  0.00000000000E+00 0. -1.
</event>
<event>
 8    1  0.5951278E-006  0.1016867E+03  0.7561462E-02  0.1276789E+00
          1   -1    0    0  501    0  0.00000000000E+00  0.00000000000E+00  0.19780320205E+03  0.19780320205E+03  0.00000000000E+00 0. -1.
         -1   -1    0    0    0  501 -0.00000000000E+00 -0.00000000000E+00 -0.69533803907E+02  0.69533803907E+02  0.00000000000E+00 0.  1.
         23    2    1    2    0    0 -0.27437987323E+02 -0.16378562195E+01  0.40050226549E+02  0.13418386271E+03  0.12508302300E+03 0.  0.
         23    2    1    2    0    0  0.27437987323E+02  0.16378562195E+01  0.88219171597E+02  0.13315314325E+03  0.95872892931E+02 0.  0.
          5    1    3    3  502    0 -0.13579206390E+02 -0.50923560188E+02  0.59192874346E+02  0.79365437073E+02  0.41800000000E+01 0. -1.
         -5    1    3    3    0  502 -0.13858780933E+02  0.49285703969E+02 -0.19142647797E+02  0.54818425637E+02  0.41800000000E+01 0. -1.
        -11    1    4    4    0    0  0.48860134914E+02 -0.32609055707E+02  0.59330437528E+02  0.83491102012E+02  0.00000000000E+00 0. -1.
         11    1    4    4    0    0 -0.21422147591E+02  0.34246911927E+02  0.28888734069E+02  0.49662041239E+02  0.00000000000E+00 0.  1.
</event>
<event>
 8    1  0.5951278E-006  0.1215795E+03  0.7561462E-02  0.1240514E+00
         -2   -1    0    0    0  501 -0.00000000000E+00  0.00000000000E+00  0.71049356757E+02  0.71049356757E+02  0.00000000000E+00 0.  1.
          2   -1    0    0  501    0  0.00000000000E+00 -0.00000000000E+00 -0.24734766530E+03  0.24734766530E+03  0.00000000000E+00 0. -1.
         23    2    1    2    0    0 -0.63962284763E+02  0.36300969710E+02 -0.70919145946E+02  0.16151300160E+03  0.12509192680E+03 0.  0.
         23    2    1    2    0    0  0.63962284763E+02 -0.36300969710E+02 -0.10537916259E+03  0.15688402045E+03  0.89993853630E+02 0.  0.
          5    1    3    3  502    0  0.22699829767E+02  0.49218448182E+02 -0.43452893625E+02  0.69594283367E+02  0.41800000000E+01 0. -1.
         -5    1    3    3    0  502 -0.86662114530E+02 -0.12917478473E+02 -0.27466252321E+02  0.91918718232E+02  0.41800000000E+01 0. -1.
        -11    1    4    4    0    0 -0.15072727423E+02 -0.84472397166E+01 -0.58212000228E+02  0.60722153629E+02  0.00000000000E+00 0. -1.
         11    1    4    4    0    0  0.79035012185E+02 -0.27853729993E+02 -0.47167162364E+02  0.96161866825E+02  0.00000000000E+00 0.  1.
</event>
<event>
 8    1  0.5951278E-006  0.1340966E+03  0.7561462E-02  0.1221501E+00
         -2   -1    0    0    0  501 -0.00000000000E+00  0.00000000000E+00  0.80140390529E+02  0.80140390529E+02  0.00000000000E+00 0.  1.
          2   -1    0    0  501    0  0.00000000000E+00 -0.00000000000E+00 -0.36100418862E+03  0.36100418862E+03  0.00000000000E+00 0. -1.
         23    2    1    2    0    0  0.12738502963E+03  0.26045955852E+01 -0.10255112643E+03  0.20590837415E+03  0.12509114805E+03 0.  0.
         23    2    1    2    0    0 -0.12738502963E+03 -0.26045955852E+01 -0.17831267166E+03  0.23523620500E+03  0.85480603506E+02 0.  0.
          5    1    3    3  502    0  0.35537730844E+02  0.17569100997E+02 -0.10542707468E+03  0.11271177445E+03  0.41800000000E+01 0.  1.
         -5    1    3    3    0  502  0.91847298787E+02 -0.14964505412E+02  0.28759482550E+01  0.93196599697E+02  0.41800000000E+01 0.  1.
        -11    1    4    4    0    0 -0.12196950683E+02 -0.14990552876E+02  0.35093993536E+01  0.19641745476E+02  0.00000000000E+00 0.  1.
         11    1    4    4    0    0 -0.11518807895E+03  0.12385957291E+02 -0.18182207101E+03  0.21559445952E+03  0.00000000000E+00 0. -1.
</event>
<event>
 8    1  0.5951278E-006  0.1234915E+03  0.7561462E-02  0.1237446E+00
         -3   -1    0    0    0  501 -0.00000000000E+00  0.00000000000E+00  0.77159088347E+03  0.77159088347E+03  0.00000000000E+00 0.  1.
          3   -1    0    0  501    0  0.00000000000E+00 -0.00000000000E+00 -0.22732537473E+02  0.22732537473E+02  0.00000000000E+00 0. -1.
         23    2    1    2    0    0  0.19766163377E+02  0.69781319919E+02  0.48606872926E+03  0.50712029093E+03  0.12509215034E+03 0.  0.
         23    2    1    2    0    0 -0.19766163377E+02 -0.69781319919E+02  0.26278961673E+03  0.28720313001E+03  0.90372127360E+02 0.  0.
          5    1    3    3  502    0 -0.10644150424E+02  0.10045844227E+03  0.34825590548E+03  0.36263596714E+03  0.41800000000E+01 0.  1.
         -5    1    3    3    0  502  0.30410313802E+02 -0.30677122349E+02  0.13781282378E+03  0.14448432378E+03  0.41800000000E+01 0.  1.
        -11    1    4    4    0    0  0.13101320493E+02 -0.68334363544E+02  0.10459559478E+03  0.12562431407E+03  0.00000000000E+00 0.  1.
         11    1    4    4    0    0 -0.32867483870E+02 -0.14469563757E+01  0.15819402195E+03  0.16157881594E+03  0.00000000000E+00 0. -1.
</event>
<event>
 7    1  0.5951278E-006  0.1189243E+03  0.7561462E-02  0.1244882E+00
         -1   -1    0    0    0  501 -0.00000000000E+00  0.00000000000E+00  0.17341437722E+03  0.17341437722E+03  0.00000000000E+00 0.  1.
          1   -1    0    0  501    0  0.00000000000E+00 -0.00000000000E+00 -0.18377509468E+03  0.18377509468E+03  0.00000000000E+00 0. -1.
         23    2    1    2    0    0  0.24906385819E+02  0.26249282068E+02 -0.54819203454E+02  0.11108068600E+03  0.89579131897E+02 0.  0.
          5    1    1    2  502    0  0.42359547163E+02 -0.64704374587E+02 -0.72277657670E+02  0.10593639377E+03  0.41800000000E+01 0. -1.
         -5    1    1    2    0  502 -0.67265932982E+02  0.38455092519E+02  0.11673614366E+03  0.14017239214E+03  0.41800000000E+01 0.  1.
        -11    1    3    3    0    0 -0.16494556633E+02  0.36585791242E+02  0.18113174431E+01  0.40173018186E+02  0.00000000000E+00 0.  1.
         11    1    3    3    0    0  0.41400942452E+02 -0.10336509174E+02 -0.56630520897E+02  0.70907667814E+02  0.00000000000E+00 0. -1.
</event>
<event>
 8    1  0.5951278E-006  0.2010789E+03  0.7561462E-02  0.1148832E+00
          2   -1    0    0  501    0  0.00000000000E+00  0.00000000000E+00  0.48282248276E+03  0.48282248276E+03  0.00000000000E+00 0.  1.
         -2   -1    0    0    0  501 -0.00000000000E+00 -0.00000000000E+00 -0.97498415165E+02  0.97498415165E+02  0.00000000000E+00 0. -1.
         23    2    1    2    0    0  0.13689684577E+03  0.12009338093E+03  0.13989364478E+03  0.26149815215E+03  0.12509150731E+03 0.  0.
         23    2    1    2    0    0 -0.13689684577E+03 -0.12009338093E+03  0.24543042282E+03  0.31882274578E+03  0.90822267389E+02 0.  0.
          5    1    3    3  502    0  0.78919156403E+01  0.84835050692E+02  0.71088964764E+02  0.11104225083E+03  0.41800000000E+01 0.  1.
         -5    1    3    3    0  502  0.12900493013E+03  0.35258330242E+02  0.68804680011E+02  0.15045590132E+03  0.41800000000E+01 0.  1.
        -11    1    4    4    0    0 -0.32640002762E+02 -0.39724047039E+02  0.15196240346E+02  0.53612455774E+02  0.00000000000E+00 0.  1.
         11    1    4    4    0    0 -0.10425684301E+03 -0.80369333896E+02  0.23023418247E+03  0.26521029000E+03  0.00000000000E+00 0. -1.
</event>
<event>
 8    1  0.5951278E-006  0.2887328E+03  0.7561462E-02  0.1091013E+00
          1   -1    0    0  501    0  0.00000000000E+00  0.00000000000E+00  0.68176853946E+03  0.68176853946E+03  0.00000000000E+00 0. -1.
         -1   -1    0    0    0  501 -0.00000000000E+00 -0.00000000000E+00 -0.13569718276E+03  0.13569718276E+03  0.00000000000E+00 0.  1.
         23    2    1    2    0    0  0.12096481976E+03  0.24951935452E+03  0.18982995860E+03  0.35857320726E+03  0.12508771274E+03 0.  0.
         23    2    1    2    0    0 -0.12096481976E+03 -0.24951935452E+03  0.35624139809E+03  0.45889251496E+03  0.82352963914E+02 0.  0.
          5    1    3    3  502    0  0.13416229868E+03  0.25236215560E+03  0.16510952293E+03  0.33009817772E+03  0.41800000000E+01 0. -1.
         -5    1    3    3    0  502 -0.13197478919E+02 -0.28428010788E+01  0.24720435669E+02  0.28475029543E+02  0.41800000000E+01 0. -1.
        -11    1    4    4    0    0 -0.47588025882E+02 -0.11011607597E+03  0.91685969528E+02  0.15098505689E+03  0.00000000000E+00 0.  1.
         11    1    4    4    0    0 -0.73376793882E+02 -0.13940327855E+03  0.26455542857E+03  0.30790745807E+03  0.00000000000E+00 0. -1.
</event>
<event>
 8    1  0.5951278E-006  0.1447632E+03  0.7561462E-02  0.1207060E+00
         -1   -1    0    0    0  501 -0.00000000000E+00  0.00000000000E+00  0.25782409713E+02  0.25782409713E+02  0.00000000000E+00 0.  1.
          1   -1    0    0  501    0  0.00000000000E+00 -0.00000000000E+00 -0.98024200359E+03  0.98024200359E+03  0.00000000000E+00 0. -1.
         23    2    1    2    0    0 -0.80019295808E+02 -0.77337972412E+02 -0.37941468378E+03  0.41362722575E+03  0.12144023196E+03 0.  0.
         23    2    1    2    0    0  0.80019295808E+02  0.77337972412E+02 -0.57504491009E+03  0.59239718755E+03  0.88732911094E+02 0.  0.
          5    1    3    3  502    0  0.23447839460E+02 -0.87019701181E-01 -0.13583098126E+03  0.13790335970E+03  0.41800000000E+01 0. -1.
         -5    1    3    3    0  502 -0.10346713527E+03 -0.77250952711E+02 -0.24358370252E+03  0.27572386605E+03  0.41800000000E+01 0.  1.
        -11    1    4    4    0    0  0.37144711799E+02 -0.10647509629E+02 -0.96561022681E+02  0.10400543340E+03  0.00000000000E+00 0.  1.
         11    1    4    4    0    0  0.42874584009E+02  0.87985482041E+02 -0.47848388741E+03  0.48839175414E+03  0.00000000000E+00 0. -1.
</event>
<event>
 8    1  0.5951278E-006  0.9716357E+02  0.7561462E-02  0.1286376E+00
         -2   -1    0    0    0  501 -0.00000000000E+00  0.00000000000E+00  0.65314813633E+02  0.65314813633E+02  0.00000000000E+00 0.  1.
          2   -1    0    0  501    0  0.00000000000E+00 -0.00000000000E+00 -0.21443396010E+03  0.21443396010E+03  0.00000000000E+00 0. -1.
         23    2    1    2    0    0 -0.29735183259E+01 -0.31466849676E+02 -0.42204517529E+02  0.13574916965E+03  0.12509041258E+03 0.  0.
         23    2    1    2    0    0  0.29735183259E+01  0.31466849676E+02 -0.10691462894E+03  0.14399960409E+03  0.91138047250E+02 0.  0.
          5    1    3    3  502    0  0.54834298344E+02 -0.20144079533E+02  0.68663928002E+01  0.58967821439E+02  0.41800000000E+01 0. -1.
         -5    1    3    3    0  502 -0.57807816670E+02 -0.11322770143E+02 -0.49070910330E+02  0.76781348207E+02  0.41800000000E+01 0. -1.
        -11    1    4    4    0    0 -0.12493401063E+02 -0.19658389123E+02  0.12915164044E+01  0.23328209268E+02  0.00000000000E+00 0.  1.
         11    1    4    4    0    0  0.15466919388E+02  0.51125238799E+02 -0.10820614534E+03  0.12067139482E+03  0.00000000000E+00 0. -1.
</event>
<event>
 8    1  0.5951278E-006  0.1495542E+03  0.7561462E-02  0.1201022E+00
          2   -1    0    0  501    0  0.00000000000E+00  0.00000000000E+00  0.28913795970E+03  0.28913795970E+03  0.00000000000E+00 0.  1.
         -2   -1    0    0    0  501 -0.00000000000E+00 -0.00000000000E+00 -0.97227959603E+02  0.97227959603E+02  0.00000000000E+00 0. -1.
         23    2    1    2    0    0  0.12608661198E+03  0.17734748259E+02  0.10368877430E+03  0.20642615482E+03  0.12509212790E+03 0.  0.
         23    2    1    2    0    0 -0.12608661198E+03 -0.17734748259E+02  0.88221225797E+02  0.17993976448E+03  0.91558610419E+02 0.  0.
          5    1    3    3  502    0 -0.16177718703E+02 -0.18392795108E+02  0.38370990172E+02  0.45714535775E+02  0.41800000000E+01 0. -1.
         -5    1    3    3    0  502  0.14226433068E+03  0.36127543367E+02  0.65317784124E+02  0.16071161905E+03  0.41800000000E+01 0. -1.
        -11    1    4    4    0    0 -0.10673859508E+03 -0.13242221280E+02  0.10763614148E+03  0.15216446056E+03  0.00000000000E+00 0.  1.
         11    1    4    4    0    0 -0.19348016903E+02 -0.44925269789E+01 -0.19414915684E+02  0.27775303918E+02  0.00000000000E+00 0. -1.
</event>
<event>
 8    1  0.5951278E-006  0.1316348E+03  0.7561462E-02  0.1225050E+00
         -1   -1    0    0    0  501 -0.00000000000E+00  0.00000000000E+00  0.85324586458E+03  0.85324586458E+03  0.00000000000E+00 0.  1.
          1   -1    0    0  501    0  0.00000000000E+00 -0.00000000000E+00 -0.27613090096E+02  0.27613090096E+02  0.00000000000E+00 0. -1.
         23    2    1    2    0    0 -0.53578362256E+02  0.94295714950E+02  0.49930712707E+03  0.52603929943E+03  0.12508962643E+03 0.  0.
         23    2    1    2    0    0  0.53578362256E+02 -0.94295714950E+02  0.32632564741E+03  0.35481965525E+03  0.87442763161E+02 0.  0.
          5    1    3    3  502    0 -0.15942551349E+02  0.10907917697E+03  0.24750768528E+03  0.27097962740E+03  0.41800000000E+01 0. -1.
         -5    1    3    3    0  502 -0.37635810906E+02 -0.14783462015E+02  0.25179944179E+03  0.25505967203E+03  0.41800000000E+01 0. -1.
        -11    1    4    4    0    0  0.47173670834E+02 -0.54876883980E+02  0.91676870463E+02  0.11679673023E+03  0.00000000000E+00 0. -1.
         11    1    4    4    0    0  0.64046914211E+01 -0.39418830970E+02  0.23464877695E+03  0.23802292501E+03  0.00000000000E+00 0.  1.
</event>
<event>
 8    1  0.5951278E-006  0.1364769E+03  0.7561462E-02  0.1218150E+00
         -2   -1    0    0    0  501 -0.00000000000E+00  0.00000000000E+00  0.26881989202E+02  0.26881989202E+02  0.00000000000E+00 0.  1.
          2   -1    0    0  501    0  0.00000000000E+00 -0.00000000000E+00 -0.96754078262E+03  0.96754078262E+03  0.00000000000E+00 0. -1.
         23    2    1    2    0    0 -0.71358163509E+02  0.90963550149E+02 -0.42708106157E+03  0.45979600637E+03  0.12509108427E+03 0.  0.
         23    2    1    2    0    0  0.71358163509E+02 -0.90963550149E+02 -0.51357773185E+03  0.53462676545E+03  0.93259512835E+02 0.  0.
          5    1    3    3  502    0  0.30701103372E+01 -0.33604163603E+01 -0.22190403794E+03  0.22199007281E+03  0.41800000000E+01 0. -1.
         -5    1    3    3    0  502 -0.74428273846E+02  0.94323966510E+02 -0.20517702363E+03  0.23780593355E+03  0.41800000000E+01 0. -1.
        -11    1    4    4    0    0 -0.15184153238E+02 -0.47176393106E+02 -0.13456966382E+03  0.14340559612E+03  0.00000000000E+00 0.  1.
         11    1    4    4    0    0  0.86542316747E+02 -0.43787157044E+02 -0.37900806802E+03  0.39122116934E+03  0.00000000000E+00 0. -1.
</event>
<event>
 8    1  0.5951278E-006  0.1522289E+03  0.7561462E-02  0.1197761E+00
          1   -1    0    0  501    0  0.00000000000E+00  0.00000000000E+00  0.33286168436E+02  0.33286168436E+02  0.00000000000E+00 0. -1.
         -1   -1    0    0    0  501 -0.00000000000E+00 -0.00000000000E+00 -0.79298560397E+03  0.79298560397E+03  0.00000000000E+00 0.  1.
         23    2    1    2    0    0  0.10429457927E+03  0.34634660359E+02 -0.53513874680E+03  0.56044459268E+03  0.12509094359E+03 0.  0.
         23    2    1    2    0    0 -0.10429457927E+03 -0.34634660359E+02 -0.22456068873E+03  0.26582717973E+03  0.90330878413E+02 0.  0.
          5    1    3    3  502    0 -0.26296761794E+02  0.21152678480E+02 -0.85556962517E+02  0.92067484613E+02  0.41800000000E+01 0. -1.
         -5    1    3    3    0  502  0.13059134107E+03  0.13481981878E+02 -0.44958178428E+03  0.46837710806E+03  0.41800000000E+01 0. -1.
        -11    1    4    4    0    0 -0.10351268000E+03  0.93929698374E+00 -0.14024923944E+03  0.17431467627E+03  0.00000000000E+00 0.  1.
         11    1    4    4    0    0 -0.78189927222E+00 -0.35573957342E+02 -0.84311449291E+02  0.91512503458E+02  0.00000000000E+00 0. -1.
</event>
<event>
 8    1  0.5951278E-006  0.9833714E+02  0.7561462E-02  0.1283832E+00
         -1   -1    0    0    0  501 -0.00000000000E+00  0.00000000000E+00  0.75392894567E+03  0.75392894567E+03  0.00000000000E+00 0.  1.
          1   -1    0    0  501    0  0.00000000000E+00 -0.00000000000E+00 -0.29341303374E+02  0.29341303374E+02  0.00000000000E+00 0. -1.
         23    2    1    2    0    0 -0.23988972776E+02 -0.14339222470E+02  0.65203835158E+03  0.66451689040E+03  0.12509037363E+03 0.  0.
         23    2    1    2    0    0  0.23988972776E+02  0.14339222470E+02  0.72549290714E+02  0.11875335865E+03  0.89765675459E+02 0.  0.
          5    1    3    3  502    0  0.36576451779E+02 -0.42300115150E+02  0.20590627081E+03  0.21340571999E+03  0.41800000000E+01 0. -1.
         -5    1    3    3    0  502 -0.60565424555E+02  0.27960892681E+02  0.44613208077E+03  0.45111117041E+03  0.41800000000E+01 0. -1.
        -11    1    4    4    0    0 -0.24167352727E+02  0.57528461111E+01  0.64578930208E+02  0.69192444696E+02  0.00000000000E+00 0.  1.
         11    1    4    4    0    0  0.48156325503E+02  0.85863763586E+01  0.79703605057E+01  0.49560913950E+02  0.00000000000E+00 0. -1.
</event>
<event>
 8    1  0.5951278E-006  0.2230340E+03  0.7561462E-02  0.1131641E+00
          2   -1    0    0  501    0  0.00000000000E+00  0.00000000000E+00  0.96881071931E+02  0.96881071931E+02  0.00000000000E+00 0. -1.
         -2   -1    0    0    0  501 -0.00000000000E+00 -0.00000000000E+00 -0.58236301113E+03  0.58236301113E+03  0.00000000000E+00 0.  1.
         23    2    1    2    0    0 -0.17111691830E+03  0.12328802791E+03 -0.23715429422E+03  0.34113117976E+03  0.12508950788E+03 0.  0.
         23    2    1    2    0    0  0.17111691830E+03 -0.12328802791E+03 -0.24832764498E+03  0.33811290330E+03  0.90403421209E+02 0.  0.
          5    1    3    3  502    0 -0.10194327251E+02  0.32051695193E+02  0.71752072293E+01  0.34643779696E+02  0.41800000000E+01 0.  1.
         -5    1    3    3    0  502 -0.16092259105E+03  0.91236332714E+02 -0.24432950145E+03  0.30648740006E+03  0.41800000000E+01 0.  1.
        -11    1    4    4    0    0  0.13027540361E+03 -0.13191315635E+03 -0.18240076437E+03  0.26008229553E+03  0.00000000000E+00 0. -1.
         11    1    4    4    0    0  0.40841514691E+02  0.86251284477E+01 -0.65926880604E+02  0.78030607771E+02  0.00000000000E+00 0.  1.
</event>
<event>
 8    1  0.5951278E-006  0.2392345E+03  0.7561462E-02  0.1120304E+00
          1   -1    0    0  501    0  0.00000000000E+00  0.00000000000E+00  0.60941350400E+02  0.60941350400E+02  0.00000000000E+00 0. -1.
         -1   -1    0    0    0  501 -0.00000000000E+00 -0.00000000000E+00 -0.11946842514E+04  0.11946842514E+04  0.00000000000E+00 0.  1.
         23    2    1    2    0    0  0.56456246768E+02 -0.21868165507E+03 -0.32917881840E+03  0.41500389095E+03  0.11340441329E+03 0.  0.
         23    2    1    2    0    0 -0.56456246768E+02  0.21868165507E+03 -0.80456408262E+03  0.84062171087E+03  0.91173042512E+02 0.  0.
          5    1    3    3  502    0  0.59423992275E+02 -0.98573243909E+02 -0.86027761349E+02  0.14375723772E+03  0.41800000000E+01 0. -1.
         -5    1    3    3    0  502 -0.29677455069E+01 -0.12010841117E+03 -0.24315105705E+03  0.27124665324E+03  0.41800000000E+01 0.  1.
        -11    1    4    4    0    0 -0.93900498332E+01  0.18490717526E+03 -0.58939506281E+03  0.61779072230E+03  0.00000000000E+00 0. -1.
         11    1    4    4    0    0 -0.47066196934E+02  0.33774479817E+02 -0.21516901981E+03  0.22283098857E+03  0.00000000000E+00 0.  1.
</event>
<event>
 8    1  0.5951278E-006  0.1401486E+03  0.7561462E-02  0.1213129E+00
          1   -1    0    0  501    0  0.00000000000E+00  0.00000000000E+00  0.48588538483E+03  0.48588538483E+03  0.00000000000E+00 0. -1.
         -1   -1    0    0    0  501 -0.00000000000E+00 -0.00000000000E+00 -0.53686372275E+02  0.53686372275E+02  0.00000000000E+00 0.  1.
         23    2    1    2    0    0  0.11678840734E+03 -0.25285725094E+02  0.20765169371E+03  0.27026978369E+03  0.12509048761E+03 0.  0.
         23    2    1    2    0    0 -0.11678840734E+03  0.25285725094E+02  0.22454731885E+03  0.26930197342E+03  0.88448598109E+02 0.  0.
          5    1    3    3  502    0  0.94969148024E+01  0.33936323131E+02  0.86561965218E+01  0.36527627307E+02  0.41800000000E+01 0. -1.
         -5    1    3    3    0  502  0.10729149253E+03 -0.59222048225E+02  0.19899549719E+03  0.23374215638E+03  0.41800000000E+01 0. -1.
        -11    1    4    4    0    0 -0.41738038627E+02 -0.33219777665E+01  0.14314900054E+02  0.44249471954E+02  0.00000000000E+00 0.  1.
         11    1    4    4    0    0 -0.75050368709E+02  0.28607702861E+02  0.21023241879E+03  0.22505250147E+03  0.00000000000E+00 0. -1.
</event>
<event>
 8    1  0.5951278E-006  0.8905856E+02  0.7561462E-02  0.1305148E+00
         -2   -1    0    0    0  501 -0.00000000000E+00  0.00000000000E+00  0.12387974504E+03  0.12387974504E+03  0.00000000000E+00 0.  1.
          2   -1    0    0  501    0  0.00000000000E+00 -0.00000000000E+00 -0.27621150979E+03  0.27621150979E+03  0.00000000000E+00 0. -1.
         23    2    1    2    0    0  0.53510794591E+02 -0.57289875560E+02  0.57049257045E+02  0.15827361629E+03  0.12510149841E+03 0.  0.
         23    2    1    2    0    0 -0.53510794591E+02  0.57289875560E+02 -0.20938102179E+03  0.24181763854E+03  0.92140235737E+02 0.  0.
          5    1    3    3  502    0  0.32413085474E+02 -0.27371860973E+02  0.95766119526E+02  0.10482580280E+03  0.41800000000E+01 0.  1.
         -5    1    3    3    0  502  0.21097709117E+02 -0.29918014587E+02 -0.38716862481E+02  0.53447813493E+02  0.41800000000E+01 0.  1.
        -11    1    4    4    0    0 -0.36354189366E+02 -0.24980087349E+01 -0.18119944003E+02  0.40696431082E+02  0.00000000000E+00 0.  1.
         11    1    4    4    0    0 -0.17156605225E+02  0.59787884295E+02 -0.19126107779E+03  0.20112120746E+03  0.00000000000E+00 0. -1.
</event>
<event>
 8    1  0.5951278E-006  0.1179934E+03  0.7561462E-02  0.1246444E+00
          2   -1    0    0  501    0  0.00000000000E+00  0.00000000000E+00  0.53883186378E+03  0.53883186378E+03  0.00000000000E+00 0. -1.
         -2   -1    0    0    0  501 -0.00000000000E+00 -0.00000000000E+00 -0.39940689441E+02  0.39940689441E+02  0.00000000000E+00 0.  1.
         23    2    1    2    0    0  0.68470318353E+02 -0.33570561079E+01  0.13136688905E+03  0.19392346976E+03  0.12509835436E+03 0.  0.
         23    2    1    2    0    0 -0.68470318353E+02  0.33570561079E+01  0.36752428529E+03  0.38484908346E+03  0.91297658469E+02 0.  0.
          5    1    3    3  502    0  0.38131282224E+02  0.50775994727E+02  0.11194004126E+03  0.12876428683E+03  0.41800000000E+01 0.  1.
         -5    1    3    3    0  502  0.30339036129E+02 -0.54133050835E+02  0.19426847793E+02  0.65159182938E+02  0.41800000000E+01 0.  1.
        -11    1    4    4    0    0 -0.91846551712E+01 -0.37204036545E+02  0.18007671433E+03  0.18410899291E+03  0.00000000000E+00 0. -1.
         11    1    4    4    0    0 -0.59285663182E+02  0.40561092653E+02  0.18744757095E+03  0.20074009054E+03  0.00000000000E+00 0.  1.
</event>
<event>
 8    1  0.5951278E-006  0.1233440E+03  0.7561462E-02  0.1237680E+00
         -2   -1    0    0    0  501 -0.00000000000E+00  0.00000000000E+00  0.82545398517E+02  0.82545398517E+02  0.00000000000E+00 0.  1.
          2   -1    0    0  501    0  0.00000000000E+00 -0.00000000000E+00 -0.24997832143E+03  0.24997832143E+03  0.00000000000E+00 0. -1.
         23    2    1    2    0    0  0.86543520007E+02  0.32381387636E+02 -0.67993312804E+02  0.16972914011E+03  0.12508619147E+03 0.  0.
         23    2    1    2    0    0 -0.86543520007E+02 -0.32381387636E+02 -0.99439610106E+02  0.16279457983E+03  0.89863808309E+02 0.  0.
          5    1    3    3  502    0  0.10446356447E+03  0.51650833026E+02 -0.25173241058E+02  0.11929630891E+03  0.41800000000E+01 0. -1.
         -5    1    3    3    0  502 -0.17920044461E+02 -0.19269445389E+02 -0.42820071747E+02  0.50432831206E+02  0.41800000000E+01 0. -1.
        -11    1    4    4    0    0 -0.58096327938E+02  0.28319275978E+01 -0.53861559669E+01  0.58414157615E+02  0.00000000000E+00 0.  1.
         11    1    4    4    0    0 -0.28447192068E+02 -0.35213315234E+02 -0.94053454139E+02  0.10438042221E+03  0.00000000000E+00 0. -1.
</event>
<event>
 8    1  0.5951278E-006  0.1657524E+03  0.7561462E-02  0.1182351E+00
         -1   -1    0    0    0  501 -0.00000000000E+00  0.00000000000E+00  0.28171337221E+02  0.28171337221E+02  0.00000000000E+00 0.  1.
          1   -1    0    0  501    0  0.00000000000E+00 -0.00000000000E+00 -0.11729980073E+04  0.11729980073E+04  0.00000000000E+00 0. -1.
         23    2    1    2    0    0  0.27479333322E+02  0.13585264559E+03 -0.46141978848E+03  0.49777728893E+03  0.12515172032E+03 0.  0.
         23    2    1    2    0    0 -0.27479333322E+02 -0.13585264559E+03 -0.68340688156E+03  0.70339205556E+03  0.92219103100E+02 0.  0.
          5    1    3    3  502    0  0.56220410929E+02  0.13381383965E+03 -0.43451352333E+03  0.45813355329E+03  0.41800000000E+01 0.  1.
         -5    1    3    3    0  502 -0.28741077607E+02  0.20388059401E+01 -0.26906265150E+02  0.39643735646E+02  0.41800000000E+01 0.  1.
        -11    1    4    4    0    0 -0.13146700980E+02  0.61127729187E+01 -0.19353225015E+02  0.24181585099E+02  0.00000000000E+00 0.  1.
         11    1    4    4    0    0 -0.14332632342E+02 -0.14196541851E+03 -0.66405365655E+03  0.67921047046E+03  0.00000000000E+00 0. -1.
</event>
<event>
 8    1  0.5951278E-006  0.1015513E+03  0.7561462E-02  0.1277067E+00
         -3   -1    0    0    0  501 -0.00000000000E+00  0.00000000000E+00  0.27607656832E+02  0.27607656832E+02  0.00000000000E+00 0.  1.
          3   -1    0    0  501    0  0.00000000000E+00 -0.00000000000E+00 -0.44530660159E+03  0.44530660159E+03  0.00000000000E+00 0. -1.
         23    2    1    2    0    0  0.45111708700E+01  0.19077740049E+01 -0.17869043829E+03  0.21817508742E+03  0.12508439459E+03 0.  0.
         23    2    1    2    0    0 -0.45111708700E+01 -0.19077740049E+01 -0.23900850646E+03  0.25473917100E+03  0.87994254445E+02 0.  0.
          5    1    3    3  502    0 -0.17027450407E+02  0.59752997227E+02 -0.10367578266E+03  0.12094004736E+03  0.41800000000E+01 0. -1.
         -5    1    3    3    0  502  0.21538621277E+02 -0.57845223222E+02 -0.75014655627E+02  0.97235040057E+02  0.41800000000E+01 0. -1.
        -11    1    4    4    0    0 -0.39859095097E+02  0.10973712356E+02 -0.18053524333E+03  0.18520837970E+03  0.00000000000E+00 0. -1.
         11    1    4    4    0    0  0.35347924227E+02 -0.12881486361E+02 -0.58473263132E+02  0.69530791304E+02  0.00000000000E+00 0.  1.
</event>
<event>
 8    1  0.5951278E-006  0.1832459E+03  0.7561462E-02  0.1164698E+00
         -1   -1    0    0    0  501 -0.00000000000E+00  0.00000000000E+00  0.44215323560E+02  0.44215323560E+02  0.00000000000E+00 0.  1.
          1   -1    0    0  501    0  0.00000000000E+00 -0.00000000000E+00 -0.97901617974E+03  0.97901617974E+03  0.00000000000E+00 0. -1.
         23    2    1    2    0    0  0.10754414797E+02  0.17635271809E+03 -0.50770203683E+03  0.55192951407E+03  0.12509553026E+03 0.  0.
         23    2    1    2    0    0 -0.10754414797E+02 -0.17635271809E+03 -0.42709881935E+03  0.47130198923E+03  0.92174969182E+02 0.  0.
          5    1    3    3  502    0  0.31264289355E+02  0.16022614201E+03 -0.29155272180E+03  0.33417111539E+03  0.41800000000E+01 0.  1.
         -5    1    3    3    0  502 -0.20509874558E+02  0.16126576080E+02 -0.21614931502E+03  0.21775839868E+03  0.41800000000E+01 0.  1.
        -11    1    4    4    0    0 -0.10853181718E+02 -0.14201233599E+03 -0.22488298713E+03  0.26619100854E+03  0.00000000000E+00 0.  1.
         11    1    4    4    0    0  0.98766920964E-01 -0.34340382094E+02 -0.20221583222E+03  0.20511098069E+03  0.00000000000E+00 0. -1.
</event>
<event>
 8    1  0.5951278E-006  0.1728316E+03  0.7561462E-02  0.1174927E+00
          3   -1    0    0  501    0  0.00000000000E+00  0.00000000000E+00  0.71978114188E+03  0.71978114188E+03  0.00000000000E+00 0. -1.
         -3   -1    0    0    0  501 -0.00000000000E+00 -0.00000000000E+00 -0.58458019320E+02  0.58458019320E+02  0.00000000000E+00 0.  1.
         23    2    1    2    0    0 -0.30303521650E+02  0.15300261473E+03  0.17909120827E+03  0.26841915751E+03  0.12508828762E+03 0.  0.
         23    2    1    2    0    0  0.30303521650E+02 -0.15300261473E+03  0.48223191429E+03  0.50982000369E+03  0.55142664669E+02 0.  0.
          5    1    3    3  502    0 -0.66135675610E+02  0.97131378047E+02  0.59978184235E+02  0.13199729987E+03  0.41800000000E+01 0. -1.
         -5    1    3    3    0  502  0.35832153960E+02  0.55871236681E+02  0.11911302404E+03  0.13642185764E+03  0.41800000000E+01 0. -1.
        -11    1    4    4    0    0  0.19519610450E+02 -0.19344500365E+02  0.13122906246E+03  0.13407569400E+03  0.00000000000E+00 0. -1.
         11    1    4    4    0    0  0.10783911200E+02 -0.13365811436E+03  0.35100285183E+03  0.37574430969E+03  0.00000000000E+00 0.  1.
</event>
<event>
 7    1  0.5951278E-006  0.2873740E+03  0.7561462E-02  0.1091728E+00
          2   -1    0    0  501    0  0.00000000000E+00  0.00000000000E+00  0.22965951478E+03  0.22965951478E+03  0.00000000000E+00 0. -1.
         -2   -1    0    0    0  501 -0.00000000000E+00 -0.00000000000E+00 -0.51131392797E+03  0.51131392797E+03  0.00000000000E+00 0.  1.
         23    2    1    2    0    0 -0.20423048216E+03  0.17632123799E+03 -0.43453029371E+02  0.28828576085E+03  0.91767343533E+02 0.  0.
          5    1    1    2  502    0  0.19220762868E+03 -0.85317741444E+02 -0.28126113395E+03  0.35120960608E+03  0.41800000000E+01 0. -1.
         -5    1    1    2    0  502  0.12022853477E+02 -0.91003496546E+02  0.43059750135E+02  0.10147807581E+03  0.41800000000E+01 0.  1.
        -11    1    3    3    0    0 -0.98243794596E+02  0.59804217867E+02  0.23067480085E+02  0.11730514178E+03  0.00000000000E+00 0. -1.
         11    1    3    3    0    0 -0.10598668756E+03  0.11651702012E+03 -0.66520509455E+02  0.17098061907E+03  0.00000000000E+00 0.  1.
</event>
<event>
 7    1  0.5951278E-006  0.1522579E+03  0.7561462E-02  0.1197726E+00
         -1   -1    0    0    0  501 -0.00000000000E+00  0.00000000000E+00  0.32415530435E+02  0.32415530435E+02  0.00000000000E+00 0.  1.
          1   -1    0    0  501    0  0.00000000000E+00 -0.00000000000E+00 -0.81945187546E+03  0.81945187546E+03  0.00000000000E+00 0. -1.
         23    2    1    2    0    0  0.74232477178E+02 -0.79768869827E+02 -0.27503012085E+03  0.30964170087E+03  0.91448795942E+02 0.  0.
          5    1    1    2  502    0 -0.11107793679E+03  0.77063486088E+02 -0.45038545446E+03  0.47025697116E+03  0.41800000000E+01 0. -1.
         -5    1    1    2    0  502  0.36845459613E+02  0.27053837384E+01 -0.61620769710E+02  0.71968733871E+02  0.41800000000E+01 0.  1.
        -11    1    3    3    0    0  0.65685269168E+02 -0.94476796892E+02 -0.26718380058E+03  0.29090823816E+03  0.00000000000E+00 0.  1.
         11    1    3    3    0    0  0.85472080105E+01  0.14707927065E+02 -0.78463202763E+01  0.18733462713E+02  0.00000000000E+00 0. -1.
</event>
<event>
 8    1  0.5951278E-006  0.7874757E+02  0.7561462E-02  0.1332644E+00
         -1   -1    0    0    0  501 -0.00000000000E+00  0.00000000000E+00  0.60084209794E+02  0.60084209794E+02  0.00000000000E+00 0.  1.
          1   -1    0    0  501    0  0.00000000000E+00 -0.00000000000E+00 -0.24384179720E+03  0.24384179720E+03  0.00000000000E+00 0. -1.
         23    2    1    2    0    0  0.51168993332E+02  0.12611748303E+02 -0.76086904619E+02  0.15561031699E+03  0.12509209258E+03 0.  0.
         23    2    1    2    0    0 -0.51168993332E+02 -0.12611748303E+02 -0.10767068278E+03  0.14831569000E+03  0.87334104996E+02 0.  0.
          5    1    3    3  502    0  0.76321125131E+02  0.16276078732E+02 -0.95467406839E+02  0.12337472613E+03  0.41800000000E+01 0. -1.
         -5    1    3    3    0  502 -0.25152131799E+02 -0.36643304285E+01  0.19380502220E+02  0.32235590856E+02  0.41800000000E+01 0. -1.
        -11    1    4    4    0    0 -0.19128588960E+02  0.68075339305E-01 -0.11196832613E+03  0.11359055245E+03  0.00000000000E+00 0. -1.
         11    1    4    4    0    0 -0.32040404372E+02 -0.12679823642E+02  0.42976433409E+01  0.34725137555E+02  0.00000000000E+00 0.  1.
</event>
<event>
 8    1  0.5951278E-006  0.9545356E+02  0.7561462E-02  0.1290158E+00
         -2   -1    0    0    0  501 -0.00000000000E+00  0.00000000000E+00  0.27735646335E+02  0.27735646335E+02  0.00000000000E+00 0.  1.
          2   -1    0    0  501    0  0.00000000000E+00 -0.00000000000E+00 -0.47697364785E+03  0.47697364785E+03  0.00000000000E+00 0. -1.
         23    2    1    2    0    0 -0.16475800984E+02 -0.29022272591E+02 -0.22872071298E+03  0.26281971056E+03  0.12508913377E+03 0.  0.
         23    2    1    2    0    0  0.16475800984E+02  0.29022272591E+02 -0.22051728854E+03  0.24188958363E+03  0.93642681509E+02 0.  0.
          5    1    3    3  502    0  0.43825494298E+02 -0.15091398885E+01 -0.30001678973E+02  0.53296572074E+02  0.41800000000E+01 0.  1.
         -5    1    3    3    0  502 -0.60301295282E+02 -0.27513132702E+02 -0.19871903400E+03  0.20952313848E+03  0.41800000000E+01 0.  1.
        -11    1    4    4    0    0 -0.22889201845E+02  0.33767246149E+02 -0.40230714240E+02  0.57294439886E+02  0.00000000000E+00 0.  1.
         11    1    4    4    0    0  0.39365002829E+02 -0.47449735582E+01 -0.18028657430E+03  0.18459514375E+03  0.00000000000E+00 0. -1.
</event>
<event>
 8    1  0.5951278E-006  0.1668726E+03  0.7561462E-02  0.1181149E+00
          1   -1    0    0  501    0  0.00000000000E+00  0.00000000000E+00  0.22367231924E+03  0.22367231924E+03  0.00000000000E+00 0. -1.
         -1   -1    0    0    0  501 -0.00000000000E+00 -0.00000000000E+00 -0.18182259015E+03  0.18182259015E+03  0.00000000000E+00 0.  1.
         23    2    1    2    0    0 -0.13523994774E+03 -0.23044244755E+01 -0.80999466776E+02  0.20125536862E+03  0.12509059094E+03 0.  0.
         23    2    1    2    0    0  0.13523994774E+03  0.23044244755E+01  0.12284919586E+03  0.20423954077E+03  0.91250815096E+02 0.  0.
          5    1    3    3  502    0 -0.19322503650E+02  0.46890829129E+02  0.10529072156E+01  0.50898821375E+02  0.41800000000E+01 0.  1.
         -5    1    3    3    0  502 -0.11591744409E+03 -0.49195253605E+02 -0.82052373991E+02  0.15035654724E+03  0.41800000000E+01 0.  1.
        -11    1    4    4    0    0  0.58817386841E+02 -0.38433223139E+02  0.83469259383E+02  0.10910414702E+03  0.00000000000E+00 0. -1.
         11    1    4    4    0    0  0.76422560895E+02  0.40737647615E+02  0.39379936478E+02  0.95135393750E+02  0.00000000000E+00 0.  1.
</event>
<event>
 8    1  0.5951278E-006  0.1276995E+03  0.7561462E-02  0.1230910E+00
         -1   -1    0    0    0  501 -0.00000000000E+00  0.00000000000E+00  0.89137189062E+02  0.89137189062E+02  0.00000000000E+00 0.  1.
          1   -1    0    0  501    0  0.00000000000E+00 -0.00000000000E+00 -0.22145270403E+03  0.22145270403E+03  0.00000000000E+00 0. -1.
         23    2    1    2    0    0 -0.59529009178E+02 -0.61373630939E+02 -0.97414451939E+02  0.18013055072E+03  0.12508802639E+03 0.  0.
         23    2    1    2    0    0  0.59529009178E+02  0.61373630939E+02 -0.34901063030E+02  0.13045934238E+03  0.92147329340E+02 0.  0.
          5    1    3    3  502    0 -0.39143418300E+00  0.24775146523E+02 -0.66485663404E+02  0.71075853454E+02  0.41800000000E+01 0.  1.
         -5    1    3    3    0  502 -0.59137574995E+02 -0.86148777463E+02 -0.30928788534E+02  0.10905469726E+03  0.41800000000E+01 0.  1.
        -11    1    4    4    0    0 -0.23917916002E+02  0.25200466685E+02 -0.88928311627E+01  0.35863807287E+02  0.00000000000E+00 0. -1.
         11    1    4    4    0    0  0.83446925180E+02  0.36173164255E+02 -0.26008231867E+02  0.94595535091E+02  0.00000000000E+00 0.  1.
</event>
<event>
 8    1  0.5951278E-006  0.2110580E+03  0.7561462E-02  0.1140731E+00
          2   -1    0    0  501    0  0.00000000000E+00  0.00000000000E+00  0.76642422799E+03  0.76642422799E+03  0.00000000000E+00 0. -1.
         -2   -1    0    0    0  501 -0.00000000000E+00 -0.00000000000E+00 -0.61189757749E+02  0.61189757749E+02  0.00000000000E+00 0.  1.
         23    2    1    2    0    0  0.13078831600E+02  0.18568694999E+03  0.33785632052E+03  0.40551837626E+03  0.12509021120E+03 0.  0.
         23    2    1    2    0    0 -0.13078831600E+02 -0.18568694999E+03  0.36737814973E+03  0.42209560948E+03  0.92451605790E+02 0.  0.
          5    1    3    3  502    0  0.55363594428E+02  0.15835832566E+03  0.29445303506E+03  0.33891377834E+03  0.41800000000E+01 0. -1.
         -5    1    3    3    0  502 -0.42284762828E+02  0.27328624336E+02  0.43403285454E+02  0.66604597917E+02  0.41800000000E+01 0. -1.
        -11    1    4    4    0    0  0.33185724692E+02 -0.46617081653E+02  0.68813053387E+02  0.89496820847E+02  0.00000000000E+00 0.  1.
         11    1    4    4    0    0 -0.46264556292E+02 -0.13906986834E+03  0.29856509634E+03  0.33259878864E+03  0.00000000000E+00 0. -1.
</event>
<event>
 8    1  0.5951278E-006  0.1568922E+03  0.7561462E-02  0.1192251E+00
         -1   -1    0    0    0  501 -0.00000000000E+00  0.00000000000E+00  0.22077324145E+02  0.22077324145E+02  0.00000000000E+00 0.  1.
          1   -1    0    0  501    0  0.00000000000E+00 -0.00000000000E+00 -0.16430852575E+04  0.16430852575E+04  0.00000000000E+00 0. -1.
         23    2    1    2    0    0 -0.25314459170E+02  0.14728083992E+03 -0.10534898908E+04  0.10713637729E+04  0.12508763425E+03 0.  0.
         23    2    1    2    0    0  0.25314459170E+02 -0.14728083992E+03 -0.56751804256E+03  0.59379880874E+03  0.90486623185E+02 0.  0.
          5    1    3    3  502    0  0.86590905972E+01  0.49932633980E+02 -0.98843437600E+02  0.11115640037E+03  0.41800000000E+01 0. -1.
         -5    1    3    3    0  502 -0.33973549767E+02  0.97348205943E+02 -0.95464645323E+03  0.96020737257E+03  0.41800000000E+01 0. -1.
        -11    1    4    4    0    0  0.34885765650E+02 -0.44626767964E+02 -0.98892710338E+02  0.11396636882E+03  0.00000000000E+00 0.  1.
         11    1    4    4    0    0 -0.95713064803E+01 -0.10265407196E+03 -0.46862533223E+03  0.47983243992E+03  0.00000000000E+00 0. -1.
</event>
<event>
 7    1  0.5951278E-006  0.1527782E+03  0.7561462E-02  0.1197100E+00
          2   -1    0    0  501    0  0.00000000000E+00  0.00000000000E+00  0.69537820660E+03  0.69537820660E+03  0.00000000000E+00 0. -1.
         -2   -1    0    0    0  501 -0.00000000000E+00 -0.00000000000E+00 -0.74767944144E+02  0.74767944144E+02  0.00000000000E+00 0.  1.
         23    2    1    2    0    0 -0.59210559760E+02  0.29604907845E+02  0.55467920682E+03  0.56793653214E+03  0.10247214795E+03 0.  0.
          5    1    1    2  502    0  0.22990406379E+02  0.72537399965E+02  0.18346888432E+01  0.76230385427E+02  0.41800000000E+01 0. -1.
         -5    1    1    2    0  502  0.36220153380E+02 -0.10214230781E+03  0.64096366790E+02  0.12597923318E+03  0.41800000000E+01 0.  1.
        -11    1    3    3    0    0  0.22992082428E+02 -0.14917964598E+02  0.96463974402E+02  0.10028200177E+03  0.00000000000E+00 0.  1.
         11    1    3    3    0    0 -0.82202642188E+02  0.44522872443E+02  0.45821523242E+03  0.46765453037E+03  0.00000000000E+00 0. -1.
</event>
<event>
 8    1  0.5951278E-006  0.1426882E+03  0.7561462E-02  0.1209757E+00
          2   -1    0    0  501    0  0.00000000000E+00  0.00000000000E+00  0.32575008674E+02  0.32575008674E+02  0.00000000000E+00 0. -1.
         -2   -1    0    0    0  501 -0.00000000000E+00 -0.00000000000E+00 -0.72543110000E+03  0.72543110000E+03  0.00000000000E+00 0.  1.
         23    2    1    2    0    0  0.46074966499E+02  0.94789548070E+02 -0.44299056409E+03  0.47222513954E+03  0.12509189253E+03 0.  0.
         23    2    1    2    0    0 -0.46074966499E+02 -0.94789548070E+02 -0.24986552724E+03  0.28578096914E+03  0.90166621641E+02 0.  0.
          5    1    3    3  502    0  0.39946401511E+02 -0.17097596649E+02 -0.67806488981E+02  0.80642638553E+02  0.41800000000E+01 0.  1.
         -5    1    3    3    0  502  0.61285649875E+01  0.11188714472E+03 -0.37518407511E+03  0.39158250099E+03  0.41800000000E+01 0.  1.
        -11    1    4    4    0    0 -0.52867013833E+02 -0.23289802171E+02 -0.16377578770E+03  0.17366589957E+03  0.00000000000E+00 0.  1.
         11    1    4    4    0    0  0.67920473345E+01 -0.71499745899E+02 -0.86089739544E+02  0.11211506957E+03  0.00000000000E+00 0. -1.
</event>
<event>
 8    1  0.5951278E-006  0.8328512E+02  0.7561462E-02  0.1319979E+00
          2   -1    0    0  501    0  0.00000000000E+00  0.00000000000E+00  0.29578120212E+03  0.29578120212E+03  0.00000000000E+00 0. -1.
         -2   -1    0    0    0  501 -0.00000000000E+00 -0.00000000000E+00 -0.42544822384E+02  0.42544822384E+02  0.00000000000E+00 0.  1.
         23    2    1    2    0    0 -0.29049364806E+02 -0.15917758369E+02  0.12850321642E+03  0.18236683153E+03  0.12508934402E+03 0.  0.
         23    2    1    2    0    0  0.29049364806E+02  0.15917758369E+02  0.12473316332E+03  0.15595919297E+03  0.87565216917E+02 0.  0.
          5    1    3    3  502    0  0.34468849238E+02 -0.18056922429E+02  0.10891234416E+03  0.11573039845E+03  0.41800000000E+01 0.  1.
         -5    1    3    3    0  502 -0.63518214044E+02  0.21391640601E+01  0.19590872260E+02  0.66636433084E+02  0.41800000000E+01 0.  1.
        -11    1    4    4    0    0  0.42793407739E+02  0.10736540865E+00  0.16737328198E+02  0.45950249493E+02  0.00000000000E+00 0.  1.
         11    1    4    4    0    0 -0.13744042933E+02  0.15810392961E+02  0.10799583512E+03  0.11000894348E+03  0.00000000000E+00 0. -1.
</event>
<event>
 8    1  0.5951278E-006  0.9377523E+02  0.7561462E-02  0.1293959E+00
          2   -1    0    0  501    0  0.00000000000E+00  0.00000000000E+00  0.68331044076E+03  0.68331044076E+03  0.00000000000E+00 0. -1.
         -2   -1    0    0    0  501 -0.00000000000E+00 -0.00000000000E+00 -0.19671830032E+02  0.19671830032E+02  0.00000000000E+00 0.  1.
         23    2    1    2    0    0 -0.28737835561E+02  0.32527680413E+02  0.44390721999E+03  0.46323286311E+03  0.12508857789E+03 0.  0.
         23    2    1    2    0    0  0.28737835561E+02 -0.32527680413E+02  0.21973139074E+03  0.23974940768E+03  0.85521817237E+02 0.  0.
          5    1    3    3  502    0  0.18636704264E+02  0.39277566007E+02  0.49923213994E+02  0.66331392513E+02  0.41800000000E+01 0.  1.
         -5    1    3    3    0  502 -0.47374539825E+02 -0.67498855940E+01  0.39398400600E+03  0.39690147060E+03  0.41800000000E+01 0.  1.
        -11    1    4    4    0    0 -0.22570168841E+02 -0.38045107138E+02  0.10585228800E+03  0.11472379689E+03  0.00000000000E+00 0.  1.
         11    1    4    4    0    0  0.51308004402E+02  0.55174267248E+01  0.11387910274E+03  0.12502561079E+03  0.00000000000E+00 0. -1.
</event>
<event>
 8    1  0.5951278E-006  0.9168330E+02  0.7561462E-02  0.1298826E+00
         -1   -1    0    0    0  501 -0.00000000000E+00  0.00000000000E+00  0.12271733943E+03  0.12271733943E+03  0.00000000000E+00 0.  1.
          1   -1    0    0  501    0  0.00000000000E+00 -0.00000000000E+00 -0.13257879746E+03  0.13257879746E+03  0.00000000000E+00 0. -1.
         23    2    1    2    0    0  0.63590235563E+02 -0.20721331335E+02  0.28088238577E+00  0.14184332185E+03  0.12508540054E+03 0.  0.
         23    2    1    2    0    0 -0.63590235563E+02  0.20721331335E+02 -0.10142340412E+02  0.11345281503E+03  0.91080088597E+02 0.  0.
          5    1    3    3  502    0  0.43799589577E+02 -0.44665893411E+02 -0.51619206917E+02  0.81212443653E+02  0.41800000000E+01 0. -1.
         -5    1    3    3    0  502  0.19790645986E+02  0.23944562076E+02  0.51900089303E+02  0.60630878199E+02  0.41800000000E+01 0. -1.
        -11    1    4    4    0    0 -0.70486358643E+02  0.30955470884E+02 -0.35860787443E+02  0.84926815603E+02  0.00000000000E+00 0. -1.
         11    1    4    4    0    0  0.68961230801E+01 -0.10234139549E+02  0.25718447031E+02  0.28525999431E+02  0.00000000000E+00 0.  1.
</event>
<event>
 8    1  0.5951278E-006  0.1647570E+03  0.7561462E-02  0.1183428E+00
          2   -1    0    0  501    0  0.00000000000E+00  0.00000000000E+00  0.11266283190E+03  0.11266283190E+03  0.00000000000E+00 0. -1.
         -2   -1    0    0    0  501 -0.00000000000E+00 -0.00000000000E+00 -0.33424865056E+03  0.33424865056E+03  0.00000000000E+00 0.  1.
         23    2    1    2    0    0 -0.10071602584E+02 -0.12898949725E+03 -0.22478038316E+03  0.28794979737E+03  0.12509651303E+03 0.  0.
         23    2    1    2    0    0  0.10071602584E+02  0.12898949725E+03  0.31945644928E+01  0.15896168509E+03  0.92297803359E+02 0.  0.
          5    1    3    3  502    0  0.47378638054E+02 -0.10865307735E+03 -0.15579753615E+03  0.19580748513E+03  0.41800000000E+01 0.  1.
         -5    1    3    3    0  502 -0.57450240637E+02 -0.20336419901E+02 -0.68982847013E+02  0.92142312244E+02  0.41800000000E+01 0.  1.
        -11    1    4    4    0    0 -0.21885349822E+02  0.59237838497E+01  0.20593837401E+02  0.30629493807E+02  0.00000000000E+00 0. -1.
         11    1    4    4    0    0  0.31956952406E+02  0.12306571340E+03 -0.17399272908E+02  0.12833219128E+03  0.00000000000E+00 0.  1.
</event>
<event>
 8    1  0.5951278E-006  0.1207431E+03  0.7561462E-02  0.1241876E+00
         -2   -1    0    0    0  501 -0.00000000000E+00  0.00000000000E+00  0.31834126459E+03  0.31834126459E+03  0.00000000000E+00 0.  1.
          2   -1    0    0  501    0  0.00000000000E+00 -0.00000000000E+00 -0.54559859272E+02  0.54559859272E+02  0.00000000000E+00 0. -1.
         23    2    1    2    0    0  0.73782439381E+02  0.10654468588E+01  0.16242226440E+03  0.21790467409E+03  0.12512582259E+03 0.  0.
         23    2    1    2    0    0 -0.73782439381E+02 -0.10654468588E+01  0.10135914091E+03  0.15499644976E+03  0.91133091988E+02 0.  0.
          5    1    3    3  502    0  0.10850650378E+03  0.67210962579E+01  0.11070382274E+03  0.15521482940E+03  0.41800000000E+01 0.  1.
         -5    1    3    3    0  502 -0.34724064403E+02 -0.56556493992E+01  0.51718441667E+02  0.62689844690E+02  0.41800000000E+01 0.  1.
        -11    1    4    4    0    0  0.11717568659E+02 -0.10245124062E+01 -0.94131955463E+01  0.15065168148E+02  0.00000000000E+00 0. -1.
         11    1    4    4    0    0 -0.85500008040E+02 -0.40934452561E-01  0.11077233646E+03  0.13993128162E+03  0.00000000000E+00 0.  1.
</event>
<event>
 8    1  0.5951278E-006  0.9011274E+02  0.7561462E-02  0.1302579E+00
          2   -1    0    0  501    0  0.00000000000E+00  0.00000000000E+00  0.11941402956E+03  0.11941402956E+03  0.00000000000E+00 0.  1.
         -2   -1    0    0    0  501 -0.00000000000E+00 -0.00000000000E+00 -0.12912232564E+03  0.12912232564E+03  0.00000000000E+00 0. -1.
         23    2    1    2    0    0  0.59682773433E+02  0.35893183964E+02 -0.19223458473E+02  0.14445562013E+03  0.12509009047E+03 0.  0.
         23    2    1    2    0    0 -0.59682773433E+02 -0.35893183964E+02  0.95151623928E+01  0.10408073506E+03  0.76758758426E+02 0.  0.
          5    1    3    3  502    0  0.32474697773E+02  0.16670779656E+01 -0.70012624667E+02  0.77308635722E+02  0.41800000000E+01 0.  1.
         -5    1    3    3    0  502  0.27208075660E+02  0.34226105998E+02  0.50789166194E+02  0.67146984412E+02  0.41800000000E+01 0.  1.
        -11    1    4    4    0    0  0.17942322602E+02 -0.14305124497E+02  0.42549094035E+01  0.23338118631E+02  0.00000000000E+00 0. -1.
         11    1    4    4    0    0 -0.77625096035E+02 -0.21588059467E+02  0.52602529893E+01  0.80742616427E+02  0.00000000000E+00 0.  1.
</event>
<event>
 8    1  0.5951278E-006  0.1065692E+03  0.7561462E-02  0.1267058E+00
         -2   -1    0    0    0  501 -0.00000000000E+00  0.00000000000E+00  0.16224983261E+03  0.16224983261E+03  0.00000000000E+00 0.  1.
          2   -1    0    0  501    0  0.00000000000E+00 -0.00000000000E+00 -0.10366585297E+03  0.10366585297E+03  0.00000000000E+00 0. -1.
         23    2    1    2    0    0  0.25626849558E+02  0.37079471851E+02  0.87652765775E+02  0.15925591599E+03  0.12509123383E+03 0.  0.
         23    2    1    2    0    0 -0.25626849558E+02 -0.37079471851E+02 -0.29068786131E+02  0.10665976958E+03  0.92193760471E+02 0.  0.
          5    1    3    3  502    0 -0.48166488569E+02 -0.34885976604E+01  0.35992477737E+02  0.60374761187E+02  0.41800000000E+01 0.  1.
         -5    1    3    3    0  502  0.73793338127E+02  0.40568069511E+02  0.51660288038E+02  0.98881154807E+02  0.41800000000E+01 0.  1.
        -11    1    4    4    0    0 -0.36465850285E+01 -0.53054535428E+02  0.14671651727E+02  0.55166463329E+02  0.00000000000E+00 0.  1.
         11    1    4    4    0    0 -0.21980264529E+02  0.15975063578E+02 -0.43740437858E+02  0.51493306255E+02  0.00000000000E+00 0. -1.
</event>
<event>
 8    1  0.5951278E-006  0.1267477E+03  0.7561462E-02  0.1232363E+00
          2   -1    0    0  501    0  0.00000000000E+00  0.00000000000E+00  0.51849725700E+03  0.51849725700E+03  0.00000000000E+00 0.  1.
         -2   -1    0    0    0  501 -0.00000000000E+00 -0.00000000000E+00 -0.41647828415E+02  0.41647828415E+02  0.00000000000E+00 0. -1.
         23    2    1    2    0    0  0.73612107367E+02  0.34747397977E+02  0.15819562890E+03  0.21748333902E+03  0.12508805590E+03 0.  0.
         23    2    1    2    0    0 -0.73612107367E+02 -0.34747397977E+02  0.31865379969E+03  0.34266174640E+03  0.96180582113E+02 0.  0.
          5    1    3    3  502    0 -0.34560669988E+02  0.23833593219E+01  0.25603769397E+02  0.43279853500E+02  0.41800000000E+01 0. -1.
         -5    1    3    3    0  502  0.10817277735E+03  0.32364038655E+02  0.13259185950E+03  0.17420348552E+03  0.41800000000E+01 0. -1.
        -11    1    4    4    0    0 -0.38598500138E+02 -0.53440702373E+02  0.95732649262E+02  0.11623464637E+03  0.00000000000E+00 0. -1.
         11    1    4    4    0    0 -0.35013607229E+02  0.18693304397E+02  0.22292115042E+03  0.22642710003E+03  0.00000000000E+00 0.  1.
</event>
<event>
 8    1  0.5951278E-006  0.1060429E+03  0.7561462E-02  0.1268078E+00
          2   -1    0    0  501    0  0.00000000000E+00  0.00000000000E+00  0.40252275069E+02  0.40252275069E+02  0.00000000000E+00 0. -1.
         -2   -1    0    0    0  501 -0.00000000000E+00 -0.00000000000E+00 -0.40382093619E+03  0.40382093619E+03  0.00000000000E+00 0.  1.
         23    2    1    2    0    0 -0.18030169579E+01  0.41624657680E+02 -0.29652757080E+03  0.32451961648E+03  0.12509403759E+03 0.  0.
         23    2    1    2    0    0  0.18030169579E+01 -0.41624657680E+02 -0.67041090313E+02  0.11955359477E+03  0.89792489858E+02 0.  0.
          5    1    3    3  502    0 -0.39823745490E+01 -0.44839514169E+02 -0.97606642264E+02  0.10756844496E+03  0.41800000000E+01 0.  1.
         -5    1    3    3    0  502  0.21793575911E+01  0.86464171849E+02 -0.19892092854E+03  0.21695117152E+03  0.41800000000E+01 0.  1.
        -11    1    4    4    0    0  0.35153891175E+02 -0.18747102009E+02 -0.68322560559E+02  0.79089962573E+02  0.00000000000E+00 0.  1.
         11    1    4    4    0    0 -0.33350874217E+02 -0.22877555670E+02  0.12814702467E+01  0.40463632196E+02  0.00000000000E+00 0. -1.
</event>
<event>
 8    1  0.5951278E-006  0.1669030E+03  0.7561462E-02  0.1181117E+00
          2   -1    0    0  501    0  0.00000000000E+00  0.00000000000E+00  0.22481336478E+03  0.22481336478E+03  0.00000000000E+00 0. -1.
         -2   -1    0    0    0  501 -0.00000000000E+00 -0.00000000000E+00 -0.14069545027E+03  0.14069545027E+03  0.00000000000E+00 0.  1.
         23    2    1    2    0    0  0.10970259726E+03  0.87922773600E+02  0.24522227655E+02  0.18977232501E+03  0.12508845561E+03 0.  0.
         23    2    1    2    0    0 -0.10970259726E+03 -0.87922773600E+02  0.59595686857E+02  0.17573649005E+03  0.86986171778E+02 0.  0.
          5    1    3    3  502    0 -0.16150982039E+02  0.55757396383E+02  0.64658569282E+01  0.58557844718E+02  0.41800000000E+01 0. -1.
         -5    1    3    3    0  502  0.12585357930E+03  0.32165377217E+02  0.18056370727E+02  0.13121448029E+03  0.41800000000E+01 0. -1.
        -11    1    4    4    0    0 -0.91542636054E+02 -0.51732259737E+02  0.78333504387E+02  0.13111986433E+03  0.00000000000E+00 0. -1.
         11    1    4    4    0    0 -0.18159961204E+02 -0.36190513863E+02 -0.18737817530E+02  0.44616625717E+02  0.00000000000E+00 0.  1.
</event>
<event>
 8    1  0.5951278E-006  0.1079103E+03  0.7561462E-02  0.1264489E+00
         -4   -1    0    0    0  501 -0.00000000000E+00  0.00000000000E+00  0.14956975389E+03  0.14956975389E+03  0.00000000000E+00 0.  1.
          4   -1    0    0  501    0  0.00000000000E+00 -0.00000000000E+00 -0.93930752534E+02  0.93930752534E+02  0.00000000000E+00 0. -1.
         23    2    1    2    0    0 -0.41575647950E+02  0.11329959057E+01  0.53309108002E+02  0.14219780877E+03  0.12509411513E+03 0.  0.
         23    2    1    2    0    0  0.41575647950E+02 -0.11329959057E+01  0.23298933567E+01  0.10130269765E+03  0.92341702209E+02 0.  0.
          5    1    3    3  502    0 -0.35480164227E+02 -0.57493737150E+02  0.47769621077E+02  0.82847938797E+02  0.41800000000E+01 0.  1.
         -5    1    3    3    0  502 -0.60954837230E+01  0.58626733056E+02  0.55394869249E+01  0.59349869974E+02  0.41800000000E+01 0.  1.
        -11    1    4    4    0    0  0.24516216181E+02 -0.39818480078E+02 -0.22900228677E+02  0.52067040294E+02  0.00000000000E+00 0. -1.
         11    1    4    4    0    0  0.17059431768E+02  0.38685484172E+02  0.25230122033E+02  0.49235657360E+02  0.00000000000E+00 0.  1.
</event>
<event>
 8    1  0.5951278E-006  0.1345042E+03  0.7561462E-02  0.1220921E+00
         -2   -1    0    0    0  501 -0.00000000000E+00  0.00000000000E+00  0.45162639821E+02  0.45162639821E+02  0.00000000000E+00 0.  1.
          2   -1    0    0  501    0  0.00000000000E+00 -0.00000000000E+00 -0.50478284516E+03  0.50478284516E+03  0.00000000000E+00 0. -1.
         23    2    1    2    0    0  0.33963698990E+02  0.96471780899E+02 -0.29134070649E+03  0.33314655284E+03  0.12508749360E+03 0.  0.
         23    2    1    2    0    0 -0.33963698990E+02 -0.96471780899E+02 -0.16827949886E+03  0.21679893214E+03  0.90683239272E+02 0.  0.
          5    1    3    3  502    0  0.44586581914E+02 -0.12642209618E+02 -0.12966598014E+03  0.13776257676E+03  0.41800000000E+01 0. -1.
         -5    1    3    3    0  502 -0.10622882923E+02  0.10911399052E+03 -0.16167472635E+03  0.19538397608E+03  0.41800000000E+01 0. -1.
        -11    1    4    4    0    0 -0.40405502659E+02 -0.43369807850E+02 -0.14828415194E+03  0.15969262536E+03  0.00000000000E+00 0. -1.
         11    1    4    4    0    0  0.64418036690E+01 -0.53101973050E+02 -0.19995346917E+02  0.57106306785E+02  0.00000000000E+00 0.  1.
</event>
<event>
 8    1  0.5951278E-006  0.1199461E+03  0.7561462E-02  0.1243186E+00
         -1   -1    0    0    0  501 -0.00000000000E+00  0.00000000000E+00  0.25147316122E+02  0.25147316122E+02  0.00000000000E+00 0.  1.
          1   -1    0    0  501    0  0.00000000000E+00 -0.00000000000E+00 -0.85851774532E+03  0.85851774532E+03  0.00000000000E+00 0. -1.
         23    2    1    2    0    0  0.81593133683E+02  0.38807094518E+02 -0.33016172953E+03  0.36444182512E+03  0.12509055200E+03 0.  0.
         23    2    1    2    0    0 -0.81593133683E+02 -0.38807094518E+02 -0.50320869966E+03  0.51922323632E+03  0.90610946737E+02 0.  0.
          5    1    3    3  502    0  0.25274688529E+02  0.50982616306E+02 -0.28623783408E+03  0.29186916093E+03  0.41800000000E+01 0.  1.
         -5    1    3    3    0  502  0.56318445154E+02 -0.12175521788E+02 -0.43923895453E+02  0.72572664187E+02  0.41800000000E+01 0.  1.
        -11    1    4    4    0    0 -0.64359848546E+02  0.17073949317E+02 -0.21237734657E+03  0.22257099359E+03  0.00000000000E+00 0.  1.
         11    1    4    4    0    0 -0.17233285138E+02 -0.55881043834E+02 -0.29083135309E+03  0.29665224273E+03  0.00000000000E+00 0. -1.
</event>
<event>
 7    1  0.5951278E-006  0.1178090E+03  0.7561462E-02  0.1246756E+00
         -1   -1    0    0    0  501 -0.00000000000E+00  0.00000000000E+00  0.10600401007E+03  0.10600401007E+03  0.00000000000E+00 0.  1.
          1   -1    0    0  501    0  0.00000000000E+00 -0.00000000000E+00 -0.35833579477E+03  0.35833579477E+03  0.00000000000E+00 0. -1.
         23    2    1    2    0    0  0.77411585102E+02  0.59783455347E+02 -0.22597542208E+03  0.26142816392E+03  0.87824703045E+02 0.  0.
          5    1    1    2  502    0 -0.73781121379E+02  0.37882351273E+01 -0.87459138954E+02  0.11456255053E+03  0.41800000000E+01 0. -1.
         -5    1    1    2    0  502 -0.36304637225E+01 -0.63571690474E+02  0.61102776332E+02  0.88349090386E+02  0.41800000000E+01 0.  1.
        -11    1    3    3    0    0  0.16886797930E+02  0.13147275090E+02  0.15091132115E+01  0.21454421673E+02  0.00000000000E+00 0.  1.
         11    1    3    3    0    0  0.60524787172E+02  0.46636180257E+02 -0.22748453529E+03  0.23997374225E+03  0.00000000000E+00 0. -1.
</event>
<event>
 8    1  0.5951278E-006  0.1019727E+03  0.7561462E-02  0.1276202E+00
         -2   -1    0    0    0  501 -0.00000000000E+00  0.00000000000E+00  0.47701800162E+02  0.47701800162E+02  0.00000000000E+00 0.  1.
          2   -1    0    0  501    0  0.00000000000E+00 -0.00000000000E+00 -0.32838463760E+03  0.32838463760E+03  0.00000000000E+00 0. -1.
         23    2    1    2    0    0 -0.28098917688E+02  0.30583665129E+02 -0.88468087795E+02  0.15873932708E+03  0.12508661661E+03 0.  0.
         23    2    1    2    0    0  0.28098917688E+02 -0.30583665129E+02 -0.19221474965E+03  0.21734711069E+03  0.92565364980E+02 0.  0.
          5    1    3    3  502    0 -0.71739052447E+02 -0.79349883157E+01 -0.59257186032E+02  0.93479100242E+02  0.41800000000E+01 0.  1.
         -5    1    3    3    0  502  0.43640134759E+02  0.38518653445E+02 -0.29210901762E+02  0.65260226837E+02  0.41800000000E+01 0.  1.
        -11    1    4    4    0    0  0.45975387270E+02 -0.12024717970E+02 -0.18439248740E+03  0.19041774992E+03  0.00000000000E+00 0. -1.
         11    1    4    4    0    0 -0.17876469582E+02 -0.18558947159E+02 -0.78222622475E+01  0.26929360762E+02  0.00000000000E+00 0.  1.
</event>
<event>
 8    1  0.5951278E-006  0.2061043E+03  0.7561462E-02  0.1144689E+00
         -2   -1    0    0    0  501 -0.00000000000E+00  0.00000000000E+00  0.11201649157E+03  0.11201649157E+03  0.00000000000E+00 0.  1.
          2   -1    0    0  501    0  0.00000000000E+00 -0.00000000000E+00 -0.53198096360E+03  0.53198096360E+03  0.00000000000E+00 0. -1.
         23    2    1    2    0    0  0.16874181734E+03  0.79068396737E+02 -0.84070340667E+02  0.23966796660E+03  0.12508916720E+03 0.  0.
         23    2    1    2    0    0 -0.16874181734E+03 -0.79068396737E+02 -0.33589413136E+03  0.40432948857E+03  0.12622145445E+03 0.  0.
          5    1    3    3  502    0  0.15352716856E+03  0.48941270311E+02 -0.11148087638E+03  0.19598800378E+03  0.41800000000E+01 0.  1.
         -5    1    3    3    0  502  0.15214648778E+02  0.30127126426E+02  0.27410535711E+02  0.43679962822E+02  0.41800000000E+01 0.  1.
        -11    1    4    4    0    0 -0.30054361886E+02 -0.72135134421E+02 -0.72617764047E+02  0.10667746689E+03  0.00000000000E+00 0. -1.
         11    1    4    4    0    0 -0.13868745545E+03 -0.69332623162E+01 -0.26327636732E+03  0.29765202169E+03  0.00000000000E+00 0.  1.
</event>
<event>
 8    1  0.5951278E-006  0.8606878E+02  0.7561462E-02  0.1312661E+00
         -3   -1    0    0    0  501 -0.00000000000E+00  0.00000000000E+00  0.60747392617E+03  0.60747392617E+03  0.00000000000E+00 0.  1.
          3   -1    0    0  501    0  0.00000000000E+00 -0.00000000000E+00 -0.23412328397E+02  0.23412328397E+02  0.00000000000E+00 0. -1.
         23    2    1    2    0    0 -0.65881991247E+01  0.28052686147E+02  0.42483410421E+03  0.44380429867E+03  0.12509149389E+03 0.  0.
         23    2    1    2    0    0  0.65881991247E+01 -0.28052686147E+02  0.15922749356E+03  0.18708195590E+03  0.93893055923E+02 0.  0.
          5    1    3    3  502    0 -0.38230966269E+02 -0.49585803635E+00  0.37949584625E+03  0.38143993286E+03  0.41800000000E+01 0.  1.
         -5    1    3    3    0  502  0.31642767145E+02  0.28548544184E+02  0.45338257964E+02  0.62364365809E+02  0.41800000000E+01 0.  1.
        -11    1    4    4    0    0 -0.22585729843E+02  0.22884482244E+02  0.93918257191E+02  0.99269601359E+02  0.00000000000E+00 0.  1.
         11    1    4    4    0    0  0.29173928967E+02 -0.50937168392E+02  0.65309236366E+02  0.87812354540E+02  0.00000000000E+00 0. -1.
</event>
<event>
 8    1  0.5951278E-006  0.1438191E+03  0.7561462E-02  0.1208281E+00
         -2   -1    0    0    0  501 -0.00000000000E+00  0.00000000000E+00  0.38700928562E+02  0.38700928562E+02  0.00000000000E+00 0.  1.
          2   -1    0    0  501    0  0.00000000000E+00 -0.00000000000E+00 -0.72554540738E+03  0.72554540738E+03  0.00000000000E+00 0. -1.
         23    2    1    2    0    0  0.81299911213E+02 -0.96440030393E+02 -0.34092973666E+03  0.38443628343E+03  0.12509122934E+03 0.  0.
         23    2    1    2    0    0 -0.81299911213E+02  0.96440030393E+02 -0.34591474216E+03  0.37981005251E+03  0.93211115847E+02 0.  0.
          5    1    3    3  502    0  0.99666892087E+02 -0.81949281150E+02 -0.33629437840E+03  0.36022292460E+03  0.41800000000E+01 0.  1.
         -5    1    3    3    0  502 -0.18366980874E+02 -0.14490749243E+02 -0.46353582571E+01  0.24213358838E+02  0.41800000000E+01 0.  1.
        -11    1    4    4    0    0 -0.51417430679E+02  0.24667415551E+02 -0.57048031816E+02  0.80664189711E+02  0.00000000000E+00 0.  1.
         11    1    4    4    0    0 -0.29882480533E+02  0.71772614842E+02 -0.28886671034E+03  0.29914586279E+03  0.00000000000E+00 0. -1.
</event>
<event>
 8    1  0.5951278E-006  0.1622570E+03  0.7561462E-02  0.1186172E+00
         -2   -1    0    0    0  501 -0.00000000000E+00  0.00000000000E+00  0.14062230463E+03  0.14062230463E+03  0.00000000000E+00 0.  1.
          2   -1    0    0  501    0  0.00000000000E+00 -0.00000000000E+00 -0.21580126141E+03  0.21580126141E+03  0.00000000000E+00 0. -1.
         23    2    1    2    0    0  0.31568984741E+02  0.12400505750E+03  0.17509758232E+02  0.17318116338E+03  0.11537447133E+03 0.  0.
         23    2    1    2    0    0 -0.31568984741E+02 -0.12400505750E+03 -0.92688715016E+02  0.18324240266E+03  0.92804769042E+02 0.  0.
          5    1    3    3  502    0  0.45717866451E+02  0.12158245163E+01 -0.87520551640E+01  0.46751175511E+02  0.41800000000E+01 0. -1.
         -5    1    3    3    0  502 -0.14148881710E+02  0.12278923299E+03  0.26261813396E+02  0.12642998787E+03  0.41800000000E+01 0.  1.
        -11    1    4    4    0    0 -0.33475750029E+02 -0.26865617153E+01 -0.59818947756E+01  0.34111970318E+02  0.00000000000E+00 0.  1.
         11    1    4    4    0    0  0.19067652879E+01 -0.12131849579E+03 -0.86706820241E+02  0.14913043234E+03  0.00000000000E+00 0. -1.
</event>
<event>
 7    1  0.5951278E-006  0.1335856E+03  0.7561462E-02  0.1222230E+00
          1   -1    0    0  501    0  0.00000000000E+00  0.00000000000E+00  0.27698839300E+03  0.27698839300E+03  0.00000000000E+00 0. -1.
         -1   -1    0    0    0  501 -0.00000000000E+00 -0.00000000000E+00 -0.72290705199E+02  0.72290705199E+02  0.00000000000E+00 0.  1.
         23    2    1    2    0    0  0.24259284977E+02 -0.64562404770E+01  0.90491299793E+02  0.13202205631E+03  0.92795215747E+02 0.  0.
          5    1    1    2  502    0  0.23915178645E+02 -0.74309635519E+02  0.91641624072E+02  0.12045545800E+03  0.41800000000E+01 0. -1.
         -5    1    1    2    0  502 -0.48174463622E+02  0.80765875995E+02  0.22564763932E+02  0.96801583881E+02  0.41800000000E+01 0.  1.
        -11    1    3    3    0    0  0.65915020104E+01 -0.48662178353E+02  0.57488923960E+02  0.75607088814E+02  0.00000000000E+00 0.  1.
         11    1    3    3    0    0  0.17667782966E+02  0.42205937876E+02  0.33002375833E+02  0.56414967496E+02  0.00000000000E+00 0. -1.
</event>
<event>
 8    1  0.5951278E-006  0.1169846E+03  0.7561462E-02  0.1248156E+00
         -1   -1    0    0    0  501 -0.00000000000E+00  0.00000000000E+00  0.41140919328E+03  0.41140919328E+03  0.00000000000E+00 0.  1.
          1   -1    0    0  501    0  0.00000000000E+00 -0.00000000000E+00 -0.70425995404E+02  0.70425995404E+02  0.00000000000E+00 0. -1.
         23    2    1    2    0    0  0.66190719764E+02  0.60993335782E+02  0.31439532037E+03  0.35013189514E+03  0.12508608289E+03 0.  0.
         23    2    1    2    0    0 -0.66190719764E+02 -0.60993335782E+02  0.26587877509E+02  0.13170329354E+03  0.92398289526E+02 0.  0.
          5    1    3    3  502    0 -0.22199947633E+02  0.41995632482E+02  0.19245225769E+03  0.19827207245E+03  0.41800000000E+01 0.  1.
         -5    1    3    3    0  502  0.88390667396E+02  0.18997703300E+02  0.12194306268E+03  0.15185982270E+03  0.41800000000E+01 0.  1.
        -11    1    4    4    0    0 -0.41580583493E+00 -0.16185019936E+02 -0.29972078734E+02  0.34065426292E+02  0.00000000000E+00 0. -1.
         11    1    4    4    0    0 -0.65774913929E+02 -0.44808315846E+02  0.56559956243E+02  0.97637867252E+02  0.00000000000E+00 0.  1.
</event>
<event>
 8    1  0.5951278E-006  0.1165649E+03  0.7561462E-02  0.1248874E+00
          1   -1    0    0  501    0  0.00000000000E+00  0.00000000000E+00  0.39190007446E+03  0.39190007446E+03  0.00000000000E+00 0. -1.
         -1   -1    0    0    0  501 -0.00000000000E+00 -0.00000000000E+00 -0.47818759825E+02  0.47818759825E+02  0.00000000000E+00 0.  1.
         23    2    1    2    0    0  0.48310895413E+02 -0.69033279213E+01  0.81249261248E+02  0.15693975382E+03  0.12508815021E+03 0.  0.
         23    2    1    2    0    0 -0.48310895413E+02  0.69033279213E+01  0.26283205339E+03  0.28277908047E+03  0.92204780293E+02 0.  0.
          5    1    3    3  502    0  0.97897974890E+01 -0.63354981838E+02  0.27448064154E+02  0.69861022640E+02  0.41800000000E+01 0. -1.
         -5    1    3    3    0  502  0.38521097924E+02  0.56451653916E+02  0.53801197094E+02  0.87078731180E+02  0.41800000000E+01 0. -1.
        -11    1    4    4    0    0  0.24776028049E+02 -0.75779600859E+01  0.10640428372E+03  0.10951323500E+03  0.00000000000E+00 0.  1.
         11    1    4    4    0    0 -0.73086923462E+02  0.14481288007E+02  0.15642776967E+03  0.17326584547E+03  0.00000000000E+00 0. -1.
</event>
<event>
 8    1  0.5951278E-006  0.1249099E+03  0.7561462E-02  0.1235210E+00
         -2   -1    0    0    0  501 -0.00000000000E+00  0.00000000000E+00  0.55190468039E+02  0.55190468039E+02  0.00000000000E+00 0.  1.
          2   -1    0    0  501    0  0.00000000000E+00 -0.00000000000E+00 -0.44058849322E+03  0.44058849322E+03  0.00000000000E+00 0. -1.
         23    2    1    2    0    0  0.67258531784E+02 -0.43116426748E+02 -0.82966357727E+02  0.17003645277E+03  0.12508494076E+03 0.  0.
         23    2    1    2    0    0 -0.67258531784E+02  0.43116426748E+02 -0.30243166746E+03  0.32574250849E+03  0.90887468898E+02 0.  0.
          5    1    3    3  502    0  0.14871782042E+02 -0.74436191007E+02 -0.77584453753E+02  0.10862198809E+03  0.41800000000E+01 0. -1.
         -5    1    3    3    0  502  0.52386749741E+02  0.31319764260E+02 -0.53819039736E+01  0.61414464682E+02  0.41800000000E+01 0. -1.
        -11    1    4    4    0    0 -0.23998877734E+02  0.61196009781E+02 -0.23199815171E+03  0.24113075321E+03  0.00000000000E+00 0. -1.
         11    1    4    4    0    0 -0.43259654050E+02 -0.18079583034E+02 -0.70433515742E+02  0.84611755276E+02  0.00000000000E+00 0.  1.
</event>
<event>
 8    1  0.5951278E-006  0.1391929E+03  0.7561462E-02  0.1214419E+00
         -1   -1    0    0    0  501 -0.00000000000E+00  0.00000000000E+00  0.59097253429E+02  0.59097253429E+02  0.00000000000E+00 0.  1.
          1   -1    0    0  501    0  0.00000000000E+00 -0.00000000000E+00 -0.50118200551E+03  0.50118200551E+03  0.00000000000E+00 0. -1.
         23    2    1    2    0    0 -0.90314427377E+02 -0.98839369821E+02 -0.24332589205E+03  0.30459944601E+03  0.12508963167E+03 0.  0.
         23    2    1    2    0    0  0.90314427377E+02  0.98839369821E+02 -0.19875886004E+03  0.25567981293E+03  0.89113217186E+02 0.  0.
          5    1    3    3  502    0 -0.76900827103E+02 -0.10383522198E+03 -0.25484268292E+03  0.28575821243E+03  0.41800000000E+01 0. -1.
         -5    1    3    3    0  502 -0.13413600274E+02  0.49958521554E+01  0.11516790872E+02  0.18841233587E+02  0.41800000000E+01 0. -1.
        -11    1    4    4    0    0  0.18708027088E+02  0.26221991283E+02  0.80936665567E-01  0.32211638504E+02  0.00000000000E+00 0.  1.
         11    1    4    4    0    0  0.71606400289E+02  0.72617378538E+02 -0.19883979671E+03  0.22346817443E+03  0.00000000000E+00 0. -1.
</event>
<event>
 8    1  0.5951278E-006  0.9409224E+02  0.7561462E-02  0.1293234E+00
          2   -1    0    0  501    0  0.00000000000E+00  0.00000000000E+00  0.47336678902E+03  0.47336678902E+03  0.00000000000E+00 0. -1.
         -2   -1    0    0    0  501 -0.00000000000E+00 -0.00000000000E+00 -0.29929860155E+02  0.29929860155E+02  0.00000000000E+00 0.  1.
         23    2    1    2    0    0  0.41163686620E+02  0.20454618339E+02  0.28541936733E+03  0.31499873034E+03  0.12508854609E+03 0.  0.
         23    2    1    2    0    0 -0.41163686620E+02 -0.20454618339E+02  0.15801756153E+03  0.18829791883E+03  0.91508010447E+02 0.  0.
          5    1    3    3  502    0 -0.73507290760E+01  0.35257746679E+02  0.25089019652E+03  0.25349655822E+03  0.41800000000E+01 0. -1.
         -5    1    3    3    0  502  0.48514415696E+02 -0.14803128340E+02  0.34529170810E+02  0.61502172123E+02  0.41800000000E+01 0. -1.
        -11    1    4    4    0    0 -0.68592261191E+02 -0.25433108115E+02  0.12725009140E+03  0.14677985912E+03  0.00000000000E+00 0.  1.
         11    1    4    4    0    0  0.27428574570E+02  0.49784897758E+01  0.30767470131E+02  0.41518059705E+02  0.00000000000E+00 0. -1.
</event>
<event>
 8    1  0.5951278E-006  0.1020791E+03  0.7561462E-02  0.1275984E+00
          1   -1    0    0  501    0  0.00000000000E+00  0.00000000000E+00  0.97411013764E+02  0.97411013764E+02  0.00000000000E+00 0. -1.
         -1   -1    0    0    0  501 -0.00000000000E+00 -0.00000000000E+00 -0.14874954003E+03  0.14874954003E+03  0.00000000000E+00 0.  1.
         23    2    1    2    0    0 -0.91028885978E+01  0.19249330864E+02 -0.77357873781E+02  0.14861047657E+03  0.12508970297E+03 0.  0.
         23    2    1    2    0    0  0.91028885978E+01 -0.19249330864E+02  0.26019347513E+02  0.97550077229E+02  0.91572986207E+02 0.  0.
          5    1    3    3  502    0  0.49476330059E+02 -0.70580836592E+01 -0.66592197757E+02  0.83364962563E+02  0.41800000000E+01 0.  1.
         -5    1    3    3    0  502 -0.58579218657E+02  0.26307414524E+02 -0.10765676024E+02  0.65245514004E+02  0.41800000000E+01 0.  1.
        -11    1    4    4    0    0  0.11777714749E+02 -0.53763101488E+02  0.30036185374E+02  0.62700542885E+02  0.00000000000E+00 0. -1.
         11    1    4    4    0    0 -0.26748261516E+01  0.34513770623E+02 -0.40168378607E+01  0.34849534344E+02  0.00000000000E+00 0.  1.
</event>
<event>
 8    1  0.5951278E-006  0.1682536E+03  0.7561462E-02  0.1179681E+00
         -2   -1    0    0    0  501 -0.00000000000E+00  0.00000000000E+00  0.46639214163E+02  0.46639214163E+02  0.00000000000E+00 0. -1.
          2   -1    0    0  501    0  0.00000000000E+00 -0.00000000000E+00 -0.66142201326E+03  0.66142201326E+03  0.00000000000E+00 0.  1.
         23    2    1    2    0    0  0.13363521144E+02  0.13693966463E+03 -0.32209838199E+03  0.37192200360E+03  0.12509018198E+03 0.  0.
         23    2    1    2    0    0 -0.13363521144E+02 -0.13693966463E+03 -0.29268441711E+03  0.33613922383E+03  0.91620709080E+02 0.  0.
          5    1    3    3  502    0  0.52465772323E+02  0.12509118980E+03 -0.18932813061E+03  0.23294436347E+03  0.41800000000E+01 0. -1.
         -5    1    3    3    0  502 -0.39102251178E+02  0.11848474832E+02 -0.13277025138E+03  0.13897764013E+03  0.41800000000E+01 0. -1.
        -11    1    4    4    0    0 -0.29777399550E+02 -0.13990920006E+03 -0.22651567749E+03  0.26790041048E+03  0.00000000000E+00 0. -1.
         11    1    4    4    0    0  0.16413878406E+02  0.29695354292E+01 -0.66168739617E+02  0.68238813350E+02  0.00000000000E+00 0.  1.
</event>
<event>
 8    1  0.5951278E-006  0.1586132E+03  0.7561462E-02  0.1190271E+00
          2   -1    0    0  501    0  0.00000000000E+00  0.00000000000E+00  0.26822437882E+03  0.26822437882E+03  0.00000000000E+00 0. -1.
         -2   -1    0    0    0  501 -0.00000000000E+00 -0.00000000000E+00 -0.11388770307E+03  0.11388770307E+03  0.00000000000E+00 0.  1.
         23    2    1    2    0    0  0.10175412237E+03  0.91350670983E+02  0.78581792744E+02  0.20129948905E+03  0.12509012604E+03 0.  0.
         23    2    1    2    0    0 -0.10175412237E+03 -0.91350670983E+02  0.75754883009E+02  0.18081259285E+03  0.90860029302E+02 0.  0.
          5    1    3    3  502    0  0.76447443173E+01 -0.21812578871E+02 -0.14025037847E+02  0.27356988125E+02  0.41800000000E+01 0.  1.
         -5    1    3    3    0  502  0.94109378051E+02  0.11316324985E+03  0.92606830591E+02  0.17394250092E+03  0.41800000000E+01 0.  1.
        -11    1    4    4    0    0 -0.91483542510E+02 -0.50750148596E+02  0.13078044863E+02  0.10543173806E+03  0.00000000000E+00 0.  1.
         11    1    4    4    0    0 -0.10270579858E+02 -0.40600522386E+02  0.62676838146E+02  0.75380854788E+02  0.00000000000E+00 0. -1.
</event>
<event>
 8    1  0.5951278E-006  0.3746417E+03  0.7561462E-02  0.1052932E+00
         -3   -1    0    0    0  501 -0.00000000000E+00  0.00000000000E+00  0.19628491490E+04  0.19628491490E+04  0.00000000000E+00 0.  1.
          3   -1    0    0  501    0  0.00000000000E+00 -0.00000000000E+00 -0.14224582993E+03  0.14224582993E+03  0.00000000000E+00 0. -1.
         23    2    1    2    0    0 -0.17810702995E+03 -0.31493629187E+03  0.16512410709E+04  0.16950339470E+04  0.12504409298E+03 0.  0.
         23    2    1    2    0    0  0.17810702995E+03  0.31493629187E+03  0.16936224812E+03  0.41006103188E+03  0.92517548226E+02 0.  0.
          5    1    3    3  502    0 -0.40780910265E+02 -0.54879842259E+01  0.25472084398E+03  0.25805693436E+03  0.41800000000E+01 0.  1.
         -5    1    3    3    0  502 -0.13732611969E+03 -0.30944830764E+03  0.13965202269E+04  0.14369770126E+04  0.41800000000E+01 0.  1.
        -11    1    4    4    0    0  0.12335487742E+03  0.27554559827E+03  0.16085793593E+03  0.34207759070E+03  0.00000000000E+00 0. -1.
         11    1    4    4    0    0  0.54752152536E+02  0.39390693598E+02  0.85043121871E+01  0.67983441184E+02  0.00000000000E+00 0.  1.
</event>
<event>
 8    1  0.5951278E-006  0.9168566E+02  0.7561462E-02  0.1298820E+00
         -3   -1    0    0    0  501 -0.00000000000E+00  0.00000000000E+00  0.14401506125E+03  0.14401506125E+03  0.00000000000E+00 0.  1.
          3   -1    0    0  501    0  0.00000000000E+00 -0.00000000000E+00 -0.98773681415E+02  0.98773681415E+02  0.00000000000E+00 0. -1.
         23    2    1    2    0    0 -0.40599386012E+02  0.11918576111E+02  0.17628297653E+02  0.13322233989E+03  0.12508825831E+03 0.  0.
         23    2    1    2    0    0  0.40599386012E+02 -0.11918576111E+02  0.27613082181E+02  0.10956640277E+03  0.97221148455E+02 0.  0.
          5    1    3    3  502    0  0.40389482633E+02  0.27723607426E+02  0.10639265189E+02  0.50304821637E+02  0.41800000000E+01 0.  1.
         -5    1    3    3    0  502 -0.80988868645E+02 -0.15805031315E+02  0.69890324633E+01  0.82917518258E+02  0.41800000000E+01 0.  1.
        -11    1    4    4    0    0  0.94989625528E+01 -0.17568967823E+02  0.60643663470E+02  0.63847888290E+02  0.00000000000E+00 0.  1.
         11    1    4    4    0    0  0.31100423459E+02  0.56503917116E+01 -0.33030581290E+02  0.45718514479E+02  0.00000000000E+00 0. -1.
</event>
<event>
 8    1  0.5951278E-006  0.1012932E+03  0.7561462E-02  0.1277600E+00
          2   -1    0    0  501    0  0.00000000000E+00  0.00000000000E+00  0.62819940871E+03  0.62819940871E+03  0.00000000000E+00 0. -1.
         -2   -1    0    0    0  501 -0.00000000000E+00 -0.00000000000E+00 -0.34313793282E+02  0.34313793282E+02  0.00000000000E+00 0.  1.
         23    2    1    2    0    0 -0.16225034607E+02 -0.41634709872E+02  0.12251067443E+03  0.18070042432E+03  0.12508827757E+03 0.  0.
         23    2    1    2    0    0  0.16225034607E+02  0.41634709872E+02  0.47137494099E+03  0.48181277767E+03  0.89176885554E+02 0.  0.
          5    1    3    3  502    0 -0.33355717856E+02 -0.65451877022E+02  0.13067101913E+03  0.14996312800E+03  0.41800000000E+01 0. -1.
         -5    1    3    3    0  502  0.17130683250E+02  0.23817167150E+02 -0.81603446918E+01  0.30737296321E+02  0.41800000000E+01 0. -1.
        -11    1    4    4    0    0 -0.23755702922E+02 -0.16422945603E+02  0.15666504773E+03  0.15930468839E+03  0.00000000000E+00 0. -1.
         11    1    4    4    0    0  0.39980737529E+02  0.58057655475E+02  0.31470989326E+03  0.32250808928E+03  0.00000000000E+00 0.  1.
</event>
<event>
 8    1  0.5951278E-006  0.1088401E+03  0.7561462E-02  0.1262733E+00
          1   -1    0    0  501    0  0.00000000000E+00  0.00000000000E+00  0.47417084754E+03  0.47417084754E+03  0.00000000000E+00 0. -1.
         -1   -1    0    0    0  501 -0.00000000000E+00 -0.00000000000E+00 -0.26856029264E+02  0.26856029264E+02  0.00000000000E+00 0.  1.
         23    2    1    2    0    0 -0.41330265239E+00  0.29923348330E+02  0.22536327572E+03  0.25948496087E+03  0.12509301052E+03 0.  0.
         23    2    1    2    0    0  0.41330265239E+00 -0.29923348330E+02  0.22195154256E+03  0.24154191594E+03  0.90467852386E+02 0.  0.
          5    1    3    3  502    0 -0.59883049299E+02  0.28186836496E+02  0.14464246160E+03  0.15912068201E+03  0.41800000000E+01 0. -1.
         -5    1    3    3    0  502  0.59469746646E+02  0.17365118332E+01  0.80720814118E+02  0.10036427886E+03  0.41800000000E+01 0. -1.
        -11    1    4    4    0    0 -0.36525402314E+02 -0.39257743864E+02  0.16067598133E+03  0.16938726765E+03  0.00000000000E+00 0.  1.
         11    1    4    4    0    0  0.36938704967E+02  0.93343955340E+01  0.61275561235E+02  0.72154648286E+02  0.00000000000E+00 0. -1.
</event>
<event>
 8    1  0.5951278E-006  0.1313202E+03  0.7561462E-02  0.1225510E+00
          2   -1    0    0  501    0  0.00000000000E+00  0.00000000000E+00  0.53592499960E+03  0.53592499960E+03  0.00000000000E+00 0. -1.
         -2   -1    0    0    0  501 -0.00000000000E+00 -0.00000000000E+00 -0.44408442916E+02  0.44408442916E+02  0.00000000000E+00 0.  1.
         23    2    1    2    0    0  0.10713012765E+03  0.16051843202E+02  0.25832653858E+03  0.30677274660E+03  0.12506954706E+03 0.  0.
         23    2    1    2    0    0 -0.10713012765E+03 -0.16051843202E+02  0.23319001811E+03  0.27356069592E+03  0.93398843061E+02 0.  0.
          5    1    3    3  502    0  0.10779726946E+03  0.31257917343E+01  0.26876716883E+03  0.28962611298E+03  0.41800000000E+01 0.  1.
         -5    1    3    3    0  502 -0.66714181088E+00  0.12926051467E+02 -0.10440630248E+02  0.17146633626E+02  0.41800000000E+01 0.  1.
        -11    1    4    4    0    0 -0.26484843886E+02  0.36324336714E+02  0.54579838619E+02  0.70709710628E+02  0.00000000000E+00 0.  1.
         11    1    4    4    0    0 -0.80645283766E+02 -0.52376179916E+02  0.17861017949E+03  0.20285098529E+03  0.00000000000E+00 0. -1.
</event>
<event>
 8    1  0.5951278E-006  0.1258888E+03  0.7561462E-02  0.1233687E+00
         -2   -1    0    0    0  501 -0.00000000000E+00  0.00000000000E+00  0.35811319131E+02  0.35811319131E+02  0.00000000000E+00 0.  1.
          2   -1    0    0  501    0  0.00000000000E+00 -0.00000000000E+00 -0.73223537524E+03  0.73223537524E+03  0.00000000000E+00 0. -1.
         23    2    1    2    0    0  0.51561385110E+02  0.97096825881E+02 -0.47835485831E+03  0.50651597096E+03  0.12509471748E+03 0.  0.
         23    2    1    2    0    0 -0.51561385110E+02 -0.97096825881E+02 -0.21806919780E+03  0.26153072341E+03  0.93582980435E+02 0.  0.
          5    1    3    3  502    0  0.51667869248E+02  0.65484248231E+02 -0.11696551638E+03  0.14372251007E+03  0.41800000000E+01 0. -1.
         -5    1    3    3    0  502 -0.10648413762E+00  0.31612577650E+02 -0.36138934193E+03  0.36279346089E+03  0.41800000000E+01 0. -1.
        -11    1    4    4    0    0 -0.61987083471E+02 -0.30720871395E+02 -0.67527343395E+02  0.96675294478E+02  0.00000000000E+00 0.  1.
         11    1    4    4    0    0  0.10425698361E+02 -0.66375954486E+02 -0.15054185440E+03  0.16485542893E+03  0.00000000000E+00 0. -1.
</event>
<event>
 8    1  0.5951278E-006  0.1083682E+03  0.7561462E-02  0.1263622E+00
          2   -1    0    0  501    0  0.00000000000E+00  0.00000000000E+00  0.76931638516E+03  0.76931638516E+03  0.00000000000E+00 0.  1.
         -2   -1    0    0    0  501 -0.00000000000E+00 -0.00000000000E+00 -0.16441809642E+02  0.16441809642E+02  0.00000000000E+00 0. -1.
         23    2    1    2    0    0  0.31534115650E+02  0.12577088458E+02  0.39917577510E+03  0.41969244342E+03  0.12509142268E+03 0.  0.
         23    2    1    2    0    0 -0.31534115650E+02 -0.12577088458E+02  0.35369880041E+03  0.36606575138E+03  0.88026753417E+02 0.  0.
          5    1    3    3  502    0 -0.43462768053E+02  0.19674024840E+02  0.22225060592E+03  0.22735189397E+03  0.41800000000E+01 0.  1.
         -5    1    3    3    0  502  0.74996883702E+02 -0.70969363823E+01  0.17692516918E+03  0.19234054945E+03  0.41800000000E+01 0.  1.
        -11    1    4    4    0    0 -0.20253091888E+01 -0.47575843375E+02  0.15437258963E+03  0.16155017542E+03  0.00000000000E+00 0. -1.
         11    1    4    4    0    0 -0.29508806461E+02  0.34998754918E+02  0.19932621078E+03  0.20451557596E+03  0.00000000000E+00 0.  1.
</event>
<event>
 8    1  0.5951278E-006  0.1290828E+03  0.7561462E-02  0.1228823E+00
         -1   -1    0    0    0  501 -0.00000000000E+00  0.00000000000E+00  0.23444942386E+03  0.23444942386E+03  0.00000000000E+00 0.  1.
          1   -1    0    0  501    0  0.00000000000E+00 -0.00000000000E+00 -0.93761903928E+02  0.93761903928E+02  0.00000000000E+00 0. -1.
         23    2    1    2    0    0  0.43292621191E+02  0.69435604361E+02  0.14325263200E+03  0.20703930425E+03  0.12509357587E+03 0.  0.
         23    2    1    2    0    0 -0.43292621191E+02 -0.69435604361E+02 -0.25651120725E+01  0.12117202354E+03  0.89333785805E+02 0.  0.
          5    1    3    3  502    0 -0.39775149879E+02  0.63515808968E+01  0.18928822091E+02  0.44700982468E+02  0.41800000000E+01 0.  1.
         -5    1    3    3    0  502  0.83067771071E+02  0.63084023465E+02  0.12432380991E+03  0.16233832178E+03  0.41800000000E+01 0.  1.
        -11    1    4    4    0    0 -0.15087986063E+02 -0.81295152169E+02 -0.21186092759E+02  0.85354552403E+02  0.00000000000E+00 0. -1.
         11    1    4    4    0    0 -0.28204635129E+02  0.11859547807E+02  0.18620980686E+02  0.35817471137E+02  0.00000000000E+00 0.  1.
</event>
<event>
 8    1  0.5951278E-006  0.2696145E+03  0.7561462E-02  0.1101500E+00
         -2   -1    0    0    0  501 -0.00000000000E+00  0.00000000000E+00  0.11043243730E+03  0.11043243730E+03  0.00000000000E+00 0.  1.
          2   -1    0    0  501    0  0.00000000000E+00 -0.00000000000E+00 -0.95283346612E+03  0.95283346612E+03  0.00000000000E+00 0. -1.
         23    2    1    2    0    0  0.21408624624E+03 -0.13199758638E+03 -0.14468825047E+03  0.31597137915E+03  0.12508772512E+03 0.  0.
         23    2    1    2    0    0 -0.21408624624E+03  0.13199758638E+03 -0.69771277835E+03  0.74729452428E+03  0.91595312691E+02 0.  0.
          5    1    3    3  502    0 -0.13892442278E+02 -0.18025646731E+00 -0.19634498339E+02  0.24413487458E+02  0.41800000000E+01 0.  1.
         -5    1    3    3    0  502  0.22797868852E+03 -0.13181732992E+03 -0.12505375213E+03  0.29155789169E+03  0.41800000000E+01 0.  1.
        -11    1    4    4    0    0 -0.15065200102E+03  0.12816423713E+03 -0.44982798049E+03  0.49139323268E+03  0.00000000000E+00 0.  1.
         11    1    4    4    0    0 -0.63434245220E+02  0.38333492489E+01 -0.24788479786E+03  0.25590129160E+03  0.00000000000E+00 0. -1.
</event>
<event>
 8    1  0.5951278E-006  0.1027483E+03  0.7561462E-02  0.1274621E+00
         -1   -1    0    0    0  501 -0.00000000000E+00  0.00000000000E+00  0.87517129005E+02  0.87517129005E+02  0.00000000000E+00 0.  1.
          1   -1    0    0  501    0  0.00000000000E+00 -0.00000000000E+00 -0.16198854854E+03  0.16198854854E+03  0.00000000000E+00 0. -1.
         23    2    1    2    0    0  0.23791212661E+02  0.41948110783E+02 -0.29861164147E+02  0.13734735251E+03  0.12508773049E+03 0.  0.
         23    2    1    2    0    0 -0.23791212661E+02 -0.41948110783E+02 -0.44610255392E+02  0.11215832504E+03  0.90905165925E+02 0.  0.
          5    1    3    3  502    0 -0.39358160992E+02  0.31609795888E+02 -0.48949920373E+02  0.70440124483E+02  0.41800000000E+01 0.  1.
         -5    1    3    3    0  502  0.63149373652E+02  0.10338314895E+02  0.19088756226E+02  0.66907228024E+02  0.41800000000E+01 0.  1.
        -11    1    4    4    0    0 -0.96981277044E+01 -0.63899551507E+02 -0.51248920162E+01  0.64834179890E+02  0.00000000000E+00 0.  1.
         11    1    4    4    0    0 -0.14093084956E+02  0.21951440724E+02 -0.39485363376E+02  0.47324145152E+02  0.00000000000E+00 0. -1.
</event>
<event>
 8    1  0.5951278E-006  0.1213721E+03  0.7561462E-02  0.1240851E+00
         -2   -1    0    0    0  501 -0.00000000000E+00  0.00000000000E+00  0.10589214371E+03  0.10589214371E+03  0.00000000000E+00 0.  1.
          2   -1    0    0  501    0  0.00000000000E+00 -0.00000000000E+00 -0.17063603254E+03  0.17063603254E+03  0.00000000000E+00 0. -1.
         23    2    1    2    0    0 -0.61526110834E+02 -0.15039472221E+02  0.14201588952E+02  0.14093010573E+03  0.12509181241E+03 0.  0.
         23    2    1    2    0    0  0.61526110834E+02  0.15039472221E+02 -0.78945477783E+02  0.13559807052E+03  0.90237465758E+02 0.  0.
          5    1    3    3  502    0 -0.52915193778E+02  0.50565759525E+02  0.13972604980E+02  0.74629885829E+02  0.41800000000E+01 0. -1.
         -5    1    3    3    0  502 -0.86109170563E+01 -0.65605231746E+02  0.22898397177E+00  0.66300219899E+02  0.41800000000E+01 0. -1.
        -11    1    4    4    0    0 -0.22403278377E+01  0.35955350301E+02 -0.60749247245E+01  0.36533696699E+02  0.00000000000E+00 0.  1.
         11    1    4    4    0    0  0.63766438672E+02 -0.20915878080E+02 -0.72870553058E+02  0.99064373817E+02  0.00000000000E+00 0. -1.
</event>
<event>
 8    1  0.5951278E-006  0.7179374E+02  0.7561462E-02  0.1354097E+00
          2   -1    0    0  501    0  0.00000000000E+00  0.00000000000E+00  0.18022961853E+03  0.18022961853E+03  0.00000000000E+00 0. -1.
         -2   -1    0    0    0  501 -0.00000000000E+00 -0.00000000000E+00 -0.72698629690E+02  0.72698629690E+02  0.00000000000E+00 0.  1.
         23    2    1    2    0    0 -0.22359653600E+02  0.30160654671E+02  0.65588863192E+02  0.14614888735E+03  0.12509188263E+03 0.  0.
         23    2    1    2    0    0  0.22359653600E+02 -0.30160654671E+02  0.41942125650E+02  0.10677936087E+03  0.90736270612E+02 0.  0.
          5    1    3    3  502    0 -0.33878306054E+02  0.55543615858E+02 -0.95567681312E+01  0.65891100316E+02  0.41800000000E+01 0.  1.
         -5    1    3    3    0  502  0.11518652454E+02 -0.25382961187E+02  0.75145631323E+02  0.80257787036E+02  0.41800000000E+01 0.  1.
        -11    1    4    4    0    0  0.88087804684E+01  0.66139344040E+01 -0.26059681352E+02  0.28292149685E+02  0.00000000000E+00 0.  1.
         11    1    4    4    0    0  0.13550873132E+02 -0.36774589075E+02  0.68001807001E+02  0.78487211185E+02  0.00000000000E+00 0. -1.
</event>
<event>
 8    1  0.5951278E-006  0.1200125E+03  0.7561462E-02  0.1243076E+00
         -1   -1    0    0    0  501 -0.00000000000E+00  0.00000000000E+00  0.12282743910E+03  0.12282743910E+03  0.00000000000E+00 0.  1.
          1   -1    0    0  501    0  0.00000000000E+00 -0.00000000000E+00 -0.12050265859E+03  0.12050265859E+03  0.00000000000E+00 0. -1.
         23    2    1    2    0    0  0.54417617728E+02 -0.87384276726E+01  0.10232504857E+02  0.13707652437E+03  0.12509049580E+03 0.  0.
         23    2    1    2    0    0 -0.54417617728E+02  0.87384276726E+01 -0.79077243445E+01  0.10625357332E+03  0.90496698843E+02 0.  0.
          5    1    3    3  502    0  0.93616275749E+02 -0.12414393718E+02 -0.49878636609E+01  0.94659787874E+02  0.41800000000E+01 0. -1.
         -5    1    3    3    0  502 -0.39198658021E+02  0.36759660458E+01  0.15220368518E+02  0.42416736494E+02  0.41800000000E+01 0. -1.
        -11    1    4    4    0    0  0.35677945791E+01 -0.33801042543E+02 -0.95483379042E+00  0.34002225555E+02  0.00000000000E+00 0. -1.
         11    1    4    4    0    0 -0.57985412307E+02  0.42539470216E+02 -0.69528905540E+01  0.72251347764E+02  0.00000000000E+00 0.  1.
</event>
<event>
 8    1  0.8326712E-006  0.2828162E+03  0.7561462E-02  0.1094161E+00
          2   -1    0    0  501    0  0.00000000000E+00  0.00000000000E+00  0.71951014188E+03  0.71951014188E+03  0.00000000000E+00 0. -1.
         -2   -1    0    0    0  501 -0.00000000000E+00 -0.00000000000E+00 -0.13776160872E+03  0.13776160872E+03  0.00000000000E+00 0.  1.
         23    2    1    2    0    0 -0.13293005539E+02 -0.27452132730E+03  0.14886343450E+03  0.33666988910E+03  0.12509048308E+03 0.  0.
         23    2    1    2    0    0  0.13293005539E+02  0.27452132730E+03  0.43288509865E+03  0.52060186150E+03  0.89989590640E+02 0.  0.
          5    1    3    3  502    0  0.70269886944E+01 -0.18125773283E+03  0.15812955651E+03  0.24067856847E+03  0.41800000000E+01 0.  1.
         -5    1    3    3    0  502 -0.20319994234E+02 -0.93263594467E+02 -0.92661220075E+01  0.95991320626E+02  0.41800000000E+01 0.  1.
        -11    1    4    4    0    0  0.51080018206E+02  0.14545625829E+03  0.21509407512E+03  0.26463588662E+03  0.00000000000E+00 0.  1.
         11    1    4    4    0    0 -0.37787012667E+02  0.12906506900E+03  0.21779102354E+03  0.25596597488E+03  0.00000000000E+00 0. -1.
</event>
<event>
 8    1  0.5951278E-006  0.1320003E+03  0.7561462E-02  0.1224518E+00
         -1   -1    0    0    0  501 -0.00000000000E+00  0.00000000000E+00  0.89284912490E+02  0.89284912490E+02  0.00000000000E+00 0.  1.
          1   -1    0    0  501    0  0.00000000000E+00 -0.00000000000E+00 -0.23665742792E+03  0.23665742792E+03  0.00000000000E+00 0. -1.
         23    2    1    2    0    0  0.54793579366E+02 -0.77103848003E+02 -0.54694003801E+02  0.16609804398E+03  0.12509910649E+03 0.  0.
         23    2    1    2    0    0 -0.54793579366E+02  0.77103848003E+02 -0.92678511630E+02  0.15984429643E+03  0.89518449869E+02 0.  0.
          5    1    3    3  502    0 -0.30471783279E+02 -0.62270191306E+02 -0.32349515321E+02  0.76616381036E+02  0.41800000000E+01 0. -1.
         -5    1    3    3    0  502  0.85265362645E+02 -0.14833656697E+02 -0.22344488480E+02  0.89481662945E+02  0.41800000000E+01 0. -1.
        -11    1    4    4    0    0  0.38642221676E+01  0.36163651661E+02  0.71176792106E+01  0.37059455902E+02  0.00000000000E+00 0.  1.
         11    1    4    4    0    0 -0.58657801534E+02  0.40940196342E+02 -0.99796190841E+02  0.12278484053E+03  0.00000000000E+00 0. -1.
</event>
<event>
 8    1  0.5951278E-006  0.1034191E+03  0.7561462E-02  0.1273266E+00
         -2   -1    0    0    0  501 -0.00000000000E+00  0.00000000000E+00  0.57703754087E+02  0.57703754087E+02  0.00000000000E+00 0.  1.
          2   -1    0    0  501    0  0.00000000000E+00 -0.00000000000E+00 -0.27526549030E+03  0.27526549030E+03  0.00000000000E+00 0. -1.
         23    2    1    2    0    0 -0.34637966676E+01 -0.65479803503E+02 -0.11757118661E+03  0.18377012946E+03  0.12509545957E+03 0.  0.
         23    2    1    2    0    0  0.34637966676E+01  0.65479803503E+02 -0.99990549599E+02  0.14919911493E+03  0.89233756682E+02 0.  0.
          5    1    3    3  502    0  0.30374881729E+02 -0.33320322196E+01 -0.10790702201E+03  0.11222804318E+03  0.41800000000E+01 0.  1.
         -5    1    3    3    0  502 -0.33838678396E+02 -0.62147771284E+02 -0.96641646081E+01  0.71542086276E+02  0.41800000000E+01 0.  1.
        -11    1    4    4    0    0 -0.14384373695E+01 -0.19718505891E+02 -0.40812240676E+02  0.45348953302E+02  0.00000000000E+00 0. -1.
         11    1    4    4    0    0  0.49022340371E+01  0.85198309395E+02 -0.59178308923E+02  0.10385016162E+03  0.00000000000E+00 0.  1.
</event>
<event>
 8    1  0.5951278E-006  0.7148148E+02  0.7561462E-02  0.1355126E+00
         -2   -1    0    0    0  501 -0.00000000000E+00  0.00000000000E+00  0.45176133532E+02  0.45176133532E+02  0.00000000000E+00 0.  1.
          2   -1    0    0  501    0  0.00000000000E+00 -0.00000000000E+00 -0.28867126510E+03  0.28867126510E+03  0.00000000000E+00 0. -1.
         23    2    1    2    0    0  0.10815070251E+02 -0.34203422848E+02 -0.11755352049E+03  0.17536517632E+03  0.12508906829E+03 0.  0.
         23    2    1    2    0    0 -0.10815070251E+02  0.34203422848E+02 -0.12594161107E+03  0.15848222231E+03  0.89266373904E+02 0.  0.
          5    1    3    3  502    0 -0.12152722517E+02  0.25246837143E+02 -0.10692872857E+03  0.11061788664E+03  0.41800000000E+01 0. -1.
         -5    1    3    3    0  502  0.22967792767E+02 -0.59450259991E+02 -0.10624791921E+02  0.64747289680E+02  0.41800000000E+01 0. -1.
        -11    1    4    4    0    0  0.12558698071E+02  0.54018611086E+01  0.10404893730E+02  0.17180303088E+02  0.00000000000E+00 0.  1.
         11    1    4    4    0    0 -0.23373768321E+02  0.28801561739E+02 -0.13634650480E+03  0.14130191922E+03  0.00000000000E+00 0. -1.
</event>
<event>
 8    1  0.5951278E-006  0.2101569E+03  0.7561462E-02  0.1141442E+00
          2   -1    0    0  501    0  0.00000000000E+00  0.00000000000E+00  0.85089288413E+02  0.85089288413E+02  0.00000000000E+00 0. -1.
         -2   -1    0    0    0  501 -0.00000000000E+00 -0.00000000000E+00 -0.54900990064E+03  0.54900990064E+03  0.00000000000E+00 0.  1.
         23    2    1    2    0    0  0.90804294843E+02 -0.15918659848E+03 -0.29089949188E+03  0.36586294249E+03  0.12508950882E+03 0.  0.
         23    2    1    2    0    0 -0.90804294843E+02  0.15918659848E+03 -0.17302112035E+03  0.26823624656E+03  0.91807313362E+02 0.  0.
          5    1    3    3  502    0  0.10229329441E+03 -0.17041302922E+03 -0.28645306018E+03  0.34867943257E+03  0.41800000000E+01 0.  1.
         -5    1    3    3    0  502 -0.11488999571E+02  0.11226430743E+02 -0.44464316956E+01  0.17183509920E+02  0.41800000000E+01 0.  1.
        -11    1    4    4    0    0 -0.50079694503E+02  0.15625512506E+03 -0.13592576146E+03  0.21307147284E+03  0.00000000000E+00 0.  1.
         11    1    4    4    0    0 -0.40724600340E+02  0.29314734205E+01 -0.37095358890E+02  0.55164773728E+02  0.00000000000E+00 0. -1.
</event>
<event>
 8    1  0.5951278E-006  0.1242526E+03  0.7561462E-02  0.1236242E+00
          1   -1    0    0  501    0  0.00000000000E+00  0.00000000000E+00  0.84775203988E+03  0.84775203988E+03  0.00000000000E+00 0. -1.
         -1   -1    0    0    0  501 -0.00000000000E+00 -0.00000000000E+00 -0.18557975234E+02  0.18557975234E+02  0.00000000000E+00 0.  1.
         23    2    1    2    0    0 -0.26722532092E+02  0.55377977008E+02  0.48683931221E+03  0.50639993648E+03  0.12509023023E+03 0.  0.
         23    2    1    2    0    0  0.26722532092E+02 -0.55377977008E+02  0.34235475244E+03  0.35991007863E+03  0.92453632295E+02 0.  0.
          5    1    3    3  502    0  0.40292901262E+02  0.57569297614E+02  0.20828338787E+03  0.21985718998E+03  0.41800000000E+01 0. -1.
         -5    1    3    3    0  502 -0.67015433354E+02 -0.21913206065E+01  0.27855592434E+03  0.28654274651E+03  0.41800000000E+01 0. -1.
        -11    1    4    4    0    0  0.38565116588E+02  0.13638202825E+02  0.13381465718E+03  0.13992723563E+03  0.00000000000E+00 0.  1.
         11    1    4    4    0    0 -0.11842584496E+02 -0.69016179833E+02  0.20854009525E+03  0.21998284300E+03  0.00000000000E+00 0. -1.
</event>
<event>
 8    1  0.5951278E-006  0.1616113E+03  0.7561462E-02  0.1186890E+00
         -1   -1    0    0    0  501 -0.00000000000E+00  0.00000000000E+00  0.29061064158E+02  0.29061064158E+02  0.00000000000E+00 0. -1.
          1   -1    0    0  501    0  0.00000000000E+00 -0.00000000000E+00 -0.10151684081E+04  0.10151684081E+04  0.00000000000E+00 0.  1.
         23    2    1    2    0    0 -0.12020268368E+03  0.31346939593E+02 -0.38670973851E+03  0.42499913459E+03  0.12509407163E+03 0.  0.
         23    2    1    2    0    0  0.12020268368E+03 -0.31346939593E+02 -0.59939760543E+03  0.61923033767E+03  0.93474092178E+02 0.  0.
          5    1    3    3  502    0 -0.14564333167E+03  0.34937256699E+02 -0.33937567227E+03  0.37097966426E+03  0.41800000000E+01 0. -1.
         -5    1    3    3    0  502  0.25440647999E+02 -0.35903171058E+01 -0.47334066236E+02  0.54019470323E+02  0.41800000000E+01 0. -1.
        -11    1    4    4    0    0  0.13068192186E+02 -0.37834495357E+02 -0.87780281552E+02  0.96475927128E+02  0.00000000000E+00 0. -1.
         11    1    4    4    0    0  0.10713449149E+03  0.64875557635E+01 -0.51161732388E+03  0.52275441054E+03  0.00000000000E+00 0.  1.
</event>
<event>
 8    1  0.5951278E-006  0.9208258E+02  0.7561462E-02  0.1297885E+00
          4   -1    0    0  501    0  0.00000000000E+00  0.00000000000E+00  0.17053433610E+03  0.17053433610E+03  0.00000000000E+00 0. -1.
         -4   -1    0    0    0  501 -0.00000000000E+00 -0.00000000000E+00 -0.80611712240E+02  0.80611712240E+02  0.00000000000E+00 0.  1.
         23    2    1    2    0    0  0.38367430069E+02  0.22687836257E+01  0.24456214538E+02  0.13312527397E+03  0.12508806926E+03 0.  0.
         23    2    1    2    0    0 -0.38367430069E+02 -0.22687836257E+01  0.65466409319E+02  0.11802077436E+03  0.90365067161E+02 0.  0.
          5    1    3    3  502    0  0.54843133623E+02 -0.20268620905E+02 -0.34317087111E+02  0.67924378295E+02  0.41800000000E+01 0.  1.
         -5    1    3    3    0  502 -0.16475703554E+02  0.22537404531E+02  0.58773301648E+02  0.65200895678E+02  0.41800000000E+01 0.  1.
        -11    1    4    4    0    0  0.29392012455E+02 -0.30918276910E+01  0.12847691680E+02  0.32225967419E+02  0.00000000000E+00 0. -1.
         11    1    4    4    0    0 -0.67759442524E+02  0.82304406531E+00  0.52618717638E+02  0.85794806944E+02  0.00000000000E+00 0.  1.
</event>
<event>
 8    1  0.5951278E-006  0.1238428E+03  0.7561462E-02  0.1236889E+00
          2   -1    0    0  501    0  0.00000000000E+00  0.00000000000E+00  0.46040765673E+03  0.46040765673E+03  0.00000000000E+00 0. -1.
         -2   -1    0    0    0  501 -0.00000000000E+00 -0.00000000000E+00 -0.49020590765E+02  0.49020590765E+02  0.00000000000E+00 0.  1.
         23    2    1    2    0    0  0.81697358162E+02  0.30406806337E+02  0.12207941918E+03  0.19531928544E+03  0.12508879436E+03 0.  0.
         23    2    1    2    0    0 -0.81697358162E+02 -0.30406806337E+02  0.28930764678E+03  0.31410896206E+03  0.85828278297E+02 0.  0.
          5    1    3    3  502    0 -0.19356042283E+02  0.28663589750E-01 -0.13127799818E+02  0.23758550514E+02  0.41800000000E+01 0.  1.
         -5    1    3    3    0  502  0.10105340044E+03  0.30378142747E+02  0.13520721900E+03  0.17156073493E+03  0.41800000000E+01 0.  1.
        -11    1    4    4    0    0  0.11044780602E+02 -0.27340441883E+02  0.65846014865E+02  0.72146965387E+02  0.00000000000E+00 0. -1.
         11    1    4    4    0    0 -0.92742138764E+02 -0.30663644532E+01  0.22346163192E+03  0.24196199667E+03  0.00000000000E+00 0.  1.
</event>
<event>
 8    1  0.5951278E-006  0.1127860E+03  0.7561462E-02  0.1255496E+00
          2   -1    0    0  501    0  0.00000000000E+00  0.00000000000E+00  0.62128918618E+03  0.62128918618E+03  0.00000000000E+00 0. -1.
         -2   -1    0    0    0  501 -0.00000000000E+00 -0.00000000000E+00 -0.26277318761E+02  0.26277318761E+02  0.00000000000E+00 0.  1.
         23    2    1    2    0    0 -0.22003319559E+02  0.55648352997E+02  0.24892733438E+03  0.28494557034E+03  0.12509306532E+03 0.  0.
         23    2    1    2    0    0  0.22003319559E+02 -0.55648352997E+02  0.34608453304E+03  0.36262093461E+03  0.90213928745E+02 0.  0.
          5    1    3    3  502    0  0.45488056427E+02  0.53904193570E+02  0.13755734648E+03  0.15464255990E+03  0.41800000000E+01 0.  1.
         -5    1    3    3    0  502 -0.67491375985E+02  0.17441594272E+01  0.11136998790E+03  0.13030301043E+03  0.41800000000E+01 0.  1.
        -11    1    4    4    0    0 -0.22476180240E+02 -0.15038268058E+02  0.28163461614E+02  0.39044958118E+02  0.00000000000E+00 0.  1.
         11    1    4    4    0    0  0.44479499799E+02 -0.40610084939E+02  0.31792107143E+03  0.32357597649E+03  0.00000000000E+00 0. -1.
</event>
<event>
 8    1  0.5951278E-006  0.6735953E+02  0.7561462E-02  0.1369309E+00
          3   -1    0    0  501    0  0.00000000000E+00  0.00000000000E+00  0.17243739208E+02  0.17243739208E+02  0.00000000000E+00 0.  1.
         -3   -1    0    0    0  501 -0.00000000000E+00 -0.00000000000E+00 -0.76699127559E+03  0.76699127559E+03  0.00000000000E+00 0. -1.
         23    2    1    2    0    0 -0.14904035711E+02  0.22113261530E+02 -0.52754308908E+03  0.54282593930E+03  0.12508862029E+03 0.  0.
         23    2    1    2    0    0  0.14904035711E+02 -0.22113261530E+02 -0.22220444730E+03  0.24140907549E+03  0.90511870577E+02 0.  0.
          5    1    3    3  502    0 -0.23538306185E+02  0.24501653092E+02 -0.53118782804E+03  0.53228973681E+03  0.41800000000E+01 0. -1.
         -5    1    3    3    0  502  0.86342704745E+01 -0.23883915619E+01  0.36447389533E+01  0.10536202490E+02  0.41800000000E+01 0. -1.
        -11    1    4    4    0    0  0.40746992347E+02 -0.41602443869E+02 -0.17277586540E+03  0.18232547925E+03  0.00000000000E+00 0. -1.
         11    1    4    4    0    0 -0.25842956636E+02  0.19489182339E+02 -0.49428581904E+02  0.59083596242E+02  0.00000000000E+00 0.  1.
</event>
<event>
 7    1  0.5951278E-006  0.8438959E+02  0.7561462E-02  0.1317037E+00
         -1   -1    0    0    0  501 -0.00000000000E+00  0.00000000000E+00  0.35259245339E+02  0.35259245339E+02  0.00000000000E+00 0.  1.
          1   -1    0    0  501    0  0.00000000000E+00 -0.00000000000E+00 -0.26714072968E+03  0.26714072968E+03  0.00000000000E+00 0. -1.
         23    2    1    2    0    0  0.82791324607E+00 -0.16216069777E+02 -0.10662255238E+03  0.16514658838E+03  0.12506550532E+03 0.  0.
          5    1    3    3  502    0  0.13546227152E+02  0.47907188537E+02 -0.80250175254E+02  0.94531275311E+02  0.41800000000E+01 0.  1.
         -5    1    3    3    0  502 -0.12718313906E+02 -0.64123258314E+02 -0.26372377121E+02  0.70615313073E+02  0.41800000000E+01 0.  1.
        -11    1    1    2    0    0 -0.24943703718E+02  0.15127178505E+02 -0.46641792875E+02  0.55013423156E+02  0.00000000000E+00 0.  1.
         11    1    1    2    0    0  0.24115790472E+02  0.10888912722E+01 -0.78617139091E+02  0.82239963480E+02  0.00000000000E+00 0. -1.
</event>
<event>
 8    1  0.5951278E-006  0.1152595E+03  0.7561462E-02  0.1251129E+00
         -2   -1    0    0    0  501 -0.00000000000E+00  0.00000000000E+00  0.25604128598E+02  0.25604128598E+02  0.00000000000E+00 0.  1.
          2   -1    0    0  501    0  0.00000000000E+00 -0.00000000000E+00 -0.58141923908E+03  0.58141923908E+03  0.00000000000E+00 0. -1.
         23    2    1    2    0    0 -0.50581837482E+02  0.90577226061E+01 -0.25978692885E+03  0.29304552301E+03  0.12548253079E+03 0.  0.
         23    2    1    2    0    0  0.50581837482E+02 -0.90577226061E+01 -0.29602818163E+03  0.31397784466E+03  0.91152827709E+02 0.  0.
          5    1    3    3  502    0 -0.68346690982E+02 -0.42019869919E+02 -0.17228586219E+03  0.19009689726E+03  0.41800000000E+01 0. -1.
         -5    1    3    3    0  502  0.17764853499E+02  0.51077592525E+02 -0.87501066658E+02  0.10294862575E+03  0.41800000000E+01 0.  1.
        -11    1    4    4    0    0  0.43418083638E+02 -0.43084427195E+02 -0.12160011237E+03  0.13611754179E+03  0.00000000000E+00 0.  1.
         11    1    4    4    0    0  0.71637538447E+01  0.34026704589E+02 -0.17442806926E+03  0.17786030288E+03  0.00000000000E+00 0. -1.
</event>
<event>
 8    1  0.5951278E-006  0.1107414E+03  0.7561462E-02  0.1259203E+00
         -2   -1    0    0    0  501 -0.00000000000E+00  0.00000000000E+00  0.31748917162E+03  0.31748917162E+03  0.00000000000E+00 0.  1.
          2   -1    0    0  501    0  0.00000000000E+00 -0.00000000000E+00 -0.69512003158E+02  0.69512003158E+02  0.00000000000E+00 0. -1.
         23    2    1    2    0    0 -0.10169545056E+03  0.23726419967E+02  0.12885258226E+03  0.20773277112E+03  0.12508000869E+03 0.  0.
         23    2    1    2    0    0  0.10169545056E+03 -0.23726419967E+02  0.11912458620E+03  0.17926840366E+03  0.83914157593E+02 0.  0.
          5    1    3    3  502    0 -0.51937985761E+02  0.32737112922E+02  0.14247538163E+03  0.15519658404E+03  0.41800000000E+01 0.  1.
         -5    1    3    3    0  502 -0.49757464796E+02 -0.90106929548E+01 -0.13622799367E+02  0.52536187082E+02  0.41800000000E+01 0.  1.
        -11    1    4    4    0    0  0.39615998829E+02  0.65237666088E+01  0.99776774653E+02  0.10755180916E+03  0.00000000000E+00 0.  1.
         11    1    4    4    0    0  0.62079451728E+02 -0.30250186576E+02  0.19347811551E+02  0.71716594499E+02  0.00000000000E+00 0. -1.
</event>
<event>
 8    1  0.5951278E-006  0.1265574E+03  0.7561462E-02  0.1232655E+00
         -1   -1    0    0    0  501 -0.00000000000E+00  0.00000000000E+00  0.13461624769E+03  0.13461624769E+03  0.00000000000E+00 0.  1.
          1   -1    0    0  501    0  0.00000000000E+00 -0.00000000000E+00 -0.13305140550E+03  0.13305140550E+03  0.00000000000E+00 0. -1.
         23    2    1    2    0    0 -0.65958198733E+02 -0.39072245192E+02 -0.73958022863E+01  0.14689961362E+03  0.12509066418E+03 0.  0.
         23    2    1    2    0    0  0.65958198733E+02  0.39072245192E+02  0.89606444751E+01  0.12076803958E+03  0.92884346955E+02 0.  0.
          5    1    3    3  502    0 -0.80198151604E+02 -0.72928127438E+02 -0.13899678131E+02  0.10936603104E+03  0.41800000000E+01 0. -1.
         -5    1    3    3    0  502  0.14239952871E+02  0.33855882246E+02  0.65038758451E+01  0.37533582582E+02  0.41800000000E+01 0. -1.
        -11    1    4    4    0    0 -0.14204770357E+02 -0.63199836280E+01 -0.18948707642E+02  0.24510634738E+02  0.00000000000E+00 0.  1.
         11    1    4    4    0    0  0.80162969090E+02  0.45392228820E+02  0.27909352117E+02  0.96257404839E+02  0.00000000000E+00 0. -1.
</event>
<event>
 8    1  0.5951278E-006  0.1803838E+03  0.7561462E-02  0.1167432E+00
          1   -1    0    0  501    0  0.00000000000E+00  0.00000000000E+00  0.12486457907E+04  0.12486457907E+04  0.00000000000E+00 0. -1.
         -1   -1    0    0    0  501 -0.00000000000E+00 -0.00000000000E+00 -0.27573974294E+02  0.27573974294E+02  0.00000000000E+00 0.  1.
         23    2    1    2    0    0  0.41300036200E+02  0.14059836490E+03  0.75828849297E+03  0.78238328367E+03  0.12509424767E+03 0.  0.
         23    2    1    2    0    0 -0.41300036200E+02 -0.14059836490E+03  0.46278332341E+03  0.49383648129E+03  0.90732974311E+02 0.  0.
          5    1    3    3  502    0  0.83174102984E+02  0.11550049462E+03  0.60108391199E+03  0.61771970773E+03  0.41800000000E+01 0.  1.
         -5    1    3    3    0  502 -0.41874066784E+02  0.25097870281E+02  0.15720458097E+03  0.16466357594E+03  0.41800000000E+01 0.  1.
        -11    1    4    4    0    0  0.18658602384E+02 -0.86921031293E+02  0.19686117975E+03  0.21600401204E+03  0.00000000000E+00 0.  1.
         11    1    4    4    0    0 -0.59958638585E+02 -0.53677333609E+02  0.26592214366E+03  0.27783246925E+03  0.00000000000E+00 0. -1.
</event>
<event>
 8    1  0.5951278E-006  0.1341016E+03  0.7561462E-02  0.1221494E+00
         -2   -1    0    0    0  501 -0.00000000000E+00  0.00000000000E+00  0.87667636156E+02  0.87667636156E+02  0.00000000000E+00 0.  1.
          2   -1    0    0  501    0  0.00000000000E+00 -0.00000000000E+00 -0.29486204344E+03  0.29486204344E+03  0.00000000000E+00 0. -1.
         23    2    1    2    0    0 -0.70536759998E+02  0.94236506393E+02 -0.97398275164E+02  0.19746241950E+03  0.12509608093E+03 0.  0.
         23    2    1    2    0    0  0.70536759998E+02 -0.94236506393E+02 -0.10979613212E+03  0.18506726010E+03  0.91316737138E+02 0.  0.
          5    1    3    3  502    0 -0.14575634240E+01  0.39981334522E+01  0.27738106480E+02  0.28372249000E+02  0.41800000000E+01 0.  1.
         -5    1    3    3    0  502 -0.69079196574E+02  0.90238372940E+02 -0.12513638164E+03  0.16909017050E+03  0.41800000000E+01 0.  1.
        -11    1    4    4    0    0  0.69892518312E+02 -0.17860107902E+02 -0.60613916122E+02  0.94223109681E+02  0.00000000000E+00 0. -1.
         11    1    4    4    0    0  0.64424168681E+00 -0.76376398490E+02 -0.49182216002E+02  0.90844150415E+02  0.00000000000E+00 0.  1.
</event>
<event>
 8    1  0.5951278E-006  0.9537584E+02  0.7561462E-02  0.1290332E+00
         -2   -1    0    0    0  501 -0.00000000000E+00  0.00000000000E+00  0.36688534717E+03  0.36688534717E+03  0.00000000000E+00 0.  1.
          2   -1    0    0  501    0  0.00000000000E+00 -0.00000000000E+00 -0.48195824719E+02  0.48195824719E+02  0.00000000000E+00 0. -1.
         23    2    1    2    0    0  0.51193942790E+02  0.27806424344E+02  0.25432481004E+03  0.28934701428E+03  0.12508624489E+03 0.  0.
         23    2    1    2    0    0 -0.51193942790E+02 -0.27806424344E+02  0.64364712409E+02  0.12573415760E+03  0.90951883827E+02 0.  0.
          5    1    3    3  502    0  0.56878818165E+02 -0.14406791204E+02  0.23524463557E+03  0.24248766268E+03  0.41800000000E+01 0. -1.
         -5    1    3    3    0  502 -0.56848753748E+01  0.42213215547E+02  0.19080174474E+02  0.46859351605E+02  0.41800000000E+01 0. -1.
        -11    1    4    4    0    0 -0.56878085118E+02  0.38102026270E+01  0.72855864533E+02  0.92507357586E+02  0.00000000000E+00 0.  1.
         11    1    4    4    0    0  0.56841423279E+01 -0.31616626971E+02 -0.84911521238E+01  0.33226800017E+02  0.00000000000E+00 0. -1.
</event>
<event>
 8    1  0.5951278E-006  0.2950806E+03  0.7561462E-02  0.1087726E+00
          2   -1    0    0  501    0  0.00000000000E+00  0.00000000000E+00  0.79627313502E+03  0.79627313502E+03  0.00000000000E+00 0.  1.
         -2   -1    0    0    0  501 -0.00000000000E+00 -0.00000000000E+00 -0.13715337226E+03  0.13715337226E+03  0.00000000000E+00 0. -1.
         23    2    1    2    0    0  0.23274844134E+03 -0.15717906941E+03  0.13742888886E+03  0.33676648143E+03  0.12509143342E+03 0.  0.
         23    2    1    2    0    0 -0.23274844134E+03  0.15717906941E+03  0.52169087390E+03  0.59666002584E+03  0.70460781443E+02 0.  0.
          5    1    3    3  502    0  0.24005518671E+03 -0.16823076006E+03  0.13460635801E+03  0.32259018168E+03  0.41800000000E+01 0.  1.
         -5    1    3    3    0  502 -0.73067453766E+01  0.11051690649E+02  0.28225308491E+01  0.14176299750E+02  0.41800000000E+01 0.  1.
        -11    1    4    4    0    0 -0.35518428156E+02  0.40814988166E+02  0.56896543040E+02  0.78515212587E+02  0.00000000000E+00 0.  1.
         11    1    4    4    0    0 -0.19723001318E+03  0.11636408124E+03  0.46479433086E+03  0.51814481326E+03  0.00000000000E+00 0. -1.
</event>
<event>
 8    1  0.5951278E-006  0.7070191E+02  0.7561462E-02  0.1357722E+00
         -4   -1    0    0    0  501 -0.00000000000E+00  0.00000000000E+00  0.54220056443E+03  0.54220056443E+03  0.00000000000E+00 0.  1.
          4   -1    0    0  501    0  0.00000000000E+00 -0.00000000000E+00 -0.50343994395E+02  0.50343994395E+02  0.00000000000E+00 0. -1.
         23    2    1    2    0    0 -0.13149249411E+02  0.20739762820E+02  0.48108145425E+03  0.49768402159E+03  0.12508788594E+03 0.  0.
         23    2    1    2    0    0  0.13149249411E+02 -0.20739762820E+02  0.10775115791E+02  0.94860537233E+02  0.90991086826E+02 0.  0.
          5    1    3    3  502    0 -0.24827511665E+02  0.54690423931E+02  0.11486088839E+03  0.12968401554E+03  0.41800000000E+01 0.  1.
         -5    1    3    3    0  502  0.11678262254E+02 -0.33950661111E+02  0.36622056585E+03  0.36800000605E+03  0.41800000000E+01 0.  1.
        -11    1    4    4    0    0 -0.74828327402E+01  0.71563468665E+01  0.44969287502E+02  0.46145887192E+02  0.00000000000E+00 0.  1.
         11    1    4    4    0    0  0.20632082151E+02 -0.27896109686E+02 -0.34194171712E+02  0.48714650040E+02  0.00000000000E+00 0. -1.
</event>
<event>
 8    1  0.5951278E-006  0.1087744E+03  0.7561462E-02  0.1262856E+00
         -1   -1    0    0    0  501 -0.00000000000E+00  0.00000000000E+00  0.37207786672E+03  0.37207786672E+03  0.00000000000E+00 0.  1.
          1   -1    0    0  501    0  0.00000000000E+00 -0.00000000000E+00 -0.50159093404E+02  0.50159093404E+02  0.00000000000E+00 0. -1.
         23    2    1    2    0    0 -0.33180773365E+02  0.16866378600E+02  0.28640061350E+03  0.31473508327E+03  0.12508965897E+03 0.  0.
         23    2    1    2    0    0  0.33180773365E+02 -0.16866378600E+02  0.35518159811E+02  0.10750187685E+03  0.94391076916E+02 0.  0.
          5    1    3    3  502    0  0.24150560468E+02  0.47422763204E+02  0.65807517537E+02  0.84736472697E+02  0.41800000000E+01 0.  1.
         -5    1    3    3    0  502 -0.57331333833E+02 -0.30556384604E+02  0.22059309597E+03  0.22999861058E+03  0.41800000000E+01 0.  1.
        -11    1    4    4    0    0  0.57501999533E+02  0.14571056597E+02  0.32503055524E+02  0.67640551883E+02  0.00000000000E+00 0.  1.
         11    1    4    4    0    0 -0.24321226168E+02 -0.31437435197E+02  0.30151042875E+01  0.39861324965E+02  0.00000000000E+00 0. -1.
</event>
<event>
 8    1  0.5951278E-006  0.2108919E+03  0.7561462E-02  0.1140862E+00
         -1   -1    0    0    0  501 -0.00000000000E+00  0.00000000000E+00  0.24842420446E+03  0.24842420446E+03  0.00000000000E+00 0.  1.
          1   -1    0    0  501    0  0.00000000000E+00 -0.00000000000E+00 -0.24111094891E+03  0.24111094891E+03  0.00000000000E+00 0. -1.
         23    2    1    2    0    0 -0.27693540668E+02 -0.18047494488E+03  0.12506520277E+03  0.25421762162E+03  0.12508859371E+03 0.  0.
         23    2    1    2    0    0  0.27693540668E+02  0.18047494488E+03 -0.11775194721E+03  0.23531753175E+03  0.90391823473E+02 0.  0.
          5    1    3    3  502    0 -0.75876699059E+02 -0.84448814651E+02  0.69680768524E+02  0.13327324434E+03  0.41800000000E+01 0.  1.
         -5    1    3    3    0  502  0.48183158391E+02 -0.96026130228E+02  0.55384434245E+02  0.12094437728E+03  0.41800000000E+01 0.  1.
        -11    1    4    4    0    0 -0.21127467906E+02  0.12495152304E+03 -0.54224202148E+02  0.13783873588E+03  0.00000000000E+00 0.  1.
         11    1    4    4    0    0  0.48821008574E+02  0.55523421842E+02 -0.63527745062E+02  0.97478795868E+02  0.00000000000E+00 0. -1.
</event>
<event>
 8    1  0.5951278E-006  0.2103868E+03  0.7561462E-02  0.1141260E+00
         -2   -1    0    0    0  501 -0.00000000000E+00  0.00000000000E+00  0.50356315781E+02  0.50356315781E+02  0.00000000000E+00 0.  1.
          2   -1    0    0  501    0  0.00000000000E+00 -0.00000000000E+00 -0.10491408087E+04  0.10491408087E+04  0.00000000000E+00 0. -1.
         23    2    1    2    0    0  0.10646662783E+03 -0.15588910570E+03 -0.34192694138E+03  0.41012109633E+03  0.12509486117E+03 0.  0.
         23    2    1    2    0    0 -0.10646662783E+03  0.15588910570E+03 -0.65685755155E+03  0.68937602816E+03  0.90226986317E+02 0.  0.
          5    1    3    3  502    0 -0.68770420648E+01 -0.98384186374E+02 -0.16414217357E+03  0.19153816169E+03  0.41800000000E+01 0.  1.
         -5    1    3    3    0  502  0.11334366990E+03 -0.57504919330E+02 -0.17778476781E+03  0.21858293465E+03  0.41800000000E+01 0.  1.
        -11    1    4    4    0    0 -0.50714998995E+02  0.34562865627E+02 -0.10523555053E+03  0.12182415154E+03  0.00000000000E+00 0. -1.
         11    1    4    4    0    0 -0.55751628840E+02  0.12132624008E+03 -0.55162200102E+03  0.56755187662E+03  0.00000000000E+00 0.  1.
</event>
<event>
 8    1  0.5951278E-006  0.1155587E+03  0.7561462E-02  0.1250609E+00
         -1   -1    0    0    0  501 -0.00000000000E+00  0.00000000000E+00  0.11631213102E+03  0.11631213102E+03  0.00000000000E+00 0.  1.
          1   -1    0    0  501    0  0.00000000000E+00 -0.00000000000E+00 -0.12130538470E+03  0.12130538470E+03  0.00000000000E+00 0. -1.
         23    2    1    2    0    0 -0.11440230645E+02  0.41728497754E+02  0.19130228309E+02  0.13373564534E+03  0.12508841192E+03 0.  0.
         23    2    1    2    0    0  0.11440230645E+02 -0.41728497754E+02 -0.24123481988E+02  0.10388187039E+03  0.91309113509E+02 0.  0.
          5    1    3    3  502    0 -0.56716965271E+02 -0.13795060687E+02 -0.31105557882E+01  0.58602609210E+02  0.41800000000E+01 0.  1.
         -5    1    3    3    0  502  0.45276734626E+02  0.55523558441E+02  0.22240784098E+02  0.75133036127E+02  0.41800000000E+01 0.  1.
        -11    1    4    4    0    0  0.11428311808E+02 -0.70822001510E+02 -0.20179099501E+02  0.74522199815E+02  0.00000000000E+00 0. -1.
         11    1    4    4    0    0  0.11918837255E-01  0.29093503756E+02 -0.39443824868E+01  0.29359670571E+02  0.00000000000E+00 0.  1.
</event>
<event>
 8    1  0.5951278E-006  0.9682992E+02  0.7561462E-02  0.1287107E+00
         -2   -1    0    0    0  501 -0.00000000000E+00  0.00000000000E+00  0.23862853214E+02  0.23862853214E+02  0.00000000000E+00 0.  1.
          2   -1    0    0  501    0  0.00000000000E+00 -0.00000000000E+00 -0.57418859258E+03  0.57418859258E+03  0.00000000000E+00 0. -1.
         23    2    1    2    0    0  0.16343750705E+02 -0.26057541474E+02 -0.23003788371E+03  0.26364909640E+03  0.12508918591E+03 0.  0.
         23    2    1    2    0    0 -0.16343750705E+02  0.26057541474E+02 -0.32028785566E+03  0.33440234940E+03  0.91074184869E+02 0.  0.
          5    1    3    3  502    0  0.36920278535E+02 -0.56033762690E+02 -0.61286728059E+02  0.90974858969E+02  0.41800000000E+01 0.  1.
         -5    1    3    3    0  502 -0.20576527830E+02  0.29976221216E+02 -0.16875115566E+03  0.17267423743E+03  0.41800000000E+01 0.  1.
        -11    1    4    4    0    0 -0.45654534988E+02 -0.63925781009E+01 -0.22335368579E+03  0.22806154997E+03  0.00000000000E+00 0.  1.
         11    1    4    4    0    0  0.29310784282E+02  0.32450119575E+02 -0.96934169869E+02  0.10634079943E+03  0.00000000000E+00 0. -1.
</event>
<event>
 8    1  0.5951278E-006  0.7831476E+02  0.7561462E-02  0.1333903E+00
          1   -1    0    0  501    0  0.00000000000E+00  0.00000000000E+00  0.55252379718E+03  0.55252379718E+03  0.00000000000E+00 0. -1.
         -1   -1    0    0    0  501 -0.00000000000E+00 -0.00000000000E+00 -0.28186670839E+02  0.28186670839E+02  0.00000000000E+00 0.  1.
         23    2    1    2    0    0 -0.19232906213E+02  0.41745539052E+02  0.18975531505E+03  0.23187721864E+03  0.12508944889E+03 0.  0.
         23    2    1    2    0    0  0.19232906213E+02 -0.41745539052E+02  0.33458181129E+03  0.34883324937E+03  0.87332998975E+02 0.  0.
          5    1    3    3  502    0 -0.42279383726E+02  0.97273023666E+01  0.18710891176E+03  0.19211815104E+03  0.41800000000E+01 0. -1.
         -5    1    3    3    0  502  0.23046477513E+02  0.32018236685E+02  0.26464032884E+01  0.39759067602E+02  0.41800000000E+01 0. -1.
        -11    1    4    4    0    0 -0.19715772335E+02 -0.62649517988E+01  0.16621674469E+02  0.26537546268E+02  0.00000000000E+00 0.  1.
         11    1    4    4    0    0  0.38948678547E+02 -0.35480587253E+02  0.31796013682E+03  0.32229570310E+03  0.00000000000E+00 0. -1.
</event>
<event>
 8    1  0.5951278E-006  0.1369533E+03  0.7561462E-02  0.1217488E+00
          1   -1    0    0  501    0  0.00000000000E+00  0.00000000000E+00  0.13775927790E+03  0.13775927790E+03  0.00000000000E+00 0. -1.
         -1   -1    0    0    0  501 -0.00000000000E+00 -0.00000000000E+00 -0.21423814675E+03  0.21423814675E+03  0.00000000000E+00 0.  1.
         23    2    1    2    0    0  0.18265462581E+02  0.12249381447E+03 -0.85052186801E+02  0.19549853679E+03  0.12508973460E+03 0.  0.
         23    2    1    2    0    0 -0.18265462581E+02 -0.12249381447E+03  0.85733179562E+01  0.15649888785E+03  0.95289235556E+02 0.  0.
          5    1    3    3  502    0  0.88075009252E+01  0.68879043399E+02  0.23959812838E+02  0.73576081190E+02  0.41800000000E+01 0.  1.
         -5    1    3    3    0  502  0.94579616563E+01  0.53614771067E+02 -0.10901199964E+03  0.12192245560E+03  0.41800000000E+01 0.  1.
        -11    1    4    4    0    0  0.33830573091E+02 -0.43376869784E+02 -0.18399394098E+02  0.58005156763E+02  0.00000000000E+00 0.  1.
         11    1    4    4    0    0 -0.52096035672E+02 -0.79116944682E+02  0.26972712054E+02  0.98493731091E+02  0.00000000000E+00 0. -1.
</event>
<event>
 8    1  0.5951278E-006  0.1488490E+03  0.7561462E-02  0.1201894E+00
         -2   -1    0    0    0  501 -0.00000000000E+00  0.00000000000E+00  0.11030999590E+03  0.11030999590E+03  0.00000000000E+00 0. -1.
          2   -1    0    0  501    0  0.00000000000E+00 -0.00000000000E+00 -0.25945377844E+03  0.25945377844E+03  0.00000000000E+00 0.  1.
         23    2    1    2    0    0 -0.11047306634E+03 -0.33818895623E+01 -0.85053907932E+01  0.16713267731E+03  0.12508099212E+03 0.  0.
         23    2    1    2    0    0  0.11047306634E+03  0.33818895623E+01 -0.14063839175E+03  0.20263109703E+03  0.95207503307E+02 0.  0.
          5    1    3    3  502    0 -0.25124808179E+02  0.50143270605E+02  0.24063459270E+02  0.61172919213E+02  0.41800000000E+01 0. -1.
         -5    1    3    3    0  502 -0.85348258158E+02 -0.53525160167E+02 -0.32568850064E+02  0.10595975810E+03  0.41800000000E+01 0. -1.
        -11    1    4    4    0    0  0.51431803772E+02  0.45042263202E+02 -0.41581846101E+02  0.80019284168E+02  0.00000000000E+00 0.  1.
         11    1    4    4    0    0  0.59041262564E+02 -0.41660373639E+02 -0.99056545647E+02  0.12261181286E+03  0.00000000000E+00 0. -1.
</event>
<event>
 8    1  0.5951278E-006  0.3307958E+03  0.7561462E-02  0.1070785E+00
          1   -1    0    0  501    0  0.00000000000E+00  0.00000000000E+00  0.79572313740E+03  0.79572313740E+03  0.00000000000E+00 0. -1.
         -1   -1    0    0    0  501 -0.00000000000E+00 -0.00000000000E+00 -0.14781851272E+03  0.14781851272E+03  0.00000000000E+00 0.  1.
         23    2    1    2    0    0  0.92854026800E+02 -0.30544234286E+03  0.40594483968E+03  0.53136805901E+03  0.12507560181E+03 0.  0.
         23    2    1    2    0    0 -0.92854026800E+02  0.30544234286E+03  0.24195978500E+03  0.41217359112E+03  0.97085717561E+02 0.  0.
          5    1    3    3  502    0 -0.15650880570E+02 -0.12363364593E+03  0.10291657228E+03  0.16167721459E+03  0.41800000000E+01 0. -1.
         -5    1    3    3    0  502  0.10850490737E+03 -0.18180869693E+03  0.30302826740E+03  0.36969084442E+03  0.41800000000E+01 0. -1.
        -11    1    4    4    0    0 -0.10909634135E+02  0.14084743440E+03  0.59968402677E+02  0.15347061352E+03  0.00000000000E+00 0. -1.
         11    1    4    4    0    0 -0.81944392665E+02  0.16459490846E+03  0.18199138232E+03  0.25870297760E+03  0.00000000000E+00 0.  1.
</event>
<event>
 8    1  0.5951278E-006  0.1294716E+03  0.7561462E-02  0.1228242E+00
         -2   -1    0    0    0  501 -0.00000000000E+00  0.00000000000E+00  0.56783275347E+03  0.56783275347E+03  0.00000000000E+00 0. -1.
          2   -1    0    0  501    0  0.00000000000E+00 -0.00000000000E+00 -0.40245826587E+02  0.40245826587E+02  0.00000000000E+00 0.  1.
         23    2    1    2    0    0 -0.47702428853E+02 -0.93530581849E+02  0.29717953873E+03  0.33909669586E+03  0.12508956570E+03 0.  0.
         23    2    1    2    0    0  0.47702428853E+02  0.93530581849E+02  0.23040738816E+03  0.26898188420E+03  0.90775536619E+02 0.  0.
          5    1    3    3  502    0 -0.74274954370E+02 -0.99792257049E+02  0.18091827906E+03  0.21959999889E+03  0.41800000000E+01 0.  1.
         -5    1    3    3    0  502  0.26572525517E+02  0.62616751993E+01  0.11626125967E+03  0.11949669698E+03  0.41800000000E+01 0.  1.
        -11    1    4    4    0    0  0.11375095205E+01  0.18596395612E+02 -0.35291256641E+01  0.18962451994E+02  0.00000000000E+00 0.  1.
         11    1    4    4    0    0  0.46564919333E+02  0.74934186237E+02  0.23393651382E+03  0.25001943220E+03  0.00000000000E+00 0. -1.
</event>
<event>
 8    1  0.5951278E-006  0.9346073E+02  0.7561462E-02  0.1294681E+00
         -1   -1    0    0    0  501 -0.00000000000E+00  0.00000000000E+00  0.91625394315E+02  0.91625394315E+02  0.00000000000E+00 0.  1.
          1   -1    0    0  501    0  0.00000000000E+00 -0.00000000000E+00 -0.21484088174E+03  0.21484088174E+03  0.00000000000E+00 0. -1.
         23    2    1    2    0    0 -0.50433037643E+01  0.16399019861E+02  0.28219607673E+02  0.12937875919E+03  0.12509258294E+03 0.  0.
         23    2    1    2    0    0  0.50433037643E+01 -0.16399019861E+02 -0.15143509510E+03  0.17708751687E+03  0.90183356763E+02 0.  0.
          5    1    3    3  502    0  0.10605191196E+02 -0.47068759698E+02 -0.15239821542E+02  0.50770688202E+02  0.41800000000E+01 0. -1.
         -5    1    3    3    0  502 -0.15648494961E+02  0.63467779559E+02  0.43459429215E+02  0.78608070988E+02  0.41800000000E+01 0. -1.
        -11    1    4    4    0    0  0.29040856863E+02  0.15620966114E+02 -0.17558620159E+02  0.37358949284E+02  0.00000000000E+00 0.  1.
         11    1    4    4    0    0 -0.23997553098E+02 -0.32019985976E+02 -0.13387647494E+03  0.13972856758E+03  0.00000000000E+00 0. -1.
</event>
<event>
 8    1  0.5951278E-006  0.1386714E+03  0.7561462E-02  0.1215128E+00
         -1   -1    0    0    0  501 -0.00000000000E+00  0.00000000000E+00  0.15112057613E+03  0.15112057613E+03  0.00000000000E+00 0.  1.
          1   -1    0    0  501    0  0.00000000000E+00 -0.00000000000E+00 -0.13660366298E+03  0.13660366298E+03  0.00000000000E+00 0. -1.
         23    2    1    2    0    0 -0.21460330630E+02  0.85766502811E+02  0.36035753687E+02  0.15735310272E+03  0.12507991285E+03 0.  0.
         23    2    1    2    0    0  0.21460330630E+02 -0.85766502811E+02 -0.21518840542E+02  0.13037113639E+03  0.93365592747E+02 0.  0.
          5    1    3    3  502    0 -0.36927143609E+02 -0.22584072487E+02  0.70601531472E+01  0.44056468625E+02  0.41800000000E+01 0. -1.
         -5    1    3    3    0  502  0.15466812979E+02  0.10835057530E+03  0.28975600540E+02  0.11329663410E+03  0.41800000000E+01 0. -1.
        -11    1    4    4    0    0 -0.21414257861E+02  0.66718564602E+01 -0.17405465499E+02  0.28390743872E+02  0.00000000000E+00 0. -1.
         11    1    4    4    0    0  0.42874588491E+02 -0.92438359272E+02 -0.41133750424E+01  0.10198039251E+03  0.00000000000E+00 0.  1.
</event>
<event>
 8    1  0.5951278E-006  0.9114674E+02  0.7561462E-02  0.1300098E+00
         -1   -1    0    0    0  501 -0.00000000000E+00  0.00000000000E+00  0.32595148038E+03  0.32595148038E+03  0.00000000000E+00 0.  1.
          1   -1    0    0  501    0  0.00000000000E+00 -0.00000000000E+00 -0.41831081200E+02  0.41831081200E+02  0.00000000000E+00 0. -1.
         23    2    1    2    0    0 -0.21564262277E+02  0.27886559457E+02  0.11793494384E+03  0.17549608009E+03  0.12509014966E+03 0.  0.
         23    2    1    2    0    0  0.21564262277E+02 -0.27886559457E+02  0.16618545534E+03  0.19228648149E+03  0.90076677288E+02 0.  0.
          5    1    3    3  502    0  0.41062054375E+02 -0.11825205138E+02  0.82934056265E+02  0.93388745974E+02  0.41800000000E+01 0. -1.
         -5    1    3    3    0  502 -0.62626316652E+02  0.39711764596E+02  0.35000887576E+02  0.82107334117E+02  0.41800000000E+01 0. -1.
        -11    1    4    4    0    0 -0.31074838223E+01 -0.38213243513E+02  0.16040495916E+03  0.16492319230E+03  0.00000000000E+00 0.  1.
         11    1    4    4    0    0  0.24671746099E+02  0.10326684056E+02  0.57804961799E+01  0.27363289189E+02  0.00000000000E+00 0. -1.
</event>
<event>
 7    1  0.5951278E-006  0.2139601E+03  0.7561462E-02  0.1138468E+00
         -2   -1    0    0    0  501 -0.00000000000E+00  0.00000000000E+00  0.46916870866E+02  0.46916870866E+02  0.00000000000E+00 0.  1.
          2   -1    0    0  501    0  0.00000000000E+00 -0.00000000000E+00 -0.11243466643E+04  0.11243466643E+04  0.00000000000E+00 0. -1.
         23    2    1    2    0    0 -0.74121841171E+02  0.33323856574E+01 -0.35178550991E+03  0.37007018754E+03  0.87714004549E+02 0.  0.
          5    1    1    2  502    0  0.10338982100E+02 -0.15393700728E+03 -0.49435230824E+03  0.51788529021E+03  0.41800000000E+01 0. -1.
         -5    1    1    2    0  502  0.63782859072E+02  0.15060462162E+03 -0.23129197533E+03  0.28330805745E+03  0.41800000000E+01 0.  1.
        -11    1    3    3    0    0 -0.70512760587E+02  0.34566946023E+02 -0.19606475752E+03  0.21120679985E+03  0.00000000000E+00 0. -1.
         11    1    3    3    0    0 -0.36090805847E+01 -0.31234560365E+02 -0.15572075239E+03  0.15886338769E+03  0.00000000000E+00 0.  1.
</event>
<event>
 8    1  0.5951278E-006  0.9640646E+02  0.7561462E-02  0.1288039E+00
         -1   -1    0    0    0  501 -0.00000000000E+00  0.00000000000E+00  0.13168343610E+04  0.13168343610E+04  0.00000000000E+00 0.  1.
          1   -1    0    0  501    0  0.00000000000E+00 -0.00000000000E+00 -0.22621311463E+02  0.22621311463E+02  0.00000000000E+00 0. -1.
         23    2    1    2    0    0 -0.46112428273E+02  0.28659359935E+01  0.11754310524E+04  0.11829713124E+04  0.12509355387E+03 0.  0.
         23    2    1    2    0    0  0.46112428273E+02 -0.28659359935E+01  0.11878199705E+03  0.15648436005E+03  0.90794396775E+02 0.  0.
          5    1    3    3  502    0 -0.39520140550E+02 -0.46378523697E+02  0.95591311995E+03  0.95786229400E+03  0.41800000000E+01 0.  1.
         -5    1    3    3    0  502 -0.65922877228E+01  0.49244459691E+02  0.21951793248E+03  0.22510901836E+03  0.41800000000E+01 0.  1.
        -11    1    4    4    0    0  0.58213731134E+02 -0.19424013233E+02  0.35890253204E+02  0.71093185733E+02  0.00000000000E+00 0. -1.
         11    1    4    4    0    0 -0.12101302861E+02  0.16558077240E+02  0.82891743849E+02  0.85391174317E+02  0.00000000000E+00 0.  1.
</event>
<event>
 8    1  0.5951278E-006  0.1103745E+03  0.7561462E-02  0.1259878E+00
         -1   -1    0    0    0  501 -0.00000000000E+00  0.00000000000E+00  0.66919405590E+02  0.66919405590E+02  0.00000000000E+00 0.  1.
          1   -1    0    0  501    0  0.00000000000E+00 -0.00000000000E+00 -0.30864876937E+03  0.30864876937E+03  0.00000000000E+00 0. -1.
         23    2    1    2    0    0  0.64715780994E+02 -0.42606130086E+02 -0.61475912786E+02  0.15947035664E+03  0.12509233455E+03 0.  0.
         23    2    1    2    0    0 -0.64715780994E+02  0.42606130086E+02 -0.18025345099E+03  0.21609781832E+03  0.90573427980E+02 0.  0.
          5    1    3    3  502    0 -0.92996016005E+01 -0.58777367850E+02  0.32409190795E+01  0.59743095984E+02  0.41800000000E+01 0. -1.
         -5    1    3    3    0  502  0.74015382595E+02  0.16171237764E+02 -0.64716831865E+02  0.99727260657E+02  0.41800000000E+01 0. -1.
        -11    1    4    4    0    0 -0.50717478020E+02  0.12830499405E+02 -0.26085410681E+02  0.58457958757E+02  0.00000000000E+00 0.  1.
         11    1    4    4    0    0 -0.13998302974E+02  0.29775630681E+02 -0.15416804031E+03  0.15763985956E+03  0.00000000000E+00 0. -1.
</event>
<event>
 8    1  0.5951278E-006  0.1070276E+03  0.7561462E-02  0.1266175E+00
         -1   -1    0    0    0  501 -0.00000000000E+00  0.00000000000E+00  0.24878542383E+02  0.24878542383E+02  0.00000000000E+00 0.  1.
          1   -1    0    0  501    0  0.00000000000E+00 -0.00000000000E+00 -0.77534426651E+03  0.77534426651E+03  0.00000000000E+00 0. -1.
         23    2    1    2    0    0  0.12560378143E+01  0.86265577820E+02 -0.36626719467E+03  0.39653745985E+03  0.12508785561E+03 0.  0.
         23    2    1    2    0    0 -0.12560378143E+01 -0.86265577820E+02 -0.38419852946E+03  0.40368534905E+03  0.88938312612E+02 0.  0.
          5    1    3    3  502    0 -0.64403058060E+01  0.77550732413E+02 -0.37395289927E+03  0.38198669730E+03  0.41800000000E+01 0. -1.
         -5    1    3    3    0  502  0.76963436204E+01  0.87148454072E+01  0.76857046018E+01  0.14550762551E+02  0.41800000000E+01 0. -1.
        -11    1    4    4    0    0 -0.21162993285E+02 -0.98270403881E+02 -0.30430572558E+03  0.32047920242E+03  0.00000000000E+00 0.  1.
         11    1    4    4    0    0  0.19906955471E+02  0.12004826061E+02 -0.79892803881E+02  0.83206146629E+02  0.00000000000E+00 0. -1.
</event>
<event>
 8    1  0.5951278E-006  0.8815826E+02  0.7561462E-02  0.1307374E+00
         -2   -1    0    0    0  501 -0.00000000000E+00  0.00000000000E+00  0.84355715990E+02  0.84355715990E+02  0.00000000000E+00 0. -1.
          2   -1    0    0  501    0  0.00000000000E+00 -0.00000000000E+00 -0.16477049108E+03  0.16477049108E+03  0.00000000000E+00 0.  1.
         23    2    1    2    0    0  0.65737090145E+01 -0.31629496181E+02 -0.11150682365E+02  0.12968593595E+03  0.12510182087E+03 0.  0.
         23    2    1    2    0    0 -0.65737090145E+01  0.31629496181E+02 -0.69264092727E+02  0.11944027113E+03  0.91786846260E+02 0.  0.
          5    1    3    3  502    0  0.89896776538E+01  0.48208814225E+02 -0.47350353527E+01  0.49444888847E+02  0.41800000000E+01 0. -1.
         -5    1    3    3    0  502 -0.24159686393E+01 -0.79838310406E+02 -0.64156470123E+01  0.80241047099E+02  0.41800000000E+01 0. -1.
        -11    1    4    4    0    0 -0.18958089987E+02  0.28687338817E+02 -0.89306368803E+02  0.95697440369E+02  0.00000000000E+00 0.  1.
         11    1    4    4    0    0  0.12384380973E+02  0.29421573649E+01  0.20042276076E+02  0.23742830757E+02  0.00000000000E+00 0. -1.
</event>
<event>
 8    1  0.5951278E-006  0.8252357E+02  0.7561462E-02  0.1322039E+00
          1   -1    0    0  501    0  0.00000000000E+00  0.00000000000E+00  0.16711221840E+02  0.16711221840E+02  0.00000000000E+00 0. -1.
         -1   -1    0    0    0  501 -0.00000000000E+00 -0.00000000000E+00 -0.94601166534E+03  0.94601166534E+03  0.00000000000E+00 0.  1.
         23    2    1    2    0    0  0.53194858817E+02 -0.16925868520E+02 -0.63072614942E+03  0.64542933391E+03  0.12508945390E+03 0.  0.
         23    2    1    2    0    0 -0.53194858817E+02  0.16925868520E+02 -0.29857429408E+03  0.31729355327E+03  0.91719201004E+02 0.  0.
          5    1    3    3  502    0  0.45322791585E+02  0.21391185378E+02 -0.57511695889E+03  0.57731163773E+03  0.41800000000E+01 0. -1.
         -5    1    3    3    0  502  0.78720672322E+01 -0.38317053897E+02 -0.55609190524E+02  0.68117696178E+02  0.41800000000E+01 0. -1.
        -11    1    4    4    0    0 -0.53098170610E+02 -0.51431009767E+01 -0.28785928728E+03  0.29276071540E+03  0.00000000000E+00 0.  1.
         11    1    4    4    0    0 -0.96688206934E-01  0.22068969496E+02 -0.10715006802E+02  0.24532837871E+02  0.00000000000E+00 0. -1.
</event>
<event>
 8    1  0.5951278E-006  0.1389326E+03  0.7561462E-02  0.1214772E+00
          2   -1    0    0  501    0  0.00000000000E+00  0.00000000000E+00  0.13187474575E+03  0.13187474575E+03  0.00000000000E+00 0. -1.
         -2   -1    0    0    0  501 -0.00000000000E+00 -0.00000000000E+00 -0.15571617319E+03  0.15571617319E+03  0.00000000000E+00 0.  1.
         23    2    1    2    0    0 -0.67938184321E+02 -0.52662789460E+02  0.15635662719E+02  0.15258733378E+03  0.12509777856E+03 0.  0.
         23    2    1    2    0    0  0.67938184321E+02  0.52662789460E+02 -0.39477090153E+02  0.13500358515E+03  0.96325287827E+02 0.  0.
          5    1    3    3  502    0 -0.16824635627E+02 -0.86651327040E+02 -0.26327555192E+01  0.88407718234E+02  0.41800000000E+01 0. -1.
         -5    1    3    3    0  502 -0.51113548694E+02  0.33988537580E+02  0.18268418238E+02  0.64179615548E+02  0.41800000000E+01 0. -1.
        -11    1    4    4    0    0  0.63569878479E+02 -0.10695528372E+02 -0.10969253527E+02  0.65389970943E+02  0.00000000000E+00 0.  1.
         11    1    4    4    0    0  0.43683058422E+01  0.63358317832E+02 -0.28507836627E+02  0.69613614211E+02  0.00000000000E+00 0. -1.
</event>
<event>
 8    1  0.5951278E-006  0.1005512E+03  0.7561462E-02  0.1279141E+00
          2   -1    0    0  501    0  0.00000000000E+00  0.00000000000E+00  0.63637105220E+02  0.63637105220E+02  0.00000000000E+00 0. -1.
         -2   -1    0    0    0  501 -0.00000000000E+00 -0.00000000000E+00 -0.40106610526E+03  0.40106610526E+03  0.00000000000E+00 0.  1.
         23    2    1    2    0    0 -0.68925069390E+01 -0.44758185579E+02 -0.33776136709E+03  0.36301516247E+03  0.12508583156E+03 0.  0.
         23    2    1    2    0    0  0.68925069390E+01  0.44758185579E+02  0.33236704624E+00  0.10168804801E+03  0.91046948399E+02 0.  0.
          5    1    3    3  502    0 -0.51248800210E+02 -0.19462090992E+02 -0.63430140420E+02  0.83940857885E+02  0.41800000000E+01 0. -1.
         -5    1    3    3    0  502  0.44356293271E+02 -0.25296094587E+02 -0.27433122667E+03  0.27907430459E+03  0.41800000000E+01 0. -1.
        -11    1    4    4    0    0  0.38665526713E+02 -0.15884905957E+01  0.18144222572E+02  0.42740602138E+02  0.00000000000E+00 0. -1.
         11    1    4    4    0    0 -0.31773019774E+02  0.46346676174E+02 -0.17811855526E+02  0.58947445875E+02  0.00000000000E+00 0.  1.
</event>
<event>
 8    1  0.5951278E-006  0.1126385E+03  0.7561462E-02  0.1255760E+00
          1   -1    0    0  501    0  0.00000000000E+00  0.00000000000E+00  0.35592266098E+03  0.35592266098E+03  0.00000000000E+00 0. -1.
         -1   -1    0    0    0  501 -0.00000000000E+00 -0.00000000000E+00 -0.43207476260E+02  0.43207476260E+02  0.00000000000E+00 0.  1.
         23    2    1    2    0    0 -0.56076690234E+02  0.13231784599E+02  0.14643482119E+03  0.20101960473E+03  0.12508416892E+03 0.  0.
         23    2    1    2    0    0  0.56076690234E+02 -0.13231784599E+02  0.16628036353E+03  0.19811053251E+03  0.90988727253E+02 0.  0.
          5    1    3    3  502    0 -0.29198246436E+02  0.69028590354E+02  0.70957309446E+02  0.10329518888E+03  0.41800000000E+01 0.  1.
         -5    1    3    3    0  502 -0.26878443799E+02 -0.55796805755E+02  0.75477511747E+02  0.97724415849E+02  0.41800000000E+01 0.  1.
        -11    1    4    4    0    0  0.17195690861E+01 -0.30924657493E+02  0.11376667662E+02  0.32995756182E+02  0.00000000000E+00 0.  1.
         11    1    4    4    0    0  0.54357121148E+02  0.17692872894E+02  0.15490369587E+03  0.16511477633E+03  0.00000000000E+00 0. -1.
</event>
<event>
 8    1  0.5951278E-006  0.1330566E+03  0.7561462E-02  0.1222989E+00
          2   -1    0    0  501    0  0.00000000000E+00  0.00000000000E+00  0.27660005544E+03  0.27660005544E+03  0.00000000000E+00 0. -1.
         -2   -1    0    0    0  501 -0.00000000000E+00 -0.00000000000E+00 -0.77614894903E+02  0.77614894903E+02  0.00000000000E+00 0.  1.
         23    2    1    2    0    0  0.45070217805E+02  0.86351112060E+02  0.84686399083E+02  0.17974154147E+03  0.12508955373E+03 0.  0.
         23    2    1    2    0    0 -0.45070217805E+02 -0.86351112060E+02  0.11429876145E+03  0.17447340887E+03  0.88819617471E+02 0.  0.
          5    1    3    3  502    0  0.17242910034E+02  0.11493845729E+03  0.75287757325E+02  0.13854199982E+03  0.41800000000E+01 0.  1.
         -5    1    3    3    0  502  0.27827307771E+02 -0.28587345230E+02  0.93986417587E+01  0.41199541648E+02  0.41800000000E+01 0.  1.
        -11    1    4    4    0    0 -0.97031015131E+01 -0.70117116033E+02  0.11558447812E+03  0.13553719682E+03  0.00000000000E+00 0. -1.
         11    1    4    4    0    0 -0.35367116292E+02 -0.16233996027E+02 -0.12857166669E+01  0.38936212055E+02  0.00000000000E+00 0.  1.
</event>
<event>
 8    1  0.5951278E-006  0.9924476E+02  0.7561462E-02  0.1281892E+00
         -1   -1    0    0    0  501 -0.00000000000E+00  0.00000000000E+00  0.51023873143E+02  0.51023873143E+02  0.00000000000E+00 0.  1.
          1   -1    0    0  501    0  0.00000000000E+00 -0.00000000000E+00 -0.23517813342E+03  0.23517813342E+03  0.00000000000E+00 0. -1.
         23    2    1    2    0    0  0.18228548761E+02  0.37571904693E+02 -0.10033887109E+03  0.16570957039E+03  0.12509134525E+03 0.  0.
         23    2    1    2    0    0 -0.18228548761E+02 -0.37571904693E+02 -0.83815389189E+02  0.12049243617E+03  0.75825323589E+02 0.  0.
          5    1    3    3  502    0 -0.25010375976E+02 -0.37409734654E+02 -0.36011963376E+02  0.57787031933E+02  0.41800000000E+01 0.  1.
         -5    1    3    3    0  502  0.43238924737E+02  0.74981639348E+02 -0.64326907710E+02  0.10792253846E+03  0.41800000000E+01 0.  1.
        -11    1    4    4    0    0 -0.59485766621E+01 -0.49300618233E+02 -0.89693648817E+02  0.10252261780E+03  0.00000000000E+00 0.  1.
         11    1    4    4    0    0 -0.12279972099E+02  0.11728713540E+02  0.58782596279E+01  0.17969818372E+02  0.00000000000E+00 0. -1.
</event>
<event>
 8    1  0.5951278E-006  0.1276079E+03  0.7561462E-02  0.1231049E+00
          2   -1    0    0  501    0  0.00000000000E+00  0.00000000000E+00  0.13465097957E+03  0.13465097957E+03  0.00000000000E+00 0. -1.
         -2   -1    0    0    0  501 -0.00000000000E+00 -0.00000000000E+00 -0.22128890227E+03  0.22128890227E+03  0.00000000000E+00 0.  1.
         23    2    1    2    0    0 -0.62208655854E+02  0.74357204157E+02 -0.14124229358E+03  0.21213154419E+03  0.12510593860E+03 0.  0.
         23    2    1    2    0    0  0.62208655854E+02 -0.74357204157E+02  0.54604370875E+02  0.14380833765E+03  0.91105927282E+02 0.  0.
          5    1    3    3  502    0 -0.71036353705E+02 -0.11303578696E+02 -0.63385388050E+02  0.95964130055E+02  0.41800000000E+01 0.  1.
         -5    1    3    3    0  502  0.88276978515E+01  0.85660782852E+02 -0.77856905526E+02  0.11616741413E+03  0.41800000000E+01 0.  1.
        -11    1    4    4    0    0  0.31350756306E+02 -0.37229177772E+02  0.76601237332E+02  0.90755887739E+02  0.00000000000E+00 0. -1.
         11    1    4    4    0    0  0.30857899548E+02 -0.37128026384E+02 -0.21996866456E+02  0.53052449911E+02  0.00000000000E+00 0.  1.
</event>
<event>
 8    1  0.5951278E-006  0.1505146E+03  0.7561462E-02  0.1199842E+00
          2   -1    0    0  501    0  0.00000000000E+00  0.00000000000E+00  0.29434323408E+03  0.29434323408E+03  0.00000000000E+00 0. -1.
         -2   -1    0    0    0  501 -0.00000000000E+00 -0.00000000000E+00 -0.88974505850E+02  0.88974505850E+02  0.00000000000E+00 0.  1.
         23    2    1    2    0    0  0.80208746866E+02 -0.72039390506E+02  0.48640491064E+02  0.17215276433E+03  0.12509020760E+03 0.  0.
         23    2    1    2    0    0 -0.80208746866E+02  0.72039390506E+02  0.15672823717E+03  0.21116497560E+03  0.91672186278E+02 0.  0.
          5    1    3    3  502    0  0.10002643896E+03 -0.14709791003E+02  0.46372571889E+02  0.11130837464E+03  0.41800000000E+01 0. -1.
         -5    1    3    3    0  502 -0.19817692092E+02 -0.57329599503E+02  0.22679191749E+01  0.60844389687E+02  0.41800000000E+01 0. -1.
        -11    1    4    4    0    0 -0.47677750261E+02  0.90021898359E+02  0.96067278645E+02  0.14002154149E+03  0.00000000000E+00 0.  1.
         11    1    4    4    0    0 -0.32530996605E+02 -0.17982507853E+02  0.60660958522E+02  0.71143434115E+02  0.00000000000E+00 0. -1.
</event>
<event>
 7    1  0.5951278E-006  0.7903034E+03  0.7561462E-02  0.9574160E-01
         -1   -1    0    0    0  501 -0.00000000000E+00  0.00000000000E+00  0.77247123284E+03  0.77247123284E+03  0.00000000000E+00 0.  1.
          1   -1    0    0  501    0  0.00000000000E+00 -0.00000000000E+00 -0.10419574672E+04  0.10419574672E+04  0.00000000000E+00 0. -1.
         23    2    1    2    0    0 -0.24890010710E+03 -0.30270423472E+03 -0.45824163463E+03  0.60942072029E+03  0.88470908065E+02 0.  0.
          5    1    1    2  502    0 -0.28393351111E+03  0.53432997825E+03  0.14573815117E+03  0.62240167536E+03  0.41800000000E+01 0. -1.
         -5    1    1    2    0  502  0.53283361821E+03 -0.23162574353E+03  0.43017249133E+02  0.58260630436E+03  0.41800000000E+01 0.  1.
        -11    1    3    3    0    0 -0.10447102414E+03 -0.16263105178E+03 -0.28236670017E+03  0.34219001629E+03  0.00000000000E+00 0. -1.
         11    1    3    3    0    0 -0.14442908296E+03 -0.14007318294E+03 -0.17587493446E+03  0.26723070399E+03  0.00000000000E+00 0.  1.
</event>
<event>
 8    1  0.5951278E-006  0.1624880E+03  0.7561462E-02  0.1185916E+00
          2   -1    0    0  501    0  0.00000000000E+00  0.00000000000E+00  0.13487833714E+03  0.13487833714E+03  0.00000000000E+00 0. -1.
         -2   -1    0    0    0  501 -0.00000000000E+00 -0.00000000000E+00 -0.27402032972E+03  0.27402032972E+03  0.00000000000E+00 0.  1.
         23    2    1    2    0    0 -0.46837623203E+02 -0.15117542474E+03 -0.81377020688E+02  0.21752534636E+03  0.12508910751E+03 0.  0.
         23    2    1    2    0    0  0.46837623203E+02  0.15117542474E+03 -0.57764971887E+02  0.19137332051E+03  0.90769950045E+02 0.  0.
          5    1    3    3  502    0  0.61051581532E+00  0.17652110253E+01  0.24882138377E+02  0.25299840113E+02  0.41800000000E+01 0. -1.
         -5    1    3    3    0  502 -0.47448139019E+02 -0.15294063577E+03 -0.10625915907E+03  0.19222550624E+03  0.41800000000E+01 0. -1.
        -11    1    4    4    0    0  0.17828552725E+02  0.98275427435E+02 -0.79071154143E+02  0.12738981257E+03  0.00000000000E+00 0.  1.
         11    1    4    4    0    0  0.29009070478E+02  0.52899997306E+02  0.21306182257E+02  0.63983507932E+02  0.00000000000E+00 0. -1.
</event>
<event>
 8    1  0.5951278E-006  0.1109438E+03  0.7561462E-02  0.1258832E+00
         -2   -1    0    0    0  501 -0.00000000000E+00  0.00000000000E+00  0.39552773846E+03  0.39552773846E+03  0.00000000000E+00 0.  1.
          2   -1    0    0  501    0  0.00000000000E+00 -0.00000000000E+00 -0.47855949840E+02  0.47855949840E+02  0.00000000000E+00 0. -1.
         23    2    1    2    0    0  0.44846847624E+02 -0.40288669347E+02  0.28339028913E+03  0.31557887081E+03  0.12508217743E+03 0.  0.
         23    2    1    2    0    0 -0.44846847624E+02  0.40288669347E+02  0.64281499482E+02  0.12780481748E+03  0.92561026226E+02 0.  0.
          5    1    3    3  502    0  0.71846110472E+02 -0.92433028744E+01  0.79903001026E+02  0.10793175719E+03  0.41800000000E+01 0.  1.
         -5    1    3    3    0  502 -0.26999262848E+02 -0.31045366472E+02  0.20348728811E+03  0.20764711362E+03  0.41800000000E+01 0.  1.
        -11    1    4    4    0    0  0.94236797664E-01  0.59211323642E+02  0.21684869406E+02  0.63057301633E+02  0.00000000000E+00 0.  1.
         11    1    4    4    0    0 -0.44941084422E+02 -0.18922654295E+02  0.42596630077E+02  0.64747515848E+02  0.00000000000E+00 0. -1.
</event>
<event>
 8    1  0.5951278E-006  0.8771022E+02  0.7561462E-02  0.1308493E+00
          1   -1    0    0  501    0  0.00000000000E+00  0.00000000000E+00  0.57195197209E+02  0.57195197209E+02  0.00000000000E+00 0. -1.
         -1   -1    0    0    0  501 -0.00000000000E+00 -0.00000000000E+00 -0.35619181198E+03  0.35619181198E+03  0.00000000000E+00 0.  1.
         23    2    1    2    0    0  0.64805058436E+02 -0.36189485019E+02 -0.24243024352E+03  0.28271763672E+03  0.12508982658E+03 0.  0.
         23    2    1    2    0    0 -0.64805058436E+02  0.36189485019E+02 -0.56566371247E+02  0.13066937247E+03  0.91462320767E+02 0.  0.
          5    1    3    3  502    0  0.13878240125E+02  0.20079015296E+02 -0.18703080473E+03  0.18866310377E+03  0.41800000000E+01 0.  1.
         -5    1    3    3    0  502  0.50926818311E+02 -0.56268500315E+02 -0.55399438793E+02  0.94054532956E+02  0.41800000000E+01 0.  1.
        -11    1    4    4    0    0 -0.22902858042E+02  0.17213143257E+02 -0.75631398097E+02  0.80876087847E+02  0.00000000000E+00 0.  1.
         11    1    4    4    0    0 -0.41902200394E+02  0.18976341761E+02  0.19065026850E+02  0.49793284620E+02  0.00000000000E+00 0. -1.
</event>
<event>
 8    1  0.5951278E-006  0.1046534E+03  0.7561462E-02  0.1270804E+00
         -2   -1    0    0    0  501 -0.00000000000E+00  0.00000000000E+00  0.51387532519E+02  0.51387532519E+02  0.00000000000E+00 0.  1.
          2   -1    0    0  501    0  0.00000000000E+00 -0.00000000000E+00 -0.34233256150E+03  0.34233256150E+03  0.00000000000E+00 0. -1.
         23    2    1    2    0    0  0.38835508727E+02 -0.63772352892E+02 -0.14627474107E+03  0.20644270617E+03  0.12508869383E+03 0.  0.
         23    2    1    2    0    0 -0.38835508727E+02  0.63772352892E+02 -0.14467028790E+03  0.18727738784E+03  0.92564669623E+02 0.  0.
          5    1    3    3  502    0  0.19974435390E+02 -0.95408547318E+02 -0.13707088284E+03  0.16824882850E+03  0.41800000000E+01 0. -1.
         -5    1    3    3    0  502  0.18861073337E+02  0.31636194426E+02 -0.92038582346E+01  0.38193877672E+02  0.41800000000E+01 0. -1.
        -11    1    4    4    0    0 -0.12830069661E+02  0.21875505018E+02  0.81980328702E+01  0.26652507391E+02  0.00000000000E+00 0.  1.
         11    1    4    4    0    0 -0.26005439066E+02  0.41896847874E+02 -0.15286832077E+03  0.16062488045E+03  0.00000000000E+00 0. -1.
</event>
<event>
 7    1  0.5951278E-006  0.1306519E+03  0.7561462E-02  0.1226492E+00
         -2   -1    0    0    0  501 -0.00000000000E+00  0.00000000000E+00  0.63185502248E+02  0.63185502248E+02  0.00000000000E+00 0.  1.
          2   -1    0    0  501    0  0.00000000000E+00 -0.00000000000E+00 -0.41046759369E+03  0.41046759369E+03  0.00000000000E+00 0. -1.
         23    2    1    2    0    0 -0.33691832186E+02  0.66620119337E+02 -0.98809739976E+02  0.17601765170E+03  0.12508184976E+03 0.  0.
          5    1    3    3  502    0 -0.74987673113E+02  0.11015070273E+02 -0.45339023721E+02  0.88417093166E+02  0.41800000000E+01 0.  1.
         -5    1    3    3    0  502  0.41295840926E+02  0.55605049065E+02 -0.53470716255E+02  0.87600558537E+02  0.41800000000E+01 0.  1.
        -11    1    1    2    0    0  0.44547118769E+02 -0.84251046502E+02 -0.25785539699E+03  0.27490378387E+03  0.00000000000E+00 0. -1.
         11    1    1    2    0    0 -0.10855286583E+02  0.17630927165E+02  0.93830455290E+01  0.22731660363E+02  0.00000000000E+00 0.  1.
</event>
<event>
 8    1  0.5951278E-006  0.8155275E+02  0.7561462E-02  0.1324702E+00
          1   -1    0    0  501    0  0.00000000000E+00  0.00000000000E+00  0.14185844756E+03  0.14185844756E+03  0.00000000000E+00 0. -1.
         -1   -1    0    0    0  501 -0.00000000000E+00 -0.00000000000E+00 -0.11712298692E+03  0.11712298692E+03  0.00000000000E+00 0.  1.
         23    2    1    2    0    0  0.58618735155E+02  0.11879034359E+02 -0.23334681767E+02  0.14060362690E+03  0.12509038714E+03 0.  0.
         23    2    1    2    0    0 -0.58618735155E+02 -0.11879034359E+02  0.48070142400E+02  0.11837780758E+03  0.90140441360E+02 0.  0.
          5    1    3    3  502    0  0.54344950281E+02 -0.93431862698E+01 -0.69871748233E+02  0.89107813080E+02  0.41800000000E+01 0.  1.
         -5    1    3    3    0  502  0.42737848742E+01  0.21222220629E+02  0.46537066467E+02  0.51495813819E+02  0.41800000000E+01 0.  1.
        -11    1    4    4    0    0 -0.51857489591E+02 -0.34408614799E+02 -0.28366952911E+01  0.62299268368E+02  0.00000000000E+00 0.  1.
         11    1    4    4    0    0 -0.67612455640E+01  0.22529580440E+02  0.50906837692E+02  0.56078539212E+02  0.00000000000E+00 0. -1.
</event>
<event>
 7    1  0.5951278E-006  0.1496355E+03  0.7561462E-02  0.1200922E+00
         -1   -1    0    0    0  501 -0.00000000000E+00  0.00000000000E+00  0.25354410787E+02  0.25354410787E+02  0.00000000000E+00 0.  1.
          1   -1    0    0  501    0  0.00000000000E+00 -0.00000000000E+00 -0.96652944532E+03  0.96652944532E+03  0.00000000000E+00 0. -1.
         23    2    1    2    0    0  0.47922945925E+02 -0.42705312913E+02 -0.42295514153E+03  0.43733730766E+03  0.90843362072E+02 0.  0.
          5    1    1    2  502    0 -0.80194485401E+02  0.96540241304E+02 -0.41582785002E+03  0.43437477704E+03  0.41800000000E+01 0. -1.
         -5    1    1    2    0  502  0.32271539476E+02 -0.53834928391E+02 -0.10239204299E+03  0.12017177140E+03  0.41800000000E+01 0.  1.
        -11    1    3    3    0    0 -0.14566142597E+02 -0.45965293369E+02 -0.16499634908E+03  0.17189757390E+03  0.00000000000E+00 0. -1.
         11    1    3    3    0    0  0.62489088522E+02  0.32599804553E+01 -0.25795879245E+03  0.26543973376E+03  0.00000000000E+00 0.  1.
</event>
<event>
 8    1  0.5951278E-006  0.9464230E+02  0.7561462E-02  0.1291984E+00
         -2   -1    0    0    0  501 -0.00000000000E+00  0.00000000000E+00  0.80008115174E+03  0.80008115174E+03  0.00000000000E+00 0.  1.
          2   -1    0    0  501    0  0.00000000000E+00 -0.00000000000E+00 -0.15616296228E+02  0.15616296228E+02  0.00000000000E+00 0. -1.
         23    2    1    2    0    0  0.18796119127E+02  0.25148974074E+01  0.53064056098E+03  0.54551415710E+03  0.12508665732E+03 0.  0.
         23    2    1    2    0    0 -0.18796119127E+02 -0.25148974074E+01  0.25382429454E+03  0.27018329087E+03  0.90623503380E+02 0.  0.
          5    1    3    3  502    0 -0.21235461630E+02 -0.35848077385E+02  0.70291899140E+02  0.81819636809E+02  0.41800000000E+01 0.  1.
         -5    1    3    3    0  502  0.40031580758E+02  0.38362974793E+02  0.46034866184E+03  0.46369452029E+03  0.41800000000E+01 0.  1.
        -11    1    4    4    0    0  0.29274359307E+02 -0.25223538554E+02  0.89893358405E+02  0.97846976935E+02  0.00000000000E+00 0.  1.
         11    1    4    4    0    0 -0.48070478434E+02  0.22708641147E+02  0.16393093613E+03  0.17233631394E+03  0.00000000000E+00 0. -1.
</event>
<event>
 7    1  0.5951278E-006  0.1285803E+03  0.7561462E-02  0.1229578E+00
         -1   -1    0    0    0  501 -0.00000000000E+00  0.00000000000E+00  0.32598969736E+03  0.32598969736E+03  0.00000000000E+00 0.  1.
          1   -1    0    0  501    0  0.00000000000E+00 -0.00000000000E+00 -0.58525495985E+02  0.58525495985E+02  0.00000000000E+00 0. -1.
         23    2    1    2    0    0  0.99458584237E+02  0.31413808476E+02  0.17481192570E+03  0.23892671743E+03  0.12509168476E+03 0.  0.
          5    1    3    3  502    0  0.10925808239E+03 -0.28715556349E+01  0.74379607204E+02  0.13227007510E+03  0.41800000000E+01 0. -1.
         -5    1    3    3    0  502 -0.97994981492E+01  0.34285364111E+02  0.10043231849E+03  0.10665664234E+03  0.41800000000E+01 0. -1.
        -11    1    1    2    0    0 -0.28721973447E+02 -0.29423013834E+02  0.40200505039E+02  0.57504313813E+02  0.00000000000E+00 0.  1.
         11    1    1    2    0    0 -0.70736610791E+02 -0.19907946415E+01  0.52451770636E+02  0.88084162097E+02  0.00000000000E+00 0. -1.
</event>
<event>
 8    1  0.5951278E-006  0.1354796E+03  0.7561462E-02  0.1219544E+00
          1   -1    0    0  501    0  0.00000000000E+00  0.00000000000E+00  0.18730452466E+03  0.18730452466E+03  0.00000000000E+00 0. -1.
         -1   -1    0    0    0  501 -0.00000000000E+00 -0.00000000000E+00 -0.13893531729E+03  0.13893531729E+03  0.00000000000E+00 0.  1.
         23    2    1    2    0    0 -0.93086442211E+02  0.73352621786E+02 -0.37207885222E+00  0.17232068967E+03  0.12509431962E+03 0.  0.
         23    2    1    2    0    0  0.93086442211E+02 -0.73352621786E+02  0.48741286218E+02  0.15391915228E+03  0.85262533447E+02 0.  0.
          5    1    3    3  502    0 -0.11229336457E+03  0.64742572815E+02 -0.32488038509E+02  0.13369497189E+03  0.41800000000E+01 0. -1.
         -5    1    3    3    0  502  0.19206922360E+02  0.86100489709E+01  0.32115959657E+02  0.38625717786E+02  0.41800000000E+01 0. -1.
        -11    1    4    4    0    0  0.66745098341E+02 -0.41989094323E+02 -0.12908737652E+02  0.79903865379E+02  0.00000000000E+00 0.  1.
         11    1    4    4    0    0  0.26341343869E+02 -0.31363527463E+02  0.61650023870E+02  0.74015286900E+02  0.00000000000E+00 0. -1.
</event>
<event>
 8    1  0.5951278E-006  0.1354003E+03  0.7561462E-02  0.1219656E+00
          1   -1    0    0  501    0  0.00000000000E+00  0.00000000000E+00  0.48224294247E+03  0.48224294247E+03  0.00000000000E+00 0. -1.
         -1   -1    0    0    0  501 -0.00000000000E+00 -0.00000000000E+00 -0.62064134391E+02  0.62064134391E+02  0.00000000000E+00 0.  1.
         23    2    1    2    0    0  0.96671257982E+01 -0.12370265917E+03  0.14168638399E+03  0.22609412433E+03  0.12509084874E+03 0.  0.
         23    2    1    2    0    0 -0.96671257982E+01  0.12370265917E+03  0.27849242410E+03  0.31821295254E+03  0.91135348120E+02 0.  0.
          5    1    3    3  502    0  0.12513443034E+01 -0.58353467038E+02  0.14860524736E+03  0.15971125484E+03  0.41800000000E+01 0.  1.
         -5    1    3    3    0  502  0.84157814948E+01 -0.65349192136E+02 -0.69188633763E+01  0.66382869487E+02  0.41800000000E+01 0.  1.
        -11    1    4    4    0    0  0.23854224813E+02  0.10540942210E+03  0.24354512630E+03  0.26644774132E+03  0.00000000000E+00 0. -1.
         11    1    4    4    0    0 -0.33521350611E+02  0.18293237073E+02  0.34947297792E+02  0.51765211218E+02  0.00000000000E+00 0.  1.
</event>
<event>
 8    1  0.5951278E-006  0.1076431E+03  0.7561462E-02  0.1264998E+00
          1   -1    0    0  501    0  0.00000000000E+00  0.00000000000E+00  0.14868204229E+02  0.14868204229E+02  0.00000000000E+00 0. -1.
         -1   -1    0    0    0  501 -0.00000000000E+00 -0.00000000000E+00 -0.87996782388E+03  0.87996782388E+03  0.00000000000E+00 0.  1.
         23    2    1    2    0    0  0.20918882155E+02 -0.67548009813E+01 -0.60282240383E+03  0.61605661081E+03  0.12509064794E+03 0.  0.
         23    2    1    2    0    0 -0.20918882155E+02  0.67548009813E+01 -0.26227721582E+03  0.27877941730E+03  0.91898849841E+02 0.  0.
          5    1    3    3  502    0 -0.61485973791E+01 -0.62068411311E+02 -0.36725083220E+03  0.37253313824E+03  0.41800000000E+01 0.  1.
         -5    1    3    3    0  502  0.27067479534E+02  0.55313610330E+02 -0.23557157163E+03  0.24352347258E+03  0.41800000000E+01 0.  1.
        -11    1    4    4    0    0 -0.72972687792E+01 -0.40870118621E+02 -0.15755127783E+03  0.16292949971E+03  0.00000000000E+00 0.  1.
         11    1    4    4    0    0 -0.13621613376E+02  0.47624919602E+02 -0.10472593799E+03  0.11584991759E+03  0.00000000000E+00 0. -1.
</event>
<event>
 8    1  0.5951278E-006  0.1457024E+03  0.7561462E-02  0.1205856E+00
         -2   -1    0    0    0  501 -0.00000000000E+00  0.00000000000E+00  0.63479619354E+03  0.63479619354E+03  0.00000000000E+00 0.  1.
          2   -1    0    0  501    0  0.00000000000E+00 -0.00000000000E+00 -0.37176929384E+02  0.37176929384E+02  0.00000000000E+00 0. -1.
         23    2    1    2    0    0  0.30566792981E+02 -0.91844614132E+02  0.42584178807E+03  0.45426875136E+03  0.12509639491E+03 0.  0.
         23    2    1    2    0    0 -0.30566792981E+02  0.91844614132E+02  0.17177747609E+03  0.21770437156E+03  0.92292633121E+02 0.  0.
          5    1    3    3  502    0  0.15262655866E+02  0.30715906068E+02  0.97208501416E+02  0.10316676159E+03  0.41800000000E+01 0. -1.
         -5    1    3    3    0  502  0.15304137115E+02 -0.12256052020E+03  0.32863328666E+03  0.35110198977E+03  0.41800000000E+01 0. -1.
        -11    1    4    4    0    0 -0.61967953045E+02  0.43844741810E+02  0.10684464048E+03  0.13106550190E+03  0.00000000000E+00 0. -1.
         11    1    4    4    0    0  0.31401160065E+02  0.47999872322E+02  0.64932835602E+02  0.86638869658E+02  0.00000000000E+00 0.  1.
</event>
<event>
 8    1  0.5951278E-006  0.2016073E+03  0.7561462E-02  0.1148390E+00
         -2   -1    0    0    0  501 -0.00000000000E+00  0.00000000000E+00  0.59790569772E+02  0.59790569772E+02  0.00000000000E+00 0. -1.
          2   -1    0    0  501    0  0.00000000000E+00 -0.00000000000E+00 -0.86031969733E+03  0.86031969733E+03  0.00000000000E+00 0.  1.
         23    2    1    2    0    0 -0.18816871244E+03  0.27155323325E+02 -0.27784557227E+03  0.35915180538E+03  0.12508789451E+03 0.  0.
         23    2    1    2    0    0  0.18816871244E+03 -0.27155323325E+02 -0.52268355529E+03  0.56095846172E+03  0.73016579470E+02 0.  0.
          5    1    3    3  502    0 -0.80419938629E+02 -0.24573134225E+02 -0.40611787615E+02  0.93477244012E+02  0.41800000000E+01 0.  1.
         -5    1    3    3    0  502 -0.10774877381E+03  0.51728457550E+02 -0.23723378465E+03  0.26567456137E+03  0.41800000000E+01 0.  1.
        -11    1    4    4    0    0  0.11380309572E+03 -0.45935775911E+02 -0.37458834416E+03  0.39417974032E+03  0.00000000000E+00 0.  1.
         11    1    4    4    0    0  0.74365616721E+02  0.18780452586E+02 -0.14809521113E+03  0.16677872139E+03  0.00000000000E+00 0. -1.
</event>
<event>
 8    1  0.5951278E-006  0.1213051E+03  0.7561462E-02  0.1240960E+00
          2   -1    0    0  501    0  0.00000000000E+00  0.00000000000E+00  0.65862375015E+03  0.65862375015E+03  0.00000000000E+00 0. -1.
         -2   -1    0    0    0  501 -0.00000000000E+00 -0.00000000000E+00 -0.23841089579E+02  0.23841089579E+02  0.00000000000E+00 0.  1.
         23    2    1    2    0    0  0.57734054841E+02  0.14142931948E+02  0.29827132601E+03  0.32885130998E+03  0.12507660271E+03 0.  0.
         23    2    1    2    0    0 -0.57734054841E+02 -0.14142931948E+02  0.33651133456E+03  0.35361352975E+03  0.90936277244E+02 0.  0.
          5    1    3    3  502    0  0.76197637440E+02 -0.35443232261E+02  0.16068322607E+03  0.18138046809E+03  0.41800000000E+01 0. -1.
         -5    1    3    3    0  502 -0.18463582599E+02  0.49586164209E+02  0.13758809994E+03  0.14747084189E+03  0.41800000000E+01 0. -1.
        -11    1    4    4    0    0 -0.21737751080E+02 -0.50038657566E+02  0.13095998734E+03  0.14186936018E+03  0.00000000000E+00 0.  1.
         11    1    4    4    0    0 -0.35996303761E+02  0.35895725618E+02  0.20555134722E+03  0.21174416957E+03  0.00000000000E+00 0. -1.
</event>
<event>
 8    1  0.5951278E-006  0.9738070E+02  0.7561462E-02  0.1285902E+00
          1   -1    0    0  501    0  0.00000000000E+00  0.00000000000E+00  0.32936354145E+03  0.32936354145E+03  0.00000000000E+00 0. -1.
         -1   -1    0    0    0  501 -0.00000000000E+00 -0.00000000000E+00 -0.40446488384E+02  0.40446488384E+02  0.00000000000E+00 0.  1.
         23    2    1    2    0    0  0.41077466091E+02 -0.14871906946E+02  0.12729131929E+03  0.18085879346E+03  0.12082338915E+03 0.  0.
         23    2    1    2    0    0 -0.41077466091E+02  0.14871906946E+02  0.16162573377E+03  0.18895123638E+03  0.87585158985E+02 0.  0.
          5    1    3    3  502    0 -0.37549564369E+02  0.16746458197E+02  0.58509292120E+02  0.71632557617E+02  0.41800000000E+01 0. -1.
         -5    1    3    3    0  502  0.78627030460E+02 -0.31618365143E+02  0.68782027174E+02  0.10922623584E+03  0.41800000000E+01 0.  1.
        -11    1    4    4    0    0 -0.46578487222E+02 -0.60342613111E+01  0.16058038337E+03  0.16730818063E+03  0.00000000000E+00 0. -1.
         11    1    4    4    0    0  0.55010211306E+01  0.20906168258E+02  0.10453504004E+01  0.21643055749E+02  0.00000000000E+00 0.  1.
</event>
<event>
 8    1  0.5951278E-006  0.1074005E+03  0.7561462E-02  0.1265461E+00
          1   -1    0    0  501    0  0.00000000000E+00  0.00000000000E+00  0.57443641331E+02  0.57443641331E+02  0.00000000000E+00 0. -1.
         -1   -1    0    0    0  501 -0.00000000000E+00 -0.00000000000E+00 -0.20577587862E+03  0.20577587862E+03  0.00000000000E+00 0.  1.
         23    2    1    2    0    0 -0.71639229324E+01 -0.17692182885E+02 -0.90309944278E+02  0.15546022940E+03  0.12509061421E+03 0.  0.
         23    2    1    2    0    0  0.71639229324E+01  0.17692182885E+02 -0.58022293013E+02  0.10775929055E+03  0.88775802372E+02 0.  0.
          5    1    3    3  502    0  0.50321084030E+02  0.23250521847E+02 -0.44619407263E+02  0.71282271068E+02  0.41800000000E+01 0.  1.
         -5    1    3    3    0  502 -0.57485006962E+02 -0.40942704732E+02 -0.45690537015E+02  0.84177958332E+02  0.41800000000E+01 0.  1.
        -11    1    4    4    0    0 -0.78741125867E+01 -0.33884795804E+02 -0.34879445163E+02  0.49262122676E+02  0.00000000000E+00 0.  1.
         11    1    4    4    0    0  0.15038035519E+02  0.51576978689E+02 -0.23142847850E+02  0.58497167876E+02  0.00000000000E+00 0. -1.
</event>
<event>
 8    1  0.5951278E-006  0.7556580E+02  0.7561462E-02  0.1342128E+00
          1   -1    0    0  501    0  0.00000000000E+00  0.00000000000E+00  0.99005484629E+02  0.99005484629E+02  0.00000000000E+00 0.  1.
         -1   -1    0    0    0  501 -0.00000000000E+00 -0.00000000000E+00 -0.12588749681E+03  0.12588749681E+03  0.00000000000E+00 0. -1.
         23    2    1    2    0    0  0.18602774675E+02  0.18888711991E+02 -0.10176249024E+02  0.12827533344E+03  0.12509259954E+03 0.  0.
         23    2    1    2    0    0 -0.18602774675E+02 -0.18888711991E+02 -0.16705763158E+02  0.96617647996E+02  0.91394970952E+02 0.  0.
          5    1    3    3  502    0  0.40228081958E+02  0.21126548849E+02 -0.59047254940E+02  0.74623591178E+02  0.41800000000E+01 0. -1.
         -5    1    3    3    0  502 -0.21625307283E+02 -0.22378368581E+01  0.48871005916E+02  0.53651742266E+02  0.41800000000E+01 0. -1.
        -11    1    4    4    0    0 -0.32920773651E+02 -0.43702270969E+02  0.12051364472E+02  0.56025897684E+02  0.00000000000E+00 0.  1.
         11    1    4    4    0    0  0.14317998977E+02  0.24813558978E+02 -0.28757127630E+02  0.40591750312E+02  0.00000000000E+00 0. -1.
</event>
<event>
 8    1  0.5951278E-006  0.1135350E+03  0.7561462E-02  0.1254160E+00
          4   -1    0    0  501    0  0.00000000000E+00  0.00000000000E+00  0.34464177984E+02  0.34464177984E+02  0.00000000000E+00 0.  1.
         -4   -1    0    0    0  501 -0.00000000000E+00 -0.00000000000E+00 -0.45636948338E+03  0.45636948338E+03  0.00000000000E+00 0. -1.
         23    2    1    2    0    0  0.51950774677E+02 -0.38035361827E+02 -0.22328883651E+03  0.26391332213E+03  0.12508703109E+03 0.  0.
         23    2    1    2    0    0 -0.51950774677E+02  0.38035361827E+02 -0.19861646889E+03  0.22692033924E+03  0.88875007222E+02 0.  0.
          5    1    3    3  502    0  0.84649370755E+02 -0.36368738162E+02 -0.20801629479E+03  0.22754439651E+03  0.41800000000E+01 0. -1.
         -5    1    3    3    0  502 -0.32698596078E+02 -0.16666236648E+01 -0.15272541721E+02  0.36368925617E+02  0.41800000000E+01 0. -1.
        -11    1    4    4    0    0 -0.27586882826E+02  0.61877359317E+02 -0.16782612786E+03  0.18098467585E+03  0.00000000000E+00 0. -1.
         11    1    4    4    0    0 -0.24363891851E+02 -0.23841997490E+02 -0.30790341026E+02  0.45935663388E+02  0.00000000000E+00 0.  1.
</event>
<event>
 8    1  0.5951278E-006  0.6994257E+02  0.7561462E-02  0.1360288E+00
         -2   -1    0    0    0  501 -0.00000000000E+00  0.00000000000E+00  0.27495543876E+02  0.27495543876E+02  0.00000000000E+00 0.  1.
          2   -1    0    0  501    0  0.00000000000E+00 -0.00000000000E+00 -0.50304136205E+03  0.50304136205E+03  0.00000000000E+00 0. -1.
         23    2    1    2    0    0  0.40165492137E+02 -0.18567351971E+02 -0.23425556002E+03  0.26921969367E+03  0.12508222394E+03 0.  0.
         23    2    1    2    0    0 -0.40165492137E+02  0.18567351971E+02 -0.24129025816E+03  0.26131721225E+03  0.90042675546E+02 0.  0.
          5    1    3    3  502    0  0.13835727982E+02  0.20422328837E+01 -0.23506035399E+03  0.23551314295E+03  0.41800000000E+01 0.  1.
         -5    1    3    3    0  502  0.26329764155E+02 -0.20609584855E+02  0.80479397456E+00  0.33706550724E+02  0.41800000000E+01 0.  1.
        -11    1    4    4    0    0  0.24471084559E+02  0.49648488433E+00 -0.12210782374E+03  0.12453674596E+03  0.00000000000E+00 0. -1.
         11    1    4    4    0    0 -0.64636576696E+02  0.18070867087E+02 -0.11918243442E+03  0.13678046629E+03  0.00000000000E+00 0.  1.
</event>
<event>
 8    1  0.5951278E-006  0.1055412E+03  0.7561462E-02  0.1269057E+00
          1   -1    0    0  501    0  0.00000000000E+00  0.00000000000E+00  0.29005045291E+02  0.29005045291E+02  0.00000000000E+00 0. -1.
         -1   -1    0    0    0  501 -0.00000000000E+00 -0.00000000000E+00 -0.43416444360E+03  0.43416444360E+03  0.00000000000E+00 0.  1.
         23    2    1    2    0    0 -0.18049521740E+02  0.52709442444E+02 -0.29875591367E+03  0.32864429928E+03  0.12509160218E+03 0.  0.
         23    2    1    2    0    0  0.18049521740E+02 -0.52709442444E+02 -0.10640348463E+03  0.13452518961E+03  0.60590878352E+02 0.  0.
          5    1    3    3  502    0 -0.67572415832E+02  0.51804707058E+01 -0.13810580765E+03  0.15389462358E+03  0.41800000000E+01 0.  1.
         -5    1    3    3    0  502  0.49522894093E+02  0.47528971739E+02 -0.16065010602E+03  0.17474967570E+03  0.41800000000E+01 0.  1.
        -11    1    4    4    0    0  0.35191942372E+02 -0.38385628430E+02 -0.43771166332E+02  0.68028260891E+02  0.00000000000E+00 0. -1.
         11    1    4    4    0    0 -0.17142420633E+02 -0.14323814015E+02 -0.62632318301E+02  0.66496928717E+02  0.00000000000E+00 0.  1.
</event>
<event>
 8    1  0.5951278E-006  0.1199855E+03  0.7561462E-02  0.1243121E+00
          1   -1    0    0  501    0  0.00000000000E+00  0.00000000000E+00  0.42271166591E+03  0.42271166591E+03  0.00000000000E+00 0. -1.
         -1   -1    0    0    0  501 -0.00000000000E+00 -0.00000000000E+00 -0.64651067896E+02  0.64651067896E+02  0.00000000000E+00 0.  1.
         23    2    1    2    0    0  0.15250999275E+02  0.51504246031E+02  0.25867939114E+02  0.13857068793E+03  0.12508958766E+03 0.  0.
         23    2    1    2    0    0 -0.15250999275E+02 -0.51504246031E+02  0.33219265890E+03  0.34879204588E+03  0.91753192325E+02 0.  0.
          5    1    3    3  502    0 -0.41997001253E+02 -0.16015652457E+02  0.21078755846E+02  0.49820031974E+02  0.41800000000E+01 0.  1.
         -5    1    3    3    0  502  0.57248000529E+02  0.67519898488E+02  0.47891832689E+01  0.88750655956E+02  0.41800000000E+01 0.  1.
        -11    1    4    4    0    0 -0.40976167798E+02  0.76668749462E+01  0.12266928655E+03  0.12955918016E+03  0.00000000000E+00 0. -1.
         11    1    4    4    0    0  0.25725168523E+02 -0.59171120977E+02  0.20952337235E+03  0.21923286573E+03  0.00000000000E+00 0.  1.
</event>
<event>
 7    1  0.5951278E-006  0.1815251E+03  0.7561462E-02  0.1166335E+00
         -2   -1    0    0    0  501 -0.00000000000E+00  0.00000000000E+00  0.79907727937E+02  0.79907727937E+02  0.00000000000E+00 0. -1.
          2   -1    0    0  501    0  0.00000000000E+00 -0.00000000000E+00 -0.86183210162E+03  0.86183210162E+03  0.00000000000E+00 0.  1.
         23    2    1    2    0    0  0.12721855137E+03 -0.43091800361E+02 -0.60314742733E+02  0.19320228001E+03  0.12509112575E+03 0.  0.
          5    1    3    3  502    0  0.13473400612E+03 -0.63343789369E+01 -0.17428624060E+02  0.13606838758E+03  0.41800000000E+01 0.  1.
         -5    1    3    3    0  502 -0.75154547531E+01 -0.36757421424E+02 -0.42886118673E+02  0.57133892434E+02  0.41800000000E+01 0.  1.
        -11    1    1    2    0    0 -0.27716092672E+02  0.79659509838E+02 -0.43150711560E+03  0.43967284441E+03  0.00000000000E+00 0.  1.
         11    1    1    2    0    0 -0.99502458696E+02 -0.36567709477E+02 -0.29010251535E+03  0.30886470513E+03  0.00000000000E+00 0. -1.
</event>
<event>
 8    1  0.5951278E-006  0.1256185E+03  0.7561462E-02  0.1234106E+00
          1   -1    0    0  501    0  0.00000000000E+00  0.00000000000E+00  0.51976759524E+03  0.51976759524E+03  0.00000000000E+00 0. -1.
         -1   -1    0    0    0  501 -0.00000000000E+00 -0.00000000000E+00 -0.32324636650E+02  0.32324636650E+02  0.00000000000E+00 0.  1.
         23    2    1    2    0    0  0.51071248017E+02  0.38477508151E+02  0.20515188959E+03  0.24864250616E+03  0.12508799726E+03 0.  0.
         23    2    1    2    0    0 -0.51071248017E+02 -0.38477508151E+02  0.28229106901E+03  0.30344972574E+03  0.91130112488E+02 0.  0.
          5    1    3    3  502    0 -0.15197434388E+02 -0.36538781867E+02  0.49099117305E+02  0.63200002472E+02  0.41800000000E+01 0.  1.
         -5    1    3    3    0  502  0.66268682405E+02  0.75016290018E+02  0.15605277228E+03  0.18544250368E+03  0.41800000000E+01 0.  1.
        -11    1    4    4    0    0 -0.29173180506E+02  0.28506752004E+02  0.10851473176E+03  0.11592737545E+03  0.00000000000E+00 0.  1.
         11    1    4    4    0    0 -0.21898067511E+02 -0.66984260155E+02  0.17377633725E+03  0.18752235028E+03  0.00000000000E+00 0. -1.
</event>
<event>
 8    1  0.5951278E-006  0.1045726E+03  0.7561462E-02  0.1270964E+00
          1   -1    0    0  501    0  0.00000000000E+00  0.00000000000E+00  0.41312770763E+03  0.41312770763E+03  0.00000000000E+00 0. -1.
         -1   -1    0    0    0  501 -0.00000000000E+00 -0.00000000000E+00 -0.32397665662E+02  0.32397665662E+02  0.00000000000E+00 0.  1.
         23    2    1    2    0    0 -0.16326888715E+02 -0.19932971594E+02  0.15377945007E+03  0.19990040357E+03  0.12509261141E+03 0.  0.
         23    2    1    2    0    0  0.16326888715E+02  0.19932971594E+02  0.22695059190E+03  0.24562496973E+03  0.90339160608E+02 0.  0.
          5    1    3    3  502    0  0.47947095708E+02 -0.16043364258E+02  0.26588885994E+02  0.57277873406E+02  0.41800000000E+01 0. -1.
         -5    1    3    3    0  502 -0.64273984423E+02 -0.38896073358E+01  0.12719056408E+03  0.14262253016E+03  0.41800000000E+01 0. -1.
        -11    1    4    4    0    0  0.42064164270E+02  0.42397025206E+02  0.14024494313E+03  0.15243210205E+03  0.00000000000E+00 0.  1.
         11    1    4    4    0    0 -0.25737275555E+02 -0.22464053612E+02  0.86705648762E+02  0.93192867672E+02  0.00000000000E+00 0. -1.
</event>
<event>
 8    1  0.5951278E-006  0.7060600E+02  0.7561462E-02  0.1358044E+00
          2   -1    0    0  501    0  0.00000000000E+00  0.00000000000E+00  0.41509134842E+03  0.41509134842E+03  0.00000000000E+00 0. -1.
         -2   -1    0    0    0  501 -0.00000000000E+00 -0.00000000000E+00 -0.43841726832E+02  0.43841726832E+02  0.00000000000E+00 0.  1.
         23    2    1    2    0    0 -0.34348605261E+02  0.20538340366E+02  0.86680845047E+02  0.15736133024E+03  0.12508944500E+03 0.  0.
         23    2    1    2    0    0  0.34348605261E+02 -0.20538340366E+02  0.28456877654E+03  0.30157174500E+03  0.91457524005E+02 0.  0.
          5    1    3    3  502    0 -0.10240921802E+02  0.36732629131E+02  0.11213650107E+03  0.11851679119E+03  0.41800000000E+01 0. -1.
         -5    1    3    3    0  502 -0.24107683459E+02 -0.16194288765E+02 -0.25455656024E+02  0.38844539050E+02  0.41800000000E+01 0. -1.
        -11    1    4    4    0    0  0.16022492052E+02 -0.42197475737E+02  0.26045391454E+03  0.26433612846E+03  0.00000000000E+00 0. -1.
         11    1    4    4    0    0  0.18326113209E+02  0.21659135370E+02  0.24114861998E+02  0.37235616545E+02  0.00000000000E+00 0.  1.
</event>
<event>
 8    1  0.5951278E-006  0.7898088E+02  0.7561462E-02  0.1331969E+00
         -4   -1    0    0    0  501 -0.00000000000E+00  0.00000000000E+00  0.97885315980E+02  0.97885315980E+02  0.00000000000E+00 0.  1.
          4   -1    0    0  501    0  0.00000000000E+00 -0.00000000000E+00 -0.13991168523E+03  0.13991168523E+03  0.00000000000E+00 0. -1.
         23    2    1    2    0    0 -0.13937385098E+02  0.17344116968E+01  0.20780838052E+02  0.12758133577E+03  0.12509154695E+03 0.  0.
         23    2    1    2    0    0  0.13937385098E+02 -0.17344116968E+01 -0.62807207304E+02  0.11021566545E+03  0.89473396792E+02 0.  0.
          5    1    3    3  502    0 -0.39116322786E+02 -0.28413388842E+02 -0.34569527094E+02  0.59581305602E+02  0.41800000000E+01 0. -1.
         -5    1    3    3    0  502  0.25178937688E+02  0.30147800538E+02  0.55350365146E+02  0.68000030163E+02  0.41800000000E+01 0. -1.
        -11    1    4    4    0    0 -0.27929140386E+02  0.12812151758E+01 -0.62246281986E+02  0.68236925606E+02  0.00000000000E+00 0. -1.
         11    1    4    4    0    0  0.41866525484E+02 -0.30156268725E+01 -0.56092531820E+00  0.41978739842E+02  0.00000000000E+00 0.  1.
</event>
<event>
 8    1  0.5951278E-006  0.8393195E+02  0.7561462E-02  0.1318249E+00
         -1   -1    0    0    0  501 -0.00000000000E+00  0.00000000000E+00  0.48488060786E+03  0.48488060786E+03  0.00000000000E+00 0.  1.
          1   -1    0    0  501    0  0.00000000000E+00 -0.00000000000E+00 -0.27676971394E+02  0.27676971394E+02  0.00000000000E+00 0. -1.
         23    2    1    2    0    0 -0.76215749758E+00 -0.48651228865E+01  0.35136568763E+03  0.37299913948E+03  0.12508501630E+03 0.  0.
         23    2    1    2    0    0  0.76215749758E+00  0.48651228865E+01  0.10583794883E+03  0.13955843977E+03  0.90833013787E+02 0.  0.
          5    1    3    3  502    0 -0.33452502972E+02  0.24138352238E+02  0.36965433977E+02  0.55548588758E+02  0.41800000000E+01 0. -1.
         -5    1    3    3    0  502  0.32690345474E+02 -0.29003475124E+02  0.31440025365E+03  0.31745055072E+03  0.41800000000E+01 0. -1.
        -11    1    4    4    0    0  0.27880655988E+02  0.33149140555E+02  0.84466286477E+02  0.94924970630E+02  0.00000000000E+00 0.  1.
         11    1    4    4    0    0 -0.27118498490E+02 -0.28284017668E+02  0.21371662356E+02  0.44633469143E+02  0.00000000000E+00 0. -1.
</event>
<event>
 8    1  0.5951278E-006  0.9590873E+02  0.7561462E-02  0.1289142E+00
         -1   -1    0    0    0  501 -0.00000000000E+00  0.00000000000E+00  0.88762882738E+03  0.88762882738E+03  0.00000000000E+00 0.  1.
          1   -1    0    0  501    0  0.00000000000E+00 -0.00000000000E+00 -0.18792757806E+02  0.18792757806E+02  0.00000000000E+00 0. -1.
         23    2    1    2    0    0  0.52867070248E+02  0.13608252375E+02  0.62444137603E+03  0.63918268719E+03  0.12508942344E+03 0.  0.
         23    2    1    2    0    0 -0.52867070248E+02 -0.13608252375E+02  0.24439469355E+03  0.26723889800E+03  0.93315329506E+02 0.  0.
          5    1    3    3  502    0  0.28169412253E+02 -0.33305119126E+02  0.72707992974E+02  0.84892116177E+02  0.41800000000E+01 0.  1.
         -5    1    3    3    0  502  0.24697657995E+02  0.46913371500E+02  0.55173338305E+03  0.55429057101E+03  0.41800000000E+01 0.  1.
        -11    1    4    4    0    0 -0.32424681491E+01 -0.38956740932E+02  0.16914268320E+03  0.17360123428E+03  0.00000000000E+00 0.  1.
         11    1    4    4    0    0 -0.49624602099E+02  0.25348488557E+02  0.75252010353E+02  0.93637663725E+02  0.00000000000E+00 0. -1.
</event>
<event>
 8    1  0.5951278E-006  0.9020511E+02  0.7561462E-02  0.1302356E+00
         -3   -1    0    0    0  501 -0.00000000000E+00  0.00000000000E+00  0.57467635462E+02  0.57467635462E+02  0.00000000000E+00 0.  1.
          3   -1    0    0  501    0  0.00000000000E+00 -0.00000000000E+00 -0.22566039383E+03  0.22566039383E+03  0.00000000000E+00 0. -1.
         23    2    1    2    0    0  0.26854368235E+02 -0.10640913021E+02 -0.76012832550E+02  0.14919620171E+03  0.12508864765E+03 0.  0.
         23    2    1    2    0    0 -0.26854368235E+02  0.10640913021E+02 -0.92179925819E+02  0.13393182758E+03  0.92769658787E+02 0.  0.
          5    1    3    3  502    0  0.52210556295E+02  0.23757832941E+02  0.47695822038E+01  0.57711334494E+02  0.41800000000E+01 0. -1.
         -5    1    3    3    0  502 -0.25356188061E+02 -0.34398745962E+02 -0.80782414754E+02  0.91484867219E+02  0.41800000000E+01 0. -1.
        -11    1    4    4    0    0  0.81674976765E+01 -0.27198874972E+02 -0.99411020680E-01  0.28398885552E+02  0.00000000000E+00 0.  1.
         11    1    4    4    0    0 -0.35021865911E+02  0.37839787993E+02 -0.92080514799E+02  0.10553294203E+03  0.00000000000E+00 0. -1.
</event>
<event>
 8    1  0.6585097E-006  0.1752886E+03  0.7561462E-02  0.1172442E+00
         -2   -1    0    0    0  501 -0.00000000000E+00  0.00000000000E+00  0.61201075721E+02  0.61201075721E+02  0.00000000000E+00 0. -1.
          2   -1    0    0  501    0  0.00000000000E+00 -0.00000000000E+00 -0.58402919282E+03  0.58402919282E+03  0.00000000000E+00 0.  1.
         23    2    1    2    0    0 -0.34755640371E+02  0.14954799086E+03 -0.24451711584E+03  0.31465653166E+03  0.12509019494E+03 0.  0.
         23    2    1    2    0    0  0.34755640371E+02 -0.14954799086E+03 -0.27831100126E+03  0.33057373688E+03  0.90826350719E+02 0.  0.
          5    1    3    3  502    0 -0.17677630407E+02 -0.19746824400E+02 -0.45112406462E+02  0.52488449277E+02  0.41800000000E+01 0. -1.
         -5    1    3    3    0  502 -0.17078009964E+02  0.16929481526E+03 -0.19940470938E+03  0.26216808239E+03  0.41800000000E+01 0. -1.
        -11    1    4    4    0    0  0.14967183140E+02 -0.61168501508E+02 -0.37495589287E+02  0.73290663552E+02  0.00000000000E+00 0.  1.
         11    1    4    4    0    0  0.19788457231E+02 -0.88379489354E+02 -0.24081541197E+03  0.25728307333E+03  0.00000000000E+00 0. -1.
</event>
<event>
 8    1  0.5951278E-006  0.1924442E+03  0.7561462E-02  0.1156275E+00
          2   -1    0    0  501    0  0.00000000000E+00  0.00000000000E+00  0.87316860862E+03  0.87316860862E+03  0.00000000000E+00 0.  1.
         -2   -1    0    0    0  501 -0.00000000000E+00 -0.00000000000E+00 -0.51931168353E+02  0.51931168353E+02  0.00000000000E+00 0. -1.
         23    2    1    2    0    0 -0.84173945436E+02  0.15512976186E+03  0.31583058286E+03  0.38281485430E+03  0.12509100488E+03 0.  0.
         23    2    1    2    0    0  0.84173945436E+02 -0.15512976186E+03  0.50540685741E+03  0.54228492267E+03  0.86523694645E+02 0.  0.
          5    1    3    3  502    0 -0.82786189339E+02  0.17099179471E+03  0.31291829039E+03  0.36609708530E+03  0.41800000000E+01 0.  1.
         -5    1    3    3    0  502 -0.13877560968E+01 -0.15862032851E+02  0.29122924711E+01  0.16717769007E+02  0.41800000000E+01 0.  1.
        -11    1    4    4    0    0  0.27372593034E+01 -0.23208232348E+02  0.14553386357E+02  0.27530268645E+02  0.00000000000E+00 0. -1.
         11    1    4    4    0    0  0.81436686132E+02 -0.13192152951E+03  0.49085347105E+03  0.51475465402E+03  0.00000000000E+00 0.  1.
</event>
<event>
 8    1  0.6052170E-006  0.1515590E+03  0.7561462E-02  0.1198570E+00
         -2   -1    0    0    0  501 -0.00000000000E+00  0.00000000000E+00  0.65843842343E+02  0.65843842343E+02  0.00000000000E+00 0.  1.
          2   -1    0    0  501    0  0.00000000000E+00 -0.00000000000E+00 -0.45525884073E+03  0.45525884073E+03  0.00000000000E+00 0. -1.
         23    2    1    2    0    0 -0.10821547533E+03 -0.77980909881E+02 -0.17954712252E+03  0.25627318284E+03  0.12508862310E+03 0.  0.
         23    2    1    2    0    0  0.10821547533E+03  0.77980909881E+02 -0.20986787586E+03  0.26482950023E+03  0.91096253870E+02 0.  0.
          5    1    3    3  502    0 -0.10515237312E+03 -0.56077348018E+02 -0.19528192669E+03  0.22881038837E+03  0.41800000000E+01 0.  1.
         -5    1    3    3    0  502 -0.30631022030E+01 -0.21903561862E+02  0.15734804173E+02  0.27462794463E+02  0.41800000000E+01 0.  1.
        -11    1    4    4    0    0  0.24313640860E+02  0.73418613376E+02 -0.94728991835E+02  0.12229075115E+03  0.00000000000E+00 0.  1.
         11    1    4    4    0    0  0.83901834466E+02  0.45622965046E+01 -0.11513888403E+03  0.14253874909E+03  0.00000000000E+00 0. -1.
</event>
<event>
 7    1  0.5951278E-006  0.1741008E+03  0.7561462E-02  0.1173638E+00
          1   -1    0    0  501    0  0.00000000000E+00  0.00000000000E+00  0.87625880538E+02  0.87625880538E+02  0.00000000000E+00 0. -1.
         -1   -1    0    0    0  501 -0.00000000000E+00 -0.00000000000E+00 -0.54587141246E+03  0.54587141246E+03  0.00000000000E+00 0.  1.
         23    2    1    2    0    0  0.47822683334E+02 -0.69136732614E+02 -0.14276571012E+02  0.12655366612E+03  0.93515309390E+02 0.  0.
          5    1    1    2  502    0  0.80179200663E+02 -0.23213380580E+02 -0.19463229507E+03  0.21181777060E+03  0.41800000000E+01 0. -1.
         -5    1    1    2    0  502 -0.12800188400E+03  0.92350113194E+02 -0.24933666583E+03  0.29512585628E+03  0.41800000000E+01 0.  1.
        -11    1    3    3    0    0 -0.16306195372E+02 -0.81348139805E+01 -0.31494132988E+02  0.36386091006E+02  0.00000000000E+00 0.  1.
         11    1    3    3    0    0  0.64128878707E+02 -0.61001918633E+02  0.17217561976E+02  0.90167575112E+02  0.00000000000E+00 0. -1.
</event>
<event>
 8    1  0.5951278E-006  0.1686297E+03  0.7561462E-02  0.1179284E+00
          2   -1    0    0  501    0  0.00000000000E+00  0.00000000000E+00  0.13857981708E+03  0.13857981708E+03  0.00000000000E+00 0. -1.
         -2   -1    0    0    0  501 -0.00000000000E+00 -0.00000000000E+00 -0.21906937901E+03  0.21906937901E+03  0.00000000000E+00 0.  1.
         23    2    1    2    0    0 -0.10818201145E+03  0.77196799574E+02 -0.71288768912E+02  0.19593937743E+03  0.12508979810E+03 0.  0.
         23    2    1    2    0    0  0.10818201145E+03 -0.77196799574E+02 -0.92007930162E+01  0.16170981866E+03  0.91666337297E+02 0.  0.
          5    1    3    3  502    0 -0.12168253026E+03  0.94094107747E+02 -0.42401110225E+02  0.15961098281E+03  0.41800000000E+01 0.  1.
         -5    1    3    3    0  502  0.13500518812E+02 -0.16897308173E+02 -0.28887658688E+02  0.36328394626E+02  0.41800000000E+01 0.  1.
        -11    1    4    4    0    0  0.27231318720E+02  0.20786108933E+02  0.28650313227E+00  0.34259146630E+02  0.00000000000E+00 0. -1.
         11    1    4    4    0    0  0.80950692732E+02 -0.97982908507E+02 -0.94872961485E+01  0.12745067203E+03  0.00000000000E+00 0.  1.
</event>
<event>
 8    1  0.5951278E-006  0.9978022E+02  0.7561462E-02  0.1280759E+00
         -2   -1    0    0    0  501 -0.00000000000E+00  0.00000000000E+00  0.27917285249E+02  0.27917285249E+02  0.00000000000E+00 0.  1.
          2   -1    0    0  501    0  0.00000000000E+00 -0.00000000000E+00 -0.64289538934E+03  0.64289538934E+03  0.00000000000E+00 0. -1.
         23    2    1    2    0    0 -0.36599345974E+02  0.65465114389E+02 -0.28277643858E+03  0.31817566098E+03  0.12509214083E+03 0.  0.
         23    2    1    2    0    0  0.36599345974E+02 -0.65465114389E+02 -0.33220166552E+03  0.35263701361E+03  0.91486192778E+02 0.  0.
          5    1    3    3  502    0 -0.21791584006E+02  0.67368936566E+02 -0.54695776716E+02  0.89568672749E+02  0.41800000000E+01 0. -1.
         -5    1    3    3    0  502 -0.14807761968E+02 -0.19038221765E+01 -0.22808066186E+03  0.22860698823E+03  0.41800000000E+01 0. -1.
        -11    1    4    4    0    0 -0.20552198736E+02 -0.49790772690E+02 -0.21036814563E+03  0.21715494610E+03  0.00000000000E+00 0.  1.
         11    1    4    4    0    0  0.57151544709E+02 -0.15674341699E+02 -0.12183351988E+03  0.13548206751E+03  0.00000000000E+00 0. -1.
</event>
<event>
 8    1  0.5951278E-006  0.8597197E+02  0.7561462E-02  0.1312910E+00
          2   -1    0    0  501    0  0.00000000000E+00  0.00000000000E+00  0.83779039467E+02  0.83779039467E+02  0.00000000000E+00 0. -1.
         -2   -1    0    0    0  501 -0.00000000000E+00 -0.00000000000E+00 -0.28646051735E+03  0.28646051735E+03  0.00000000000E+00 0.  1.
         23    2    1    2    0    0  0.16710635822E+02 -0.71071449044E+02 -0.21222720115E+03  0.25694011350E+03  0.12508973098E+03 0.  0.
         23    2    1    2    0    0 -0.16710635822E+02  0.71071449044E+02  0.95457232610E+01  0.11329944333E+03  0.86111827332E+02 0.  0.
          5    1    3    3  502    0  0.32533259858E+02 -0.89872978711E+01  0.12341255678E+01  0.34032043517E+02  0.41800000000E+01 0. -1.
         -5    1    3    3    0  502 -0.15822624036E+02 -0.62084151173E+02 -0.21346132672E+03  0.22290806998E+03  0.41800000000E+01 0. -1.
        -11    1    4    4    0    0  0.18200459042E+00  0.18700856517E+02  0.44389182920E+02  0.48167984392E+02  0.00000000000E+00 0. -1.
         11    1    4    4    0    0 -0.16892640413E+02  0.52370592527E+02 -0.34843459659E+02  0.65131458933E+02  0.00000000000E+00 0.  1.
</event>
<event>
 8    1  0.5951278E-006  0.1036972E+03  0.7561462E-02  0.1272708E+00
         -2   -1    0    0    0  501 -0.00000000000E+00  0.00000000000E+00  0.33481991582E+02  0.33481991582E+02  0.00000000000E+00 0.  1.
          2   -1    0    0  501    0  0.00000000000E+00 -0.00000000000E+00 -0.60626082398E+03  0.60626082398E+03  0.00000000000E+00 0. -1.
         23    2    1    2    0    0  0.85961339774E+02 -0.29585337010E+02 -0.32636094820E+03  0.36114074796E+03  0.12508607925E+03 0.  0.
         23    2    1    2    0    0 -0.85961339774E+02  0.29585337010E+02 -0.24641788420E+03  0.27860206761E+03  0.92912293698E+02 0.  0.
          5    1    3    3  502    0  0.30167271220E+02 -0.41340468959E+02 -0.30322927965E+02  0.59632633574E+02  0.41800000000E+01 0.  1.
         -5    1    3    3    0  502  0.55794068554E+02  0.11755131949E+02 -0.29603802024E+03  0.30150811438E+03  0.41800000000E+01 0.  1.
        -11    1    4    4    0    0 -0.50786045760E+02 -0.30692669663E+01 -0.21569632445E+03  0.22161576484E+03  0.00000000000E+00 0.  1.
         11    1    4    4    0    0 -0.35175294014E+02  0.32654603976E+02 -0.30721559749E+02  0.56986302769E+02  0.00000000000E+00 0. -1.
</event>
<event>
 8    1  0.5951278E-006  0.3843077E+03  0.7561462E-02  0.1049353E+00
          1   -1    0    0  501    0  0.00000000000E+00  0.00000000000E+00  0.60430964198E+03  0.60430964198E+03  0.00000000000E+00 0. -1.
         -1   -1    0    0    0  501 -0.00000000000E+00 -0.00000000000E+00 -0.27039037922E+03  0.27039037922E+03  0.00000000000E+00 0.  1.
         23    2    1    2    0    0 -0.27294147803E+03  0.25707335978E+03  0.57051151581E+02  0.39935486410E+03  0.12508281594E+03 0.  0.
         23    2    1    2    0    0  0.27294147803E+03 -0.25707335978E+03  0.27686811118E+03  0.47534515711E+03  0.93345083741E+02 0.  0.
          5    1    3    3  502    0 -0.10152020712E+03  0.17555324598E+03  0.67869031973E+01  0.20295031185E+03  0.41800000000E+01 0.  1.
         -5    1    3    3    0  502 -0.17142127092E+03  0.81520113799E+02  0.50264248384E+02  0.19640455224E+03  0.41800000000E+01 0.  1.
        -11    1    4    4    0    0  0.26436024931E+03 -0.24114922924E+03  0.23067102135E+03  0.42573279445E+03  0.00000000000E+00 0.  1.
         11    1    4    4    0    0  0.85812287251E+01 -0.15924130532E+02  0.46197089830E+02  0.49612362657E+02  0.00000000000E+00 0. -1.
</event>
<event>
 8    1  0.5951278E-006  0.1135212E+03  0.7561462E-02  0.1254185E+00
          2   -1    0    0  501    0  0.00000000000E+00  0.00000000000E+00  0.58384511888E+02  0.58384511888E+02  0.00000000000E+00 0. -1.
         -2   -1    0    0    0  501 -0.00000000000E+00 -0.00000000000E+00 -0.49208284378E+03  0.49208284378E+03  0.00000000000E+00 0.  1.
         23    2    1    2    0    0 -0.18834140358E+02 -0.55396032063E+02 -0.41905480509E+03  0.44122344759E+03  0.12509099019E+03 0.  0.
         23    2    1    2    0    0  0.18834140358E+02  0.55396032063E+02 -0.14643526801E+02  0.10924390807E+03  0.91084320068E+02 0.  0.
          5    1    3    3  502    0  0.23092171696E+02  0.30376972842E+02 -0.17424024994E+03  0.17841845748E+03  0.41800000000E+01 0. -1.
         -5    1    3    3    0  502 -0.41926312054E+02 -0.85773004905E+02 -0.24481455515E+03  0.26280499011E+03  0.41800000000E+01 0. -1.
        -11    1    4    4    0    0  0.28827443218E+02 -0.71932551327E+01 -0.31861191759E+02  0.43564893460E+02  0.00000000000E+00 0.  1.
         11    1    4    4    0    0 -0.99933028600E+01  0.62589287196E+02  0.17217664958E+02  0.65679014612E+02  0.00000000000E+00 0. -1.
</event>
<event>
 8    1  0.5951278E-006  0.1038949E+03  0.7561462E-02  0.1272312E+00
          3   -1    0    0  501    0  0.00000000000E+00  0.00000000000E+00  0.28343387770E+03  0.28343387770E+03  0.00000000000E+00 0. -1.
         -3   -1    0    0    0  501 -0.00000000000E+00 -0.00000000000E+00 -0.61375566300E+02  0.61375566300E+02  0.00000000000E+00 0.  1.
         23    2    1    2    0    0  0.61617007186E+02  0.22513430676E+02  0.74161230242E+02  0.15951541116E+03  0.12506705478E+03 0.  0.
         23    2    1    2    0    0 -0.61617007186E+02 -0.22513430676E+02  0.14789708116E+03  0.18529403284E+03  0.90315125285E+02 0.  0.
          5    1    3    3  502    0  0.48919246649E+01  0.40279949798E+02  0.89177207344E+02  0.98063509995E+02  0.41800000000E+01 0.  1.
         -5    1    3    3    0  502  0.56725082521E+02 -0.17766519123E+02 -0.15015977102E+02  0.61451901168E+02  0.41800000000E+01 0.  1.
        -11    1    4    4    0    0 -0.82215211716E+02 -0.26598393651E+02  0.95207840203E+02  0.12857429144E+03  0.00000000000E+00 0.  1.
         11    1    4    4    0    0  0.20598204530E+02  0.40849629756E+01  0.52689240954E+02  0.56719741401E+02  0.00000000000E+00 0. -1.
</event>
<event>
 8    1  0.5951278E-006  0.9378352E+02  0.7561462E-02  0.1293940E+00
          1   -1    0    0  501    0  0.00000000000E+00  0.00000000000E+00  0.39334198386E+03  0.39334198386E+03  0.00000000000E+00 0. -1.
         -1   -1    0    0    0  501 -0.00000000000E+00 -0.00000000000E+00 -0.31390078225E+02  0.31390078225E+02  0.00000000000E+00 0.  1.
         23    2    1    2    0    0 -0.17983121270E+02  0.43560288867E+01  0.18571716540E+03  0.22467936451E+03  0.12509030209E+03 0.  0.
         23    2    1    2    0    0  0.17983121270E+02 -0.43560288867E+01  0.17623474024E+03  0.20005269757E+03  0.92844119361E+02 0.  0.
          5    1    3    3  502    0 -0.58058703102E+02  0.30383848661E+02  0.55729639031E+02  0.86123494656E+02  0.41800000000E+01 0.  1.
         -5    1    3    3    0  502  0.40075581832E+02 -0.26027819774E+02  0.12998752636E+03  0.13855586986E+03  0.41800000000E+01 0.  1.
        -11    1    4    4    0    0  0.44980643342E+02 -0.10630574777E+02  0.16283302476E+03  0.16926565319E+03  0.00000000000E+00 0. -1.
         11    1    4    4    0    0 -0.26997522072E+02  0.62745458908E+01  0.13401715477E+02  0.30787044384E+02  0.00000000000E+00 0.  1.
</event>
<event>
 8    1  0.5951278E-006  0.9425849E+02  0.7561462E-02  0.1292855E+00
         -2   -1    0    0    0  501 -0.00000000000E+00  0.00000000000E+00  0.39056833742E+02  0.39056833742E+02  0.00000000000E+00 0.  1.
          2   -1    0    0  501    0  0.00000000000E+00 -0.00000000000E+00 -0.30234075128E+03  0.30234075128E+03  0.00000000000E+00 0. -1.
         23    2    1    2    0    0 -0.74053198582E+01  0.11520459128E+01 -0.14259410871E+03  0.18983327618E+03  0.12508967557E+03 0.  0.
         23    2    1    2    0    0  0.74053198582E+01 -0.11520459128E+01 -0.12068980883E+03  0.15156430885E+03  0.91375838104E+02 0.  0.
          5    1    3    3  502    0 -0.48290144794E+02  0.26058511021E+02 -0.12844522246E+03  0.13973772452E+03  0.41800000000E+01 0. -1.
         -5    1    3    3    0  502  0.40884824936E+02 -0.24906465109E+02 -0.14148886258E+02  0.50095551665E+02  0.41800000000E+01 0. -1.
        -11    1    4    4    0    0 -0.36455954528E+00 -0.42931886474E+02 -0.33105983500E+02  0.54215181668E+02  0.00000000000E+00 0.  1.
         11    1    4    4    0    0  0.77698794035E+01  0.41779840561E+02 -0.87583825328E+02  0.97349127178E+02  0.00000000000E+00 0. -1.
</event>
<event>
 8    1  0.5951278E-006  0.1679226E+03  0.7561462E-02  0.1180032E+00
         -1   -1    0    0    0  501 -0.00000000000E+00  0.00000000000E+00  0.39882123581E+02  0.39882123581E+02  0.00000000000E+00 0.  1.
          1   -1    0    0  501    0  0.00000000000E+00 -0.00000000000E+00 -0.91848173360E+03  0.91848173360E+03  0.00000000000E+00 0. -1.
         23    2    1    2    0    0 -0.15659502942E+03 -0.18355790252E+02 -0.44180783600E+03  0.48548399883E+03  0.12506642591E+03 0.  0.
         23    2    1    2    0    0  0.15659502942E+03  0.18355790252E+02 -0.43679177402E+03  0.47287985836E+03  0.89271318535E+02 0.  0.
          5    1    3    3  502    0 -0.97260192152E+01 -0.24328067905E+02 -0.20516994396E+03  0.20687829427E+03  0.41800000000E+01 0. -1.
         -5    1    3    3    0  502 -0.14686901020E+03  0.59722776534E+01 -0.23663789204E+03  0.27860570455E+03  0.41800000000E+01 0. -1.
        -11    1    4    4    0    0  0.90536822902E+01  0.11401032868E+02 -0.33180061695E+01  0.14931908064E+02  0.00000000000E+00 0.  1.
         11    1    4    4    0    0  0.14754134713E+03  0.69547573835E+01 -0.43347376785E+03  0.45794795029E+03  0.00000000000E+00 0. -1.
</event>
<event>
 8    1  0.5951278E-006  0.9538900E+02  0.7561462E-02  0.1290302E+00
          2   -1    0    0  501    0  0.00000000000E+00  0.00000000000E+00  0.30219242751E+03  0.30219242751E+03  0.00000000000E+00 0. -1.
         -2   -1    0    0    0  501 -0.00000000000E+00 -0.00000000000E+00 -0.56675093621E+02  0.56675093621E+02  0.00000000000E+00 0.  1.
         23    2    1    2    0    0  0.22420103596E+02 -0.42348049451E+02  0.58534754200E+02  0.14618006262E+03  0.12508507073E+03 0.  0.
         23    2    1    2    0    0 -0.22420103596E+02  0.42348049451E+02  0.18698257969E+03  0.21268745851E+03  0.89316580564E+02 0.  0.
          5    1    3    3  502    0 -0.56036506657E+00  0.27304863561E+02 -0.23347054515E+02  0.36172184585E+02  0.41800000000E+01 0.  1.
         -5    1    3    3    0  502  0.22980468662E+02 -0.69652913012E+02  0.81881808716E+02  0.11000787803E+03  0.41800000000E+01 0.  1.
        -11    1    4    4    0    0 -0.38410989288E+02 -0.58945087052E+01  0.34526220899E+02  0.51982778499E+02  0.00000000000E+00 0.  1.
         11    1    4    4    0    0  0.15990885692E+02  0.48242558156E+02  0.15245635879E+03  0.16070468001E+03  0.00000000000E+00 0. -1.
</event>
<event>
 8    1  0.5951278E-006  0.1411108E+03  0.7561462E-02  0.1211842E+00
          2   -1    0    0  501    0  0.00000000000E+00  0.00000000000E+00  0.98220955433E+02  0.98220955433E+02  0.00000000000E+00 0. -1.
         -2   -1    0    0    0  501 -0.00000000000E+00 -0.00000000000E+00 -0.34054158095E+03  0.34054158095E+03  0.00000000000E+00 0.  1.
         23    2    1    2    0    0 -0.11528891885E+03  0.52982609313E+02 -0.21580412178E+03  0.27985264019E+03  0.12508952611E+03 0.  0.
         23    2    1    2    0    0  0.11528891885E+03 -0.52982609313E+02 -0.26516503736E+02  0.15890989619E+03  0.91926810228E+02 0.  0.
          5    1    3    3  502    0 -0.21343920692E+02 -0.24566449685E+02 -0.12118583792E+03  0.12554900682E+03  0.41800000000E+01 0.  1.
         -5    1    3    3    0  502 -0.93944998158E+02  0.77549058998E+02 -0.94618283857E+02  0.15430363337E+03  0.41800000000E+01 0.  1.
        -11    1    4    4    0    0  0.10122222958E+03 -0.41643614352E+02  0.17947232437E+02  0.11091543414E+03  0.00000000000E+00 0. -1.
         11    1    4    4    0    0  0.14066689269E+02 -0.11338994961E+02 -0.44463736172E+02  0.47994462057E+02  0.00000000000E+00 0.  1.
</event>
<event>
 8    1  0.5951278E-006  0.1497225E+03  0.7561462E-02  0.1200814E+00
          2   -1    0    0  501    0  0.00000000000E+00  0.00000000000E+00  0.43172010984E+03  0.43172010984E+03  0.00000000000E+00 0. -1.
         -2   -1    0    0    0  501 -0.00000000000E+00 -0.00000000000E+00 -0.69796570644E+02  0.69796570644E+02  0.00000000000E+00 0.  1.
         23    2    1    2    0    0  0.71545849416E+02 -0.10865956596E+03  0.17381073279E+03  0.25056044691E+03  0.12507860281E+03 0.  0.
         23    2    1    2    0    0 -0.71545849416E+02  0.10865956596E+03  0.18811280641E+03  0.25095623357E+03  0.10328065352E+03 0.  0.
          5    1    3    3  502    0 -0.10863810307E+02  0.25011563693E+01 -0.13269422695E+02  0.17827735028E+02  0.41800000000E+01 0. -1.
         -5    1    3    3    0  502  0.82409659722E+02 -0.11116072233E+03  0.18708015548E+03  0.23273271188E+03  0.41800000000E+01 0. -1.
        -11    1    4    4    0    0 -0.85472991100E+02  0.10353900211E+03  0.11630441867E+03  0.17763072642E+03  0.00000000000E+00 0.  1.
         11    1    4    4    0    0  0.13927141684E+02  0.51205638508E+01  0.71808387744E+02  0.73325507158E+02  0.00000000000E+00 0. -1.
</event>
<event>
 8    1  0.5951278E-006  0.1704092E+03  0.7561462E-02  0.1177422E+00
          1   -1    0    0  501    0  0.00000000000E+00  0.00000000000E+00  0.35301099064E+03  0.35301099064E+03  0.00000000000E+00 0. -1.
         -1   -1    0    0    0  501 -0.00000000000E+00 -0.00000000000E+00 -0.10680882042E+03  0.10680882042E+03  0.00000000000E+00 0.  1.
         23    2    1    2    0    0 -0.13109095597E+03  0.65998757752E+02  0.51548676544E+02  0.19961372466E+03  0.12509076007E+03 0.  0.
         23    2    1    2    0    0  0.13109095597E+03 -0.65998757752E+02  0.19465349368E+03  0.26020608640E+03  0.90975546366E+02 0.  0.
          5    1    3    3  502    0 -0.95166134428E+01  0.56154838493E+02  0.52489259806E+02  0.77566272390E+02  0.41800000000E+01 0.  1.
         -5    1    3    3    0  502 -0.12157434253E+03  0.98439192596E+01 -0.94058326143E+00  0.12204745227E+03  0.41800000000E+01 0.  1.
        -11    1    4    4    0    0  0.13060589114E+03 -0.41325743046E+02  0.12186776790E+03  0.18335067137E+03  0.00000000000E+00 0.  1.
         11    1    4    4    0    0  0.48506483226E+00 -0.24673014706E+02  0.72785725778E+02  0.76855415032E+02  0.00000000000E+00 0. -1.
</event>
<event>
 8    1  0.5951278E-006  0.1076901E+03  0.7561462E-02  0.1264908E+00
          1   -1    0    0  501    0  0.00000000000E+00  0.00000000000E+00  0.62407167276E+03  0.62407167276E+03  0.00000000000E+00 0. -1.
         -1   -1    0    0    0  501 -0.00000000000E+00 -0.00000000000E+00 -0.25411475808E+02  0.25411475808E+02  0.00000000000E+00 0.  1.
         23    2    1    2    0    0 -0.80524120058E+01  0.60297307770E+02  0.33121223218E+03  0.35923518534E+03  0.12509104276E+03 0.  0.
         23    2    1    2    0    0  0.80524120058E+01 -0.60297307770E+02  0.26744796477E+03  0.29024796323E+03  0.94946614652E+02 0.  0.
          5    1    3    3  502    0 -0.27260997466E+02 -0.11436122785E+02  0.13206428265E+02  0.32647037151E+02  0.41800000000E+01 0. -1.
         -5    1    3    3    0  502  0.19208585460E+02  0.71733430555E+02  0.31800580392E+03  0.32658814819E+03  0.41800000000E+01 0. -1.
        -11    1    4    4    0    0  0.36756379524E+02 -0.71450526180E+02  0.16964703602E+03  0.18771341443E+03  0.00000000000E+00 0. -1.
         11    1    4    4    0    0 -0.28703967518E+02  0.11153218410E+02  0.97800928751E+02  0.10253454880E+03  0.00000000000E+00 0.  1.
</event>
<event>
 8    1  0.5951278E-006  0.1182589E+03  0.7561462E-02  0.1245997E+00
          1   -1    0    0  501    0  0.00000000000E+00  0.00000000000E+00  0.24822232471E+02  0.24822232471E+02  0.00000000000E+00 0. -1.
         -1   -1    0    0    0  501 -0.00000000000E+00 -0.00000000000E+00 -0.63788754088E+03  0.63788754088E+03  0.00000000000E+00 0.  1.
         23    2    1    2    0    0  0.52200898523E+02  0.63144054992E+01 -0.24893123110E+03  0.28351187763E+03  0.12508965352E+03 0.  0.
         23    2    1    2    0    0 -0.52200898523E+02 -0.63144054992E+01 -0.36413407731E+03  0.37919789572E+03  0.91829256433E+02 0.  0.
          5    1    3    3  502    0  0.62205894607E+02  0.53586834221E+02 -0.11739021605E+03  0.14331453991E+03  0.41800000000E+01 0.  1.
         -5    1    3    3    0  502 -0.10004996083E+02 -0.47272428721E+02 -0.13154101505E+03  0.14019733772E+03  0.41800000000E+01 0.  1.
        -11    1    4    4    0    0  0.25513818621E+02 -0.11360246693E+02 -0.93741682598E+02  0.97813665722E+02  0.00000000000E+00 0. -1.
         11    1    4    4    0    0 -0.77714717144E+02  0.50458411939E+01 -0.27039239471E+03  0.28138423000E+03  0.00000000000E+00 0.  1.
</event>
<event>
 8    1  0.5951278E-006  0.1094700E+03  0.7561462E-02  0.1261554E+00
         -1   -1    0    0    0  501 -0.00000000000E+00  0.00000000000E+00  0.40568150239E+02  0.40568150239E+02  0.00000000000E+00 0.  1.
          1   -1    0    0  501    0  0.00000000000E+00 -0.00000000000E+00 -0.38048530705E+03  0.38048530705E+03  0.00000000000E+00 0. -1.
         23    2    1    2    0    0  0.47723217895E+02 -0.24645552833E+00 -0.12691040166E+03  0.18447603518E+03  0.12509033232E+03 0.  0.
         23    2    1    2    0    0 -0.47723217895E+02  0.24645552833E+00 -0.21300675515E+03  0.23657742211E+03  0.91210923928E+02 0.  0.
          5    1    3    3  502    0  0.49659242405E+02  0.55862629294E+02 -0.53734131475E+02  0.92149351561E+02  0.41800000000E+01 0.  1.
         -5    1    3    3    0  502 -0.19360245101E+01 -0.56109084822E+02 -0.73176270186E+02  0.92326683623E+02  0.41800000000E+01 0.  1.
        -11    1    4    4    0    0 -0.34679688529E+02 -0.35561376742E+02 -0.55306421227E+02  0.74337692601E+02  0.00000000000E+00 0.  1.
         11    1    4    4    0    0 -0.13043529365E+02  0.35807832270E+02 -0.15770033392E+03  0.16223972951E+03  0.00000000000E+00 0. -1.
</event>
<event>
 7    1  0.5951278E-006  0.1020969E+03  0.7561462E-02  0.1275947E+00
          1   -1    0    0  501    0  0.00000000000E+00  0.00000000000E+00  0.15980641332E+03  0.15980641332E+03  0.00000000000E+00 0. -1.
         -1   -1    0    0    0  501 -0.00000000000E+00 -0.00000000000E+00 -0.15063884344E+03  0.15063884344E+03  0.00000000000E+00 0.  1.
         23    2    1    2    0    0  0.45571380845E+02 -0.49211007533E+02  0.56754583615E+02  0.12813168741E+03  0.93263993813E+02 0.  0.
          5    1    1    2  502    0 -0.55315544672E+02  0.98375048486E+01  0.50769708885E+02  0.75839447020E+02  0.41800000000E+01 0. -1.
         -5    1    1    2    0  502  0.97441638276E+01  0.39373502685E+02 -0.98356722620E+02  0.10647412233E+03  0.41800000000E+01 0.  1.
        -11    1    3    3    0    0 -0.19149947690E+02 -0.36359086015E+02  0.45296140803E+02  0.61159169419E+02  0.00000000000E+00 0.  1.
         11    1    3    3    0    0  0.64721328535E+02 -0.12851921519E+02  0.11458442812E+02  0.66972517988E+02  0.00000000000E+00 0. -1.
</event>
<event>
 8    1  0.5951278E-006  0.7219982E+02  0.7561462E-02  0.1352768E+00
          2   -1    0    0  501    0  0.00000000000E+00  0.00000000000E+00  0.86178037893E+03  0.86178037893E+03  0.00000000000E+00 0. -1.
         -2   -1    0    0    0  501 -0.00000000000E+00 -0.00000000000E+00 -0.13897877246E+02  0.13897877246E+02  0.00000000000E+00 0.  1.
         23    2    1    2    0    0 -0.46410887886E+01  0.95655439848E+01  0.48403663619E+03  0.50005277202E+03  0.12509304654E+03 0.  0.
         23    2    1    2    0    0  0.46410887886E+01 -0.95655439848E+01  0.36384586549E+03  0.37562548416E+03  0.92723520073E+02 0.  0.
          5    1    3    3  502    0 -0.27707522975E+02  0.11796012049E+02  0.22271153846E+02  0.37687258103E+02  0.41800000000E+01 0.  1.
         -5    1    3    3    0  502  0.23066434187E+02 -0.22304680642E+01  0.46176548234E+03  0.46236551391E+03  0.41800000000E+01 0.  1.
        -11    1    4    4    0    0 -0.17702085058E+02  0.35767752011E+02  0.20785119554E+03  0.21164785703E+03  0.00000000000E+00 0. -1.
         11    1    4    4    0    0  0.22343173847E+02 -0.45333295995E+02  0.15599466996E+03  0.16397762713E+03  0.00000000000E+00 0.  1.
</event>
<event>
 6    1  0.1315773E-005  0.1165159E+03  0.7561462E-02  0.1248958E+00
          2   -1    0    0  501    0  0.00000000000E+00  0.00000000000E+00  0.34861964330E+03  0.34861964330E+03  0.00000000000E+00 0.  1.
         -2   -1    0    0    0  501 -0.00000000000E+00 -0.00000000000E+00 -0.14491260505E+03  0.14491260505E+03  0.00000000000E+00 0. -1.
          5    1    1    2  502    0  0.25976935393E+02  0.96650085291E+02  0.25333143498E+03  0.27241572735E+03  0.41800000000E+01 0.  1.
         -5    1    1    2    0  502  0.28689554001E+02 -0.55036171798E+02 -0.11118116124E+03  0.12740013238E+03  0.41800000000E+01 0. -1.
        -11    1    1    2    0    0 -0.24626706081E+02 -0.87517595564E+01  0.23368709705E+02  0.35059442964E+02  0.00000000000E+00 0.  1.
         11    1    1    2    0    0 -0.30039783314E+02 -0.32862153937E+02  0.38188054806E+02  0.58656945648E+02  0.00000000000E+00 0. -1.
</event>
<event>
 8    1  0.5951278E-006  0.8512373E+02  0.7561462E-02  0.1315109E+00
          2   -1    0    0  501    0  0.00000000000E+00  0.00000000000E+00  0.12962691056E+03  0.12962691056E+03  0.00000000000E+00 0. -1.
         -2   -1    0    0    0  501 -0.00000000000E+00 -0.00000000000E+00 -0.10909003599E+03  0.10909003599E+03  0.00000000000E+00 0.  1.
         23    2    1    2    0    0  0.60795656405E+01 -0.11454769979E+02 -0.35473850158E+02  0.13066785788E+03  0.12509005621E+03 0.  0.
         23    2    1    2    0    0 -0.60795656405E+01  0.11454769979E+02  0.56010724730E+02  0.10804908868E+03  0.91483503460E+02 0.  0.
          5    1    3    3  502    0  0.12253055629E+02 -0.59744328553E+02  0.12272952019E+02  0.62350781212E+02  0.41800000000E+01 0. -1.
         -5    1    3    3    0  502 -0.61734899885E+01  0.48289558574E+02 -0.47746802177E+02  0.68317076665E+02  0.41800000000E+01 0. -1.
        -11    1    4    4    0    0  0.21855749827E+02  0.21413370869E+02  0.69145853349E+02  0.75613195197E+02  0.00000000000E+00 0. -1.
         11    1    4    4    0    0 -0.27935315467E+02 -0.99586008901E+01 -0.13135128620E+02  0.32435893479E+02  0.00000000000E+00 0.  1.
</event>
<event>
 8    1  0.5951278E-006  0.9765811E+02  0.7561462E-02  0.1285299E+00
          1   -1    0    0  501    0  0.00000000000E+00  0.00000000000E+00  0.58876213219E+02  0.58876213219E+02  0.00000000000E+00 0. -1.
         -1   -1    0    0    0  501 -0.00000000000E+00 -0.00000000000E+00 -0.27130372822E+03  0.27130372822E+03  0.00000000000E+00 0.  1.
         23    2    1    2    0    0 -0.64908089982E+02  0.22987267310E+02 -0.10072705859E+03  0.17476229479E+03  0.12511772355E+03 0.  0.
         23    2    1    2    0    0  0.64908089982E+02 -0.22987267310E+02 -0.11170045642E+03  0.15541764665E+03  0.83283721839E+02 0.  0.
          5    1    3    3  502    0 -0.12982264348E+02  0.35259898257E+02 -0.11359184298E+03  0.11971791347E+03  0.41800000000E+01 0.  1.
         -5    1    3    3    0  502 -0.51925825634E+02 -0.12272630946E+02  0.12864784393E+02  0.55044381326E+02  0.41800000000E+01 0.  1.
        -11    1    4    4    0    0  0.83028792808E+02 -0.15924411541E+02 -0.10509302795E+03  0.13487739559E+03  0.00000000000E+00 0.  1.
         11    1    4    4    0    0 -0.18120702826E+02 -0.70628557689E+01 -0.66074284625E+01  0.20540251055E+02  0.00000000000E+00 0. -1.
</event>
<event>
 8    1  0.5951278E-006  0.1017643E+03  0.7561462E-02  0.1276629E+00
         -1   -1    0    0    0  501 -0.00000000000E+00  0.00000000000E+00  0.24492020064E+02  0.24492020064E+02  0.00000000000E+00 0.  1.
          1   -1    0    0  501    0  0.00000000000E+00 -0.00000000000E+00 -0.45743932405E+03  0.45743932405E+03  0.00000000000E+00 0. -1.
         23    2    1    2    0    0  0.14814651466E+02 -0.33294388742E+02 -0.23588474695E+03  0.26803899469E+03  0.12196433335E+03 0.  0.
         23    2    1    2    0    0 -0.14814651466E+02  0.33294388742E+02 -0.19706255704E+03  0.21389234943E+03  0.74754903101E+02 0.  0.
          5    1    3    3  502    0 -0.45583702724E+02 -0.40074457590E+02 -0.78787428319E+02  0.99542791634E+02  0.41800000000E+01 0. -1.
         -5    1    3    3    0  502  0.60398354190E+02  0.67800688474E+01 -0.15709731863E+03  0.16849620305E+03  0.41800000000E+01 0.  1.
        -11    1    4    4    0    0 -0.39799940828E+02  0.39447590614E+02 -0.11566657349E+03  0.12852588813E+03  0.00000000000E+00 0. -1.
         11    1    4    4    0    0  0.24985289362E+02 -0.61532018711E+01 -0.81395983546E+02  0.85366461302E+02  0.00000000000E+00 0.  1.
</event>
<event>
 8    1  0.5951278E-006  0.1030521E+03  0.7561462E-02  0.1274006E+00
          1   -1    0    0  501    0  0.00000000000E+00  0.00000000000E+00  0.23285350312E+03  0.23285350312E+03  0.00000000000E+00 0. -1.
         -1   -1    0    0    0  501 -0.00000000000E+00 -0.00000000000E+00 -0.67411987618E+02  0.67411987618E+02  0.00000000000E+00 0.  1.
         23    2    1    2    0    0  0.53321366451E+02  0.31916746104E+02  0.77736523844E+02  0.15984741095E+03  0.12508549415E+03 0.  0.
         23    2    1    2    0    0 -0.53321366451E+02 -0.31916746104E+02  0.87704991658E+02  0.14041807979E+03  0.90350565950E+02 0.  0.
          5    1    3    3  502    0 -0.72204593771E+01  0.66200782792E+02  0.55187993082E+02  0.86590216862E+02  0.41800000000E+01 0. -1.
         -5    1    3    3    0  502  0.60541825828E+02 -0.34284036687E+02  0.22548530762E+02  0.73257194088E+02  0.41800000000E+01 0. -1.
        -11    1    4    4    0    0 -0.43027295936E+00 -0.13747557522E+02  0.83181074831E+02  0.84310566851E+02  0.00000000000E+00 0. -1.
         11    1    4    4    0    0 -0.52891093491E+02 -0.18169188582E+02  0.45239168261E+01  0.56107512936E+02  0.00000000000E+00 0.  1.
</event>
<event>
 8    1  0.5951278E-006  0.8087369E+02  0.7561462E-02  0.1326590E+00
         -2   -1    0    0    0  501 -0.00000000000E+00  0.00000000000E+00  0.43067288742E+02  0.43067288742E+02  0.00000000000E+00 0.  1.
          2   -1    0    0  501    0  0.00000000000E+00 -0.00000000000E+00 -0.29389805532E+03  0.29389805532E+03  0.00000000000E+00 0. -1.
         23    2    1    2    0    0  0.27316974350E+02  0.12216547840E+01 -0.12801990317E+03  0.18106598980E+03  0.12509231602E+03 0.  0.
         23    2    1    2    0    0 -0.27316974350E+02 -0.12216547840E+01 -0.12281086341E+03  0.15589935427E+03  0.92056455290E+02 0.  0.
          5    1    3    3  502    0  0.43267249592E+02 -0.16229302847E+02 -0.14461747958E+03  0.15187867842E+03  0.41800000000E+01 0. -1.
         -5    1    3    3    0  502 -0.15950275242E+02  0.17450957631E+02  0.16597576415E+02  0.29187311376E+02  0.41800000000E+01 0. -1.
        -11    1    4    4    0    0 -0.59281409403E+02 -0.26740551511E+01 -0.54962975112E+02  0.80884885516E+02  0.00000000000E+00 0. -1.
         11    1    4    4    0    0  0.31964435053E+02  0.14524003671E+01 -0.67847888299E+02  0.75014468749E+02  0.00000000000E+00 0.  1.
</event>
<event>
 8    1  0.5951278E-006  0.1261288E+03  0.7561462E-02  0.1233316E+00
         -1   -1    0    0    0  501 -0.00000000000E+00  0.00000000000E+00  0.54897534651E+03  0.54897534651E+03  0.00000000000E+00 0.  1.
          1   -1    0    0  501    0  0.00000000000E+00 -0.00000000000E+00 -0.56763774337E+02  0.56763774337E+02  0.00000000000E+00 0. -1.
         23    2    1    2    0    0 -0.38061403379E+02 -0.92126745796E+02  0.42682053032E+03  0.45580669644E+03  0.12509185305E+03 0.  0.
         23    2    1    2    0    0  0.38061403379E+02  0.92126745796E+02  0.65391041853E+02  0.14993242441E+03  0.90927090658E+02 0.  0.
          5    1    3    3  502    0  0.26785122117E+02 -0.25635550737E+02  0.28968889757E+02  0.47236566367E+02  0.41800000000E+01 0. -1.
         -5    1    3    3    0  502 -0.64846525496E+02 -0.66491195059E+02  0.39785164057E+03  0.40857013008E+03  0.41800000000E+01 0. -1.
        -11    1    4    4    0    0  0.37120333634E+01  0.87195055640E+02  0.73722931102E+02  0.11424459501E+03  0.00000000000E+00 0.  1.
         11    1    4    4    0    0  0.34349370015E+02  0.49316901558E+01 -0.83318892488E+01  0.35687829392E+02  0.00000000000E+00 0. -1.
</event>
<event>
 8    1  0.5951278E-006  0.9305739E+02  0.7561462E-02  0.1295612E+00
         -1   -1    0    0    0  501 -0.00000000000E+00  0.00000000000E+00  0.39445565237E+02  0.39445565237E+02  0.00000000000E+00 0.  1.
          1   -1    0    0  501    0  0.00000000000E+00 -0.00000000000E+00 -0.27830828797E+03  0.27830828797E+03  0.00000000000E+00 0. -1.
         23    2    1    2    0    0  0.24988239135E+02 -0.57496291246E+01 -0.10779368153E+03  0.16707108116E+03  0.12504318475E+03 0.  0.
         23    2    1    2    0    0 -0.24988239135E+02  0.57496291246E+01 -0.13106904120E+03  0.15068277205E+03  0.69776313320E+02 0.  0.
          5    1    3    3  502    0  0.68958120459E+02 -0.27086219960E+02 -0.42862247737E+02  0.85694401042E+02  0.41800000000E+01 0.  1.
         -5    1    3    3    0  502 -0.43969881324E+02  0.21336590836E+02 -0.64931433795E+02  0.81376680116E+02  0.41800000000E+01 0.  1.
        -11    1    4    4    0    0  0.95103591439E+01 -0.18423575971E+02 -0.11067748738E+02  0.23502556132E+02  0.00000000000E+00 0.  1.
         11    1    4    4    0    0 -0.34498598279E+02  0.24173205095E+02 -0.12000129246E+03  0.12718021591E+03  0.00000000000E+00 0. -1.
</event>
<event>
 7    1  0.5951278E-006  0.8210154E+02  0.7561462E-02  0.1323191E+00
         -4   -1    0    0    0  501 -0.00000000000E+00  0.00000000000E+00  0.72483155166E+02  0.72483155166E+02  0.00000000000E+00 0.  1.
          4   -1    0    0  501    0  0.00000000000E+00 -0.00000000000E+00 -0.19573909759E+03  0.19573909759E+03  0.00000000000E+00 0. -1.
         23    2    1    2    0    0 -0.40177066156E+02  0.91283394819E+01 -0.60128521429E+02  0.11147734407E+03  0.84345930104E+02 0.  0.
          5    1    1    2  502    0  0.65233006199E+02 -0.33394055783E+02  0.11466237810E+02  0.74293035130E+02  0.41800000000E+01 0.  1.
         -5    1    1    2    0  502 -0.25055940042E+02  0.24265716301E+02 -0.74593658806E+02  0.82451873557E+02  0.41800000000E+01 0.  1.
        -11    1    3    3    0    0 -0.96096457440E+01  0.20830021891E+02 -0.72838552829E+02  0.76365501907E+02  0.00000000000E+00 0. -1.
         11    1    3    3    0    0 -0.30567420412E+02 -0.11701682409E+02  0.12710031400E+02  0.35111842163E+02  0.00000000000E+00 0.  1.
</event>
<event>
 8    1  0.5951278E-006  0.1009604E+03  0.7561462E-02  0.1278289E+00
         -1   -1    0    0    0  501 -0.00000000000E+00  0.00000000000E+00  0.69865333075E+03  0.69865333075E+03  0.00000000000E+00 0. -1.
          1   -1    0    0  501    0  0.00000000000E+00 -0.00000000000E+00 -0.25098930554E+02  0.25098930554E+02  0.00000000000E+00 0.  1.
         23    2    1    2    0    0  0.62752144737E+02  0.33298462309E+02  0.43989217878E+03  0.46281627463E+03  0.12508859200E+03 0.  0.
         23    2    1    2    0    0 -0.62752144737E+02 -0.33298462309E+02  0.23366222142E+03  0.26093598668E+03  0.91885451324E+02 0.  0.
          5    1    3    3  502    0  0.48326220867E+02 -0.16819452664E+01  0.41386422597E+03  0.41670051896E+03  0.41800000000E+01 0.  1.
         -5    1    3    3    0  502  0.14425923871E+02  0.34980407575E+02  0.26027952816E+02  0.46115755674E+02  0.41800000000E+01 0.  1.
        -11    1    4    4    0    0 -0.55354800646E+02 -0.63489605661E+02  0.15608455161E+03  0.17736254179E+03  0.00000000000E+00 0.  1.
         11    1    4    4    0    0 -0.73973440914E+01  0.30191143352E+02  0.77577669812E+02  0.83573444885E+02  0.00000000000E+00 0. -1.
</event>
<event>
 8    1  0.5951278E-006  0.1087848E+03  0.7561462E-02  0.1262837E+00
          1   -1    0    0  501    0  0.00000000000E+00  0.00000000000E+00  0.57509312409E+03  0.57509312409E+03  0.00000000000E+00 0. -1.
         -1   -1    0    0    0  501 -0.00000000000E+00 -0.00000000000E+00 -0.31160161347E+02  0.31160161347E+02  0.00000000000E+00 0.  1.
         23    2    1    2    0    0  0.41745410488E+02  0.42330100301E+02  0.18492722607E+03  0.23104228418E+03  0.12509173214E+03 0.  0.
         23    2    1    2    0    0 -0.41745410488E+02 -0.42330100301E+02  0.35900573667E+03  0.37521100125E+03  0.91453047027E+02 0.  0.
          5    1    3    3  502    0  0.47859272290E+02  0.73225734115E+02  0.70925152232E+02  0.11269590809E+03  0.41800000000E+01 0.  1.
         -5    1    3    3    0  502 -0.61138618024E+01 -0.30895633814E+02  0.11400207384E+03  0.11834637609E+03  0.41800000000E+01 0.  1.
        -11    1    4    4    0    0 -0.45639605858E+02 -0.62660773508E+02  0.33335358384E+03  0.34224838644E+03  0.00000000000E+00 0. -1.
         11    1    4    4    0    0  0.38941953707E+01  0.20330673207E+02  0.25652152827E+02  0.32962614813E+02  0.00000000000E+00 0.  1.
</event>
<event>
 8    1  0.5951278E-006  0.1141774E+03  0.7561462E-02  0.1253024E+00
          4   -1    0    0  501    0  0.00000000000E+00  0.00000000000E+00  0.17379508921E+03  0.17379508921E+03  0.00000000000E+00 0. -1.
         -4   -1    0    0    0  501 -0.00000000000E+00 -0.00000000000E+00 -0.13732004036E+03  0.13732004036E+03  0.00000000000E+00 0.  1.
         23    2    1    2    0    0  0.34883225490E+02  0.21718315995E+02 -0.83092524793E+02  0.15573575599E+03  0.12514285176E+03 0.  0.
         23    2    1    2    0    0 -0.34883225490E+02 -0.21718315995E+02  0.11956757365E+03  0.15537937358E+03  0.90320653211E+02 0.  0.
          5    1    3    3  502    0  0.10845753058E+02  0.73452942148E+02 -0.50644854940E+02  0.89974100727E+02  0.41800000000E+01 0. -1.
         -5    1    3    3    0  502  0.24037472433E+02 -0.51734626153E+02 -0.32447669852E+02  0.65761655264E+02  0.41800000000E+01 0. -1.
        -11    1    4    4    0    0 -0.39263311813E+02  0.27142581564E+02  0.41883784287E+02  0.63502588724E+02  0.00000000000E+00 0.  1.
         11    1    4    4    0    0  0.43800863223E+01 -0.48860897559E+02  0.77683789361E+02  0.91876784858E+02  0.00000000000E+00 0. -1.
</event>
<event>
 7    1  0.5951278E-006  0.1081664E+03  0.7561462E-02  0.1264004E+00
         -3   -1    0    0    0  501 -0.00000000000E+00  0.00000000000E+00  0.32011691784E+03  0.32011691784E+03  0.00000000000E+00 0.  1.
          3   -1    0    0  501    0  0.00000000000E+00 -0.00000000000E+00 -0.12818450665E+03  0.12818450665E+03  0.00000000000E+00 0. -1.
         23    2    1    2    0    0  0.40457722657E+02  0.21417521902E+02 -0.84002832073E+02  0.13462031260E+03  0.94713331695E+02 0.  0.
          5    1    1    2  502    0  0.20871644858E+02  0.29997907809E+02  0.19974717796E+03  0.20310565609E+03  0.41800000000E+01 0. -1.
         -5    1    1    2    0  502 -0.61329367515E+02 -0.51415429711E+02  0.76188065303E+02  0.11057545581E+03  0.41800000000E+01 0.  1.
        -11    1    3    3    0    0 -0.11290985970E+02 -0.26549292668E+02 -0.46473369021E+02  0.54700322974E+02  0.00000000000E+00 0.  1.
         11    1    3    3    0    0  0.51748708627E+02  0.47966814569E+02 -0.37529463052E+02  0.79919989624E+02  0.00000000000E+00 0. -1.
</event>
<event>
 8    1  0.5951278E-006  0.1118212E+03  0.7561462E-02  0.1257234E+00
         -2   -1    0    0    0  501 -0.00000000000E+00  0.00000000000E+00  0.27434520799E+02  0.27434520799E+02  0.00000000000E+00 0.  1.
          2   -1    0    0  501    0  0.00000000000E+00 -0.00000000000E+00 -0.50679612723E+03  0.50679612723E+03  0.00000000000E+00 0. -1.
         23    2    1    2    0    0 -0.18097815495E+02  0.36506519875E+02 -0.21547411020E+03  0.25246334892E+03  0.12509353886E+03 0.  0.
         23    2    1    2    0    0  0.18097815495E+02 -0.36506519875E+02 -0.26388749623E+03  0.28176729911E+03  0.89977459722E+02 0.  0.
          5    1    3    3  502    0  0.39680670322E+02 -0.20200897466E+02 -0.11483113269E+03  0.12323267947E+03  0.41800000000E+01 0.  1.
         -5    1    3    3    0  502 -0.57778485816E+02  0.56707417341E+02 -0.10064297751E+03  0.12923066945E+03  0.41800000000E+01 0.  1.
        -11    1    4    4    0    0 -0.35599257403E+02 -0.60133208884E+01 -0.11651471434E+03  0.12198010417E+03  0.00000000000E+00 0.  1.
         11    1    4    4    0    0  0.53697072898E+02 -0.30493198987E+02 -0.14737278189E+03  0.15978719493E+03  0.00000000000E+00 0. -1.
</event>
<event>
 8    1  0.5951278E-006  0.9527085E+02  0.7561462E-02  0.1290567E+00
          1   -1    0    0  501    0  0.00000000000E+00  0.00000000000E+00  0.36774881875E+02  0.36774881875E+02  0.00000000000E+00 0. -1.
         -1   -1    0    0    0  501 -0.00000000000E+00 -0.00000000000E+00 -0.36223507542E+03  0.36223507542E+03  0.00000000000E+00 0.  1.
         23    2    1    2    0    0 -0.35542588689E+02  0.28254857902E+02 -0.22873616058E+03  0.26075266144E+03  0.11666236191E+03 0.  0.
         23    2    1    2    0    0  0.35542588689E+02 -0.28254857902E+02 -0.96724032966E+02  0.13825729585E+03  0.87737840740E+02 0.  0.
          5    1    3    3  502    0 -0.54909018130E+02 -0.61774655945E+01 -0.41189698110E+02  0.69045093841E+02  0.41800000000E+01 0. -1.
         -5    1    3    3    0  502  0.19366429441E+02  0.34432323496E+02 -0.18754646247E+03  0.19170756760E+03  0.41800000000E+01 0.  1.
        -11    1    4    4    0    0  0.60197187339E+02 -0.35271244289E+02 -0.53170837797E+02  0.87720579280E+02  0.00000000000E+00 0. -1.
         11    1    4    4    0    0 -0.24654598650E+02  0.70163863875E+01 -0.43553195169E+02  0.50536716573E+02  0.00000000000E+00 0.  1.
</event>
<event>
 8    1  0.5951278E-006  0.1039781E+03  0.7561462E-02  0.1272146E+00
         -1   -1    0    0    0  501 -0.00000000000E+00  0.00000000000E+00  0.58559869895E+03  0.58559869895E+03  0.00000000000E+00 0.  1.
          1   -1    0    0  501    0  0.00000000000E+00 -0.00000000000E+00 -0.19288555722E+02  0.19288555722E+02  0.00000000000E+00 0. -1.
         23    2    1    2    0    0  0.95316325646E+01 -0.17613402173E+02  0.39745773880E+03  0.41715808954E+03  0.12508850300E+03 0.  0.
         23    2    1    2    0    0 -0.95316325646E+01  0.17613402173E+02  0.16885240443E+03  0.18772916514E+03  0.79561429125E+02 0.  0.
          5    1    3    3  502    0 -0.57760300669E+02 -0.55168745607E+01  0.17994437215E+03  0.18911408648E+03  0.41800000000E+01 0. -1.
         -5    1    3    3    0  502  0.67291933234E+02 -0.12096527613E+02  0.21751336665E+03  0.22804400306E+03  0.41800000000E+01 0. -1.
        -11    1    4    4    0    0  0.34770178312E+02  0.43584346902E+01  0.60390252426E+02  0.69820798054E+02  0.00000000000E+00 0.  1.
         11    1    4    4    0    0 -0.44301810877E+02  0.13254967483E+02  0.10846215201E+03  0.11790836708E+03  0.00000000000E+00 0. -1.
</event>
<event>
 8    1  0.5951278E-006  0.1415179E+03  0.7561462E-02  0.1211301E+00
          1   -1    0    0  501    0  0.00000000000E+00  0.00000000000E+00  0.11246262548E+03  0.11246262548E+03  0.00000000000E+00 0. -1.
         -1   -1    0    0    0  501 -0.00000000000E+00 -0.00000000000E+00 -0.22426744777E+03  0.22426744777E+03  0.00000000000E+00 0.  1.
         23    2    1    2    0    0  0.83890706130E+02  0.63117137456E+02 -0.20647347276E+02  0.16460551423E+03  0.12508892337E+03 0.  0.
         23    2    1    2    0    0 -0.83890706130E+02 -0.63117137456E+02 -0.91157475014E+02  0.17212455901E+03  0.10146799962E+03 0.  0.
          5    1    3    3  502    0  0.25653201082E+02 -0.22238483427E+02  0.33494766706E+02  0.47874927338E+02  0.41800000000E+01 0. -1.
         -5    1    3    3    0  502  0.58237505048E+02  0.85355620883E+02 -0.54142113983E+02  0.11673058690E+03  0.41800000000E+01 0. -1.
        -11    1    4    4    0    0  0.23173339902E+02 -0.17490955044E+02 -0.12227929836E+02  0.31503324565E+02  0.00000000000E+00 0.  1.
         11    1    4    4    0    0 -0.10706404603E+03 -0.45626182413E+02 -0.78929545177E+02  0.14062123444E+03  0.00000000000E+00 0. -1.
</event>
<event>
 8    1  0.5951278E-006  0.1191450E+03  0.7561462E-02  0.1244514E+00
         -3   -1    0    0    0  501 -0.00000000000E+00  0.00000000000E+00  0.34904546393E+02  0.34904546393E+02  0.00000000000E+00 0.  1.
          3   -1    0    0  501    0  0.00000000000E+00 -0.00000000000E+00 -0.42231465922E+03  0.42231465922E+03  0.00000000000E+00 0. -1.
         23    2    1    2    0    0 -0.54720835659E+02 -0.13917925030E+02 -0.21165461969E+03  0.25225603083E+03  0.12508936230E+03 0.  0.
         23    2    1    2    0    0  0.54720835659E+02  0.13917925030E+02 -0.17575549313E+03  0.20496317478E+03  0.89060828414E+02 0.  0.
          5    1    3    3  502    0 -0.13814819358E+02  0.53850009083E+02 -0.11026973062E+03  0.12356196261E+03  0.41800000000E+01 0. -1.
         -5    1    3    3    0  502 -0.40906016301E+02 -0.67767934113E+02 -0.10138488907E+03  0.12869406822E+03  0.41800000000E+01 0. -1.
        -11    1    4    4    0    0 -0.85765771058E+01  0.35403538746E+02 -0.82897569926E+02  0.90548193412E+02  0.00000000000E+00 0. -1.
         11    1    4    4    0    0  0.63297412765E+02 -0.21485613715E+02 -0.92857923206E+02  0.11441498137E+03  0.00000000000E+00 0.  1.
</event>
<event>
 8    1  0.5951278E-006  0.8889286E+02  0.7561462E-02  0.1305555E+00
         -4   -1    0    0    0  501 -0.00000000000E+00  0.00000000000E+00  0.89034017070E+02  0.89034017070E+02  0.00000000000E+00 0.  1.
          4   -1    0    0  501    0  0.00000000000E+00 -0.00000000000E+00 -0.16638392495E+03  0.16638392495E+03  0.00000000000E+00 0. -1.
         23    2    1    2    0    0  0.43688184302E+02 -0.17756171825E+01 -0.99658407514E+01  0.13288753122E+03  0.12509183709E+03 0.  0.
         23    2    1    2    0    0 -0.43688184302E+02  0.17756171825E+01 -0.67384067131E+02  0.12253041080E+03  0.92527178735E+02 0.  0.
          5    1    3    3  502    0  0.21831300560E+02 -0.55232280218E+02  0.25736781718E+02  0.64861890163E+02  0.41800000000E+01 0.  1.
         -5    1    3    3    0  502  0.21856883742E+02  0.53456663036E+02 -0.35702622469E+02  0.68025641056E+02  0.41800000000E+01 0.  1.
        -11    1    4    4    0    0 -0.64733214764E+01 -0.17339204698E+02 -0.77341250123E+02  0.79524970174E+02  0.00000000000E+00 0. -1.
         11    1    4    4    0    0 -0.37214862826E+02  0.19114821880E+02  0.99571829925E+01  0.43005440630E+02  0.00000000000E+00 0.  1.
</event>
<event>
 8    1  0.5951278E-006  0.1038192E+03  0.7561462E-02  0.1272464E+00
          1   -1    0    0  501    0  0.00000000000E+00  0.00000000000E+00  0.20887226178E+03  0.20887226178E+03  0.00000000000E+00 0. -1.
         -1   -1    0    0    0  501 -0.00000000000E+00 -0.00000000000E+00 -0.70821042084E+02  0.70821042084E+02  0.00000000000E+00 0.  1.
         23    2    1    2    0    0 -0.19726911289E+02  0.47619924850E+02  0.59561464748E+02  0.14782469759E+03  0.12509102631E+03 0.  0.
         23    2    1    2    0    0  0.19726911289E+02 -0.47619924850E+02  0.78489754949E+02  0.13186860628E+03  0.92584444791E+02 0.  0.
          5    1    3    3  502    0 -0.14664322791E+02  0.75090636439E+02 -0.55774637510E+01  0.76825949689E+02  0.41800000000E+01 0. -1.
         -5    1    3    3    0  502 -0.50625884984E+01 -0.27470711589E+02  0.65138928499E+02  0.70998747901E+02  0.41800000000E+01 0. -1.
        -11    1    4    4    0    0  0.52247896271E+02 -0.46949120420E+02  0.67807537529E+02  0.97631576443E+02  0.00000000000E+00 0.  1.
         11    1    4    4    0    0 -0.32520984981E+02 -0.67080442993E+00  0.10682217420E+02  0.34237029832E+02  0.00000000000E+00 0. -1.
</event>
<event>
 8    1  0.5951278E-006  0.2040880E+03  0.7561462E-02  0.1146335E+00
         -2   -1    0    0    0  501 -0.00000000000E+00  0.00000000000E+00  0.16733507632E+03  0.16733507632E+03  0.00000000000E+00 0.  1.
          2   -1    0    0  501    0  0.00000000000E+00 -0.00000000000E+00 -0.41735369455E+03  0.41735369455E+03  0.00000000000E+00 0. -1.
         23    2    1    2    0    0  0.17933806307E+03  0.82440916971E+02  0.24031421783E+02  0.23490900204E+03  0.12508430897E+03 0.  0.
         23    2    1    2    0    0 -0.17933806307E+03 -0.82440916971E+02 -0.27405004001E+03  0.34977976883E+03  0.91015474490E+02 0.  0.
          5    1    3    3  502    0  0.14730514730E+03  0.36692911926E+02  0.65334472903E+02  0.16532163185E+03  0.41800000000E+01 0.  1.
         -5    1    3    3    0  502  0.32032915760E+02  0.45748005045E+02 -0.41303051121E+02  0.69587370187E+02  0.41800000000E+01 0.  1.
        -11    1    4    4    0    0 -0.14052301041E+03 -0.48233037160E+02 -0.25406485164E+03  0.29431631142E+03  0.00000000000E+00 0.  1.
         11    1    4    4    0    0 -0.38815052652E+02 -0.34207879811E+02 -0.19985188373E+02  0.55463457410E+02  0.00000000000E+00 0. -1.
</event>
<event>
 8    1  0.5951278E-006  0.1642673E+03  0.7561462E-02  0.1183962E+00
          1   -1    0    0  501    0  0.00000000000E+00  0.00000000000E+00  0.79229817811E+02  0.79229817811E+02  0.00000000000E+00 0. -1.
         -1   -1    0    0    0  501 -0.00000000000E+00 -0.00000000000E+00 -0.51328173272E+03  0.51328173272E+03  0.00000000000E+00 0.  1.
         23    2    1    2    0    0  0.25167961804E+02  0.15688574773E+03 -0.31543891343E+03  0.37468763034E+03  0.12507017263E+03 0.  0.
         23    2    1    2    0    0 -0.25167961804E+02 -0.15688574773E+03 -0.11861300148E+03  0.21782392019E+03  0.90175672701E+02 0.  0.
          5    1    3    3  502    0 -0.15645438414E+02  0.76653059519E+02 -0.46619932703E+02  0.91166670456E+02  0.41800000000E+01 0.  1.
         -5    1    3    3    0  502  0.40813400218E+02  0.80232688206E+02 -0.26881898072E+03  0.28352095988E+03  0.41800000000E+01 0.  1.
        -11    1    4    4    0    0 -0.68371648364E+01 -0.10161235786E+03 -0.12268589869E+03  0.15944794709E+03  0.00000000000E+00 0.  1.
         11    1    4    4    0    0 -0.18330796968E+02 -0.55273389864E+02  0.40728972059E+01  0.58375973107E+02  0.00000000000E+00 0. -1.
</event>
<event>
 7    1  0.5951278E-006  0.1003301E+03  0.7561462E-02  0.1279603E+00
         -2   -1    0    0    0  501 -0.00000000000E+00  0.00000000000E+00  0.98705830675E+02  0.98705830675E+02  0.00000000000E+00 0.  1.
          2   -1    0    0  501    0  0.00000000000E+00 -0.00000000000E+00 -0.14256527718E+03  0.14256527718E+03  0.00000000000E+00 0. -1.
         23    2    1    2    0    0  0.54628925510E+02  0.49711782229E+02 -0.36888232648E+02  0.14987474196E+03  0.12508443458E+03 0.  0.
          5    1    3    3  502    0 -0.23794628818E+02  0.78090692234E+01 -0.53596166996E+02  0.59305880311E+02  0.41800000000E+01 0.  1.
         -5    1    3    3    0  502  0.78423554327E+02  0.41902713005E+02  0.16707934348E+02  0.90568861651E+02  0.41800000000E+01 0.  1.
        -11    1    1    2    0    0 -0.22027284750E+02 -0.48913670267E+02 -0.18593874851E+02  0.56775704261E+02  0.00000000000E+00 0. -1.
         11    1    1    2    0    0 -0.32601640760E+02 -0.79811196215E+00  0.11622660997E+02  0.34620661629E+02  0.00000000000E+00 0.  1.
</event>
<event>
 8    1  0.5951278E-006  0.2153335E+03  0.7561462E-02  0.1137411E+00
         -2   -1    0    0    0  501 -0.00000000000E+00  0.00000000000E+00  0.88425034842E+02  0.88425034842E+02  0.00000000000E+00 0.  1.
          2   -1    0    0  501    0  0.00000000000E+00 -0.00000000000E+00 -0.58006855889E+03  0.58006855889E+03  0.00000000000E+00 0. -1.
         23    2    1    2    0    0 -0.91285633570E+02  0.17099117919E+03 -0.16837646310E+03  0.28560401669E+03  0.12509184933E+03 0.  0.
         23    2    1    2    0    0  0.91285633570E+02 -0.17099117919E+03 -0.32326706095E+03  0.38288957704E+03  0.67318535709E+02 0.  0.
          5    1    3    3  502    0 -0.14485742189E+02  0.14815266649E+03 -0.12482182219E+03  0.19431162860E+03  0.41800000000E+01 0.  1.
         -5    1    3    3    0  502 -0.76799891381E+02  0.22838512700E+02 -0.43554640911E+02  0.91292388091E+02  0.41800000000E+01 0.  1.
        -11    1    4    4    0    0  0.88562860315E+02 -0.11351537176E+03 -0.19579532469E+03  0.24303277356E+03  0.00000000000E+00 0.  1.
         11    1    4    4    0    0  0.27227732558E+01 -0.57475807434E+02 -0.12747173626E+03  0.13985680348E+03  0.00000000000E+00 0. -1.
</event>
<event>
 8    1  0.5951278E-006  0.8776368E+02  0.7561462E-02  0.1308359E+00
         -1   -1    0    0    0  501 -0.00000000000E+00  0.00000000000E+00  0.15929942704E+03  0.15929942704E+03  0.00000000000E+00 0.  1.
          1   -1    0    0  501    0  0.00000000000E+00 -0.00000000000E+00 -0.76760711709E+02  0.76760711709E+02  0.00000000000E+00 0. -1.
         23    2    1    2    0    0  0.24435785703E+01  0.10368621443E+02  0.63073885550E+02  0.14045799282E+03  0.12504660460E+03 0.  0.
         23    2    1    2    0    0 -0.24435785703E+01 -0.10368621443E+02  0.19464829784E+02  0.95602145934E+02  0.92991458328E+02 0.  0.
          5    1    3    3  502    0 -0.35813336692E+02 -0.34723901787E+02  0.63896310504E+02  0.81169916449E+02  0.41800000000E+01 0.  1.
         -5    1    3    3    0  502  0.38256915262E+02  0.45092523230E+02 -0.82242495380E+00  0.59288076368E+02  0.41800000000E+01 0.  1.
        -11    1    4    4    0    0  0.16962789271E+02 -0.32555930417E+02  0.43962657558E+02  0.57274253245E+02  0.00000000000E+00 0.  1.
         11    1    4    4    0    0 -0.19406367842E+02  0.22187308975E+02 -0.24497827774E+02  0.38327892689E+02  0.00000000000E+00 0. -1.
</event>
<event>
 8    1  0.5951278E-006  0.7642038E+02  0.7561462E-02  0.1339528E+00
         -3   -1    0    0    0  501 -0.00000000000E+00  0.00000000000E+00  0.23688626083E+02  0.23688626083E+02  0.00000000000E+00 0. -1.
          3   -1    0    0  501    0  0.00000000000E+00 -0.00000000000E+00 -0.61229631532E+03  0.61229631532E+03  0.00000000000E+00 0.  1.
         23    2    1    2    0    0 -0.44683011102E+01  0.44819661625E+02 -0.27125291231E+03  0.30208147965E+03  0.12508521147E+03 0.  0.
         23    2    1    2    0    0  0.44683011102E+01 -0.44819661625E+02 -0.31735477692E+03  0.33390346175E+03  0.93534483206E+02 0.  0.
          5    1    3    3  502    0 -0.73794703404E+01  0.46126012872E+02 -0.28423317557E+03  0.28807644149E+03  0.41800000000E+01 0.  1.
         -5    1    3    3    0  502  0.29111692303E+01 -0.13063512465E+01  0.12980263255E+02  0.14005038166E+02  0.41800000000E+01 0.  1.
        -11    1    4    4    0    0 -0.42806879634E+02 -0.23345478800E+02 -0.19466483356E+03  0.20067844366E+03  0.00000000000E+00 0.  1.
         11    1    4    4    0    0  0.47275180744E+02 -0.21474182825E+02 -0.12268994336E+03  0.13322501808E+03  0.00000000000E+00 0. -1.
</event>
<event>
 8    1  0.5951278E-006  0.1620383E+03  0.7561462E-02  0.1186415E+00
         -3   -1    0    0    0  501 -0.00000000000E+00  0.00000000000E+00  0.13636381755E+03  0.13636381755E+03  0.00000000000E+00 0.  1.
          3   -1    0    0  501    0  0.00000000000E+00 -0.00000000000E+00 -0.29985937004E+03  0.29985937004E+03  0.00000000000E+00 0. -1.
         23    2    1    2    0    0 -0.12128512385E+03 -0.85936642622E+02  0.38410104554E+01  0.19431975416E+03  0.12510086204E+03 0.  0.
         23    2    1    2    0    0  0.12128512385E+03  0.85936642622E+02 -0.16733656295E+03  0.24190343342E+03  0.91763598384E+02 0.  0.
          5    1    3    3  502    0 -0.13329518463E+03 -0.90839126506E+02 -0.24179161930E+02  0.16316083299E+03  0.41800000000E+01 0.  1.
         -5    1    3    3    0  502  0.12010060781E+02  0.49024838838E+01  0.28020172385E+02  0.31158921173E+02  0.41800000000E+01 0.  1.
        -11    1    4    4    0    0  0.67684008708E+02  0.54899772994E+02 -0.31598401164E+02  0.92701505197E+02  0.00000000000E+00 0.  1.
         11    1    4    4    0    0  0.53601115144E+02  0.31036869628E+02 -0.13573816179E+03  0.14920192823E+03  0.00000000000E+00 0. -1.
</event>
<event>
 8    1  0.5951278E-006  0.1976222E+03  0.7561462E-02  0.1151761E+00
         -3   -1    0    0    0  501 -0.00000000000E+00  0.00000000000E+00  0.94089783785E+03  0.94089783785E+03  0.00000000000E+00 0.  1.
          3   -1    0    0  501    0  0.00000000000E+00 -0.00000000000E+00 -0.52271180415E+02  0.52271180415E+02  0.00000000000E+00 0. -1.
         23    2    1    2    0    0  0.22310526256E+02  0.17714714072E+03  0.29640404474E+03  0.36794781622E+03  0.12510543024E+03 0.  0.
         23    2    1    2    0    0 -0.22310526256E+02 -0.17714714072E+03  0.59222261270E+03  0.62522120205E+03  0.91077216967E+02 0.  0.
          5    1    3    3  502    0 -0.34198024281E+02  0.14450868457E+03  0.23636953302E+03  0.27917788832E+03  0.41800000000E+01 0. -1.
         -5    1    3    3    0  502  0.56508550537E+02  0.32638456147E+02  0.60034511712E+02  0.88769927903E+02  0.41800000000E+01 0. -1.
        -11    1    4    4    0    0 -0.26210490968E+02 -0.82419962204E+02  0.15179386106E+03  0.17470379579E+03  0.00000000000E+00 0. -1.
         11    1    4    4    0    0  0.38999647118E+01 -0.94727178516E+02  0.44042875164E+03  0.45051740626E+03  0.00000000000E+00 0.  1.
</event>
<event>
 8    1  0.5951278E-006  0.1126955E+03  0.7561462E-02  0.1255658E+00
         -3   -1    0    0    0  501 -0.00000000000E+00  0.00000000000E+00  0.10028903718E+03  0.10028903718E+03  0.00000000000E+00 0.  1.
          3   -1    0    0  501    0  0.00000000000E+00 -0.00000000000E+00 -0.15969731134E+03  0.15969731134E+03  0.00000000000E+00 0. -1.
         23    2    1    2    0    0  0.24367568885E+02 -0.47367876071E+02  0.17049335031E+01  0.13596900357E+03  0.12508864472E+03 0.  0.
         23    2    1    2    0    0 -0.24367568885E+02  0.47367876071E+02 -0.61113207666E+02  0.12401734495E+03  0.93850858281E+02 0.  0.
          5    1    3    3  502    0  0.31635122630E+02  0.38267929053E+02 -0.17117311102E+01  0.49855970568E+02  0.41800000000E+01 0. -1.
         -5    1    3    3    0  502 -0.72675537450E+01 -0.85635805124E+02  0.34166646133E+01  0.86113033007E+02  0.41800000000E+01 0. -1.
        -11    1    4    4    0    0 -0.11284484656E+02 -0.18878049409E+02 -0.51256998468E+02  0.55776341180E+02  0.00000000000E+00 0. -1.
         11    1    4    4    0    0 -0.13083084229E+02  0.66245925480E+02 -0.98562091977E+01  0.68241003769E+02  0.00000000000E+00 0.  1.
</event>
<event>
 8    1  0.5951278E-006  0.1389883E+03  0.7561462E-02  0.1214697E+00
         -1   -1    0    0    0  501 -0.00000000000E+00  0.00000000000E+00  0.27367001700E+03  0.27367001700E+03  0.00000000000E+00 0.  1.
          1   -1    0    0  501    0  0.00000000000E+00 -0.00000000000E+00 -0.11583635030E+03  0.11583635030E+03  0.00000000000E+00 0. -1.
         23    2    1    2    0    0 -0.13750798383E+03 -0.11327379257E+02  0.11278929847E+03  0.21774023070E+03  0.12511045951E+03 0.  0.
         23    2    1    2    0    0  0.13750798383E+03  0.11327379257E+02  0.45044368225E+02  0.17176613660E+03  0.91857800079E+02 0.  0.
          5    1    3    3  502    0 -0.72769339249E+02  0.46546409023E+01 -0.14052790083E+02  0.74377387194E+02  0.41800000000E+01 0. -1.
         -5    1    3    3    0  502 -0.64738644578E+02 -0.15982020159E+02  0.12684208855E+03  0.14336284351E+03  0.41800000000E+01 0. -1.
        -11    1    4    4    0    0  0.34823006963E+02  0.47316531439E-01  0.58003375802E+02  0.67653792630E+02  0.00000000000E+00 0.  1.
         11    1    4    4    0    0  0.10268497686E+03  0.11280062726E+02 -0.12959007577E+02  0.10411234397E+03  0.00000000000E+00 0. -1.
</event>
<event>
 8    1  0.5951278E-006  0.8734157E+02  0.7561462E-02  0.1309420E+00
          1   -1    0    0  501    0  0.00000000000E+00  0.00000000000E+00  0.32534953979E+02  0.32534953979E+02  0.00000000000E+00 0. -1.
         -1   -1    0    0    0  501 -0.00000000000E+00 -0.00000000000E+00 -0.32752905748E+03  0.32752905748E+03  0.00000000000E+00 0.  1.
         23    2    1    2    0    0  0.21432367464E+02 -0.12719897700E+02 -0.25618584793E+03  0.28618039137E+03  0.12508751157E+03 0.  0.
         23    2    1    2    0    0 -0.21432367464E+02  0.12719897700E+02 -0.38808255576E+02  0.73883620094E+02  0.57719723187E+02 0.  0.
          5    1    3    3  502    0  0.81224156821E+01  0.48556219023E+02 -0.18377923962E+03  0.19030491680E+03  0.41800000000E+01 0.  1.
         -5    1    3    3    0  502  0.13309951781E+02 -0.61276116723E+02 -0.72406608307E+02  0.95875474568E+02  0.41800000000E+01 0.  1.
        -11    1    4    4    0    0 -0.35246605376E+02  0.25585226612E+02 -0.30977960655E+02  0.53446805870E+02  0.00000000000E+00 0.  1.
         11    1    4    4    0    0  0.13814237913E+02 -0.12865328911E+02 -0.78302949213E+01  0.20436814225E+02  0.00000000000E+00 0. -1.
</event>
<event>
 8    1  0.5951278E-006  0.1516492E+03  0.7561462E-02  0.1198461E+00
          2   -1    0    0  501    0  0.00000000000E+00  0.00000000000E+00  0.29126703617E+03  0.29126703617E+03  0.00000000000E+00 0.  1.
         -2   -1    0    0    0  501 -0.00000000000E+00 -0.00000000000E+00 -0.11513153660E+03  0.11513153660E+03  0.00000000000E+00 0. -1.
         23    2    1    2    0    0  0.79857828440E+02  0.11618477507E+03  0.43513021060E+02  0.19342938811E+03  0.12508145531E+03 0.  0.
         23    2    1    2    0    0 -0.79857828440E+02 -0.11618477507E+03  0.13262247852E+03  0.21296918466E+03  0.88831171810E+02 0.  0.
          5    1    3    3  502    0  0.25663326214E+02  0.41632396629E+01  0.62179482082E+02  0.67525545306E+02  0.41800000000E+01 0.  1.
         -5    1    3    3    0  502  0.54194502226E+02  0.11202153541E+03 -0.18666461022E+02  0.12590384281E+03  0.41800000000E+01 0.  1.
        -11    1    4    4    0    0 -0.89217114486E+02 -0.10272493320E+03  0.79963288249E+02  0.15781708680E+03  0.00000000000E+00 0.  1.
         11    1    4    4    0    0  0.93592860466E+01 -0.13459841866E+02  0.52659190268E+02  0.55152097857E+02  0.00000000000E+00 0. -1.
</event>
<event>
 8    1  0.5951278E-006  0.1217175E+03  0.7561462E-02  0.1240290E+00
         -1   -1    0    0    0  501 -0.00000000000E+00  0.00000000000E+00  0.54319194922E+02  0.54319194922E+02  0.00000000000E+00 0.  1.
          1   -1    0    0  501    0  0.00000000000E+00 -0.00000000000E+00 -0.39697360555E+03  0.39697360555E+03  0.00000000000E+00 0. -1.
         23    2    1    2    0    0 -0.43383337419E+02  0.74997918486E+02 -0.11645159416E+03  0.19160834124E+03  0.12508389547E+03 0.  0.
         23    2    1    2    0    0  0.43383337419E+02 -0.74997918486E+02 -0.22620281646E+03  0.25968445923E+03  0.93602897653E+02 0.  0.
          5    1    3    3  502    0  0.24486798599E+02  0.80192355169E+02 -0.63065982304E+02  0.10500098884E+03  0.41800000000E+01 0. -1.
         -5    1    3    3    0  502 -0.67870136018E+02 -0.51944366837E+01 -0.53385611860E+02  0.86607352397E+02  0.41800000000E+01 0. -1.
        -11    1    4    4    0    0  0.27057451366E+02 -0.19274479581E+02 -0.83886317590E+01  0.34263397093E+02  0.00000000000E+00 0.  1.
         11    1    4    4    0    0  0.16325886053E+02 -0.55723438904E+02 -0.21781418470E+03  0.22542106214E+03  0.00000000000E+00 0. -1.
</event>
<event>
 8    1  0.5951278E-006  0.1037063E+03  0.7561462E-02  0.1272690E+00
          2   -1    0    0  501    0  0.00000000000E+00  0.00000000000E+00  0.77104343881E+02  0.77104343881E+02  0.00000000000E+00 0.  1.
         -2   -1    0    0    0  501 -0.00000000000E+00 -0.00000000000E+00 -0.21307741020E+03  0.21307741020E+03  0.00000000000E+00 0. -1.
         23    2    1    2    0    0  0.48755974249E+02 -0.48697562267E+02 -0.74832528109E+02  0.16123315064E+03  0.12509046329E+03 0.  0.
         23    2    1    2    0    0 -0.48755974249E+02  0.48697562267E+02 -0.61140538207E+02  0.12894860344E+03  0.90227375675E+02 0.  0.
          5    1    3    3  502    0  0.66043227076E+02 -0.44875117863E+02 -0.10133972028E+03  0.12908406312E+03  0.41800000000E+01 0. -1.
         -5    1    3    3    0  502 -0.17287252826E+02 -0.38224444037E+01  0.26507192169E+02  0.32149087517E+02  0.41800000000E+01 0. -1.
        -11    1    4    4    0    0 -0.38968823589E+02 -0.17234980464E+02 -0.72259451725E+01  0.43218376267E+02  0.00000000000E+00 0.  1.
         11    1    4    4    0    0 -0.97871506600E+01  0.65932542731E+02 -0.53914593035E+02  0.85730227173E+02  0.00000000000E+00 0. -1.
</event>
<event>
 8    1  0.5951278E-006  0.8436386E+02  0.7561462E-02  0.1317105E+00
          2   -1    0    0  501    0  0.00000000000E+00  0.00000000000E+00  0.72467856040E+03  0.72467856040E+03  0.00000000000E+00 0. -1.
         -2   -1    0    0    0  501 -0.00000000000E+00 -0.00000000000E+00 -0.22966483834E+02  0.22966483834E+02  0.00000000000E+00 0.  1.
         23    2    1    2    0    0 -0.35377608636E+02  0.58874838199E+02  0.35468586296E+03  0.38231909739E+03  0.12509200247E+03 0.  0.
         23    2    1    2    0    0  0.35377608636E+02 -0.58874838199E+02  0.34702621361E+03  0.36532594684E+03  0.91203249610E+02 0.  0.
          5    1    3    3  502    0  0.15967362194E+02  0.11530228291E+02  0.27715653600E+03  0.27788688467E+03  0.41800000000E+01 0. -1.
         -5    1    3    3    0  502 -0.51344970830E+02  0.47344609908E+02  0.77529326957E+02  0.10443221273E+03  0.41800000000E+01 0. -1.
        -11    1    4    4    0    0 -0.64740304330E+01 -0.21714796220E+02  0.11968576255E+02  0.25626007541E+02  0.00000000000E+00 0.  1.
         11    1    4    4    0    0  0.41851639069E+02 -0.37160041979E+02  0.33505763735E+03  0.33969993930E+03  0.00000000000E+00 0. -1.
</event>
<event>
 8    1  0.5951278E-006  0.1150870E+03  0.7561462E-02  0.1251429E+00
         -2   -1    0    0    0  501 -0.00000000000E+00  0.00000000000E+00  0.24414301674E+02  0.24414301674E+02  0.00000000000E+00 0. -1.
          2   -1    0    0  501    0  0.00000000000E+00 -0.00000000000E+00 -0.54820772047E+03  0.54820772047E+03  0.00000000000E+00 0.  1.
         23    2    1    2    0    0  0.91456284937E+01 -0.39957254261E+02 -0.28976514515E+03  0.31826320519E+03  0.12508958288E+03 0.  0.
         23    2    1    2    0    0 -0.91456284937E+01  0.39957254261E+02 -0.23402827365E+03  0.25435881696E+03  0.90823731527E+02 0.  0.
          5    1    3    3  502    0  0.62067906137E+02  0.29873455504E+01 -0.15857569719E+03  0.17036746563E+03  0.41800000000E+01 0. -1.
         -5    1    3    3    0  502 -0.52922277643E+02 -0.42944599811E+02 -0.13118944796E+03  0.14789573956E+03  0.41800000000E+01 0. -1.
        -11    1    4    4    0    0 -0.50160732855E+02  0.20034931327E+02 -0.12359282136E+03  0.13488025462E+03  0.00000000000E+00 0.  1.
         11    1    4    4    0    0  0.41015104361E+02  0.19922322934E+02 -0.11043545229E+03  0.11947856234E+03  0.00000000000E+00 0. -1.
</event>
<event>
 8    1  0.5951278E-006  0.1365842E+03  0.7561462E-02  0.1218000E+00
          1   -1    0    0  501    0  0.00000000000E+00  0.00000000000E+00  0.40295937231E+02  0.40295937231E+02  0.00000000000E+00 0. -1.
         -1   -1    0    0    0  501 -0.00000000000E+00 -0.00000000000E+00 -0.57102058697E+03  0.57102058697E+03  0.00000000000E+00 0.  1.
         23    2    1    2    0    0 -0.76979222639E+02  0.72133206392E+02 -0.28435515752E+03  0.32807203259E+03  0.12507758703E+03 0.  0.
         23    2    1    2    0    0  0.76979222639E+02 -0.72133206392E+02 -0.24636949221E+03  0.28324449161E+03  0.91654324227E+02 0.  0.
          5    1    3    3  502    0 -0.54394614276E+02  0.10796383525E+03 -0.21532039808E+03  0.24697228592E+03  0.41800000000E+01 0. -1.
         -5    1    3    3    0  502 -0.22584608362E+02 -0.35830628853E+02 -0.69034759440E+02  0.81099746669E+02  0.41800000000E+01 0. -1.
        -11    1    4    4    0    0  0.60187446584E+01 -0.21875417855E+02 -0.76498694533E+00  0.22701198176E+02  0.00000000000E+00 0. -1.
         11    1    4    4    0    0  0.70960477980E+02 -0.50257788537E+02 -0.24560450527E+03  0.26054329343E+03  0.00000000000E+00 0.  1.
</event>
<event>
 8    1  0.5951278E-006  0.8101109E+02  0.7561462E-02  0.1326206E+00
          3   -1    0    0  501    0  0.00000000000E+00  0.00000000000E+00  0.41508507070E+02  0.41508507070E+02  0.00000000000E+00 0. -1.
         -3   -1    0    0    0  501 -0.00000000000E+00 -0.00000000000E+00 -0.29079998010E+03  0.29079998010E+03  0.00000000000E+00 0.  1.
         23    2    1    2    0    0  0.67027383744E+01  0.13190433242E+02 -0.14813066662E+03  0.19444519425E+03  0.12508926789E+03 0.  0.
         23    2    1    2    0    0 -0.67027383744E+01 -0.13190433242E+02 -0.10116080641E+03  0.13786329293E+03  0.92487104782E+02 0.  0.
          5    1    3    3  502    0 -0.23231559884E+02  0.60918326581E+02 -0.10374115179E+03  0.12259872292E+03  0.41800000000E+01 0. -1.
         -5    1    3    3    0  502  0.29934298259E+02 -0.47727893338E+02 -0.44389514832E+02  0.71846471324E+02  0.41800000000E+01 0. -1.
        -11    1    4    4    0    0  0.10211828838E+02 -0.19606731999E+02 -0.11371463271E+03  0.11584352843E+03  0.00000000000E+00 0.  1.
         11    1    4    4    0    0 -0.16914567212E+02  0.64162987567E+01  0.12553826294E+02  0.22019764493E+02  0.00000000000E+00 0. -1.
</event>
<event>
 8    1  0.5951278E-006  0.1028599E+03  0.7561462E-02  0.1274394E+00
         -2   -1    0    0    0  501 -0.00000000000E+00  0.00000000000E+00  0.46561005655E+02  0.46561005655E+02  0.00000000000E+00 0.  1.
          2   -1    0    0  501    0  0.00000000000E+00 -0.00000000000E+00 -0.31758268023E+03  0.31758268023E+03  0.00000000000E+00 0. -1.
         23    2    1    2    0    0 -0.46759854961E+02  0.23802240351E+02 -0.11543995620E+03  0.17811934420E+03  0.12508831525E+03 0.  0.
         23    2    1    2    0    0  0.46759854961E+02 -0.23802240351E+02 -0.15558171838E+03  0.18602434168E+03  0.87443432699E+02 0.  0.
          5    1    3    3  502    0 -0.44637416380E+01  0.54476159795E+02 -0.39949557265E+01  0.54963706632E+02  0.41800000000E+01 0. -1.
         -5    1    3    3    0  502 -0.42296113323E+02 -0.30673919445E+02 -0.11144500047E+03  0.12315563757E+03  0.41800000000E+01 0. -1.
        -11    1    4    4    0    0 -0.13839071658E+02 -0.34298566077E+02 -0.83149931982E+02  0.91004520371E+02  0.00000000000E+00 0. -1.
         11    1    4    4    0    0  0.60598926619E+02  0.10496325726E+02 -0.72431786396E+02  0.95019821309E+02  0.00000000000E+00 0.  1.
</event>
<event>
 8    1  0.5951278E-006  0.9944720E+02  0.7561462E-02  0.1281463E+00
         -2   -1    0    0    0  501 -0.00000000000E+00  0.00000000000E+00  0.15522361718E+03  0.15522361718E+03  0.00000000000E+00 0.  1.
          2   -1    0    0  501    0  0.00000000000E+00 -0.00000000000E+00 -0.12994128438E+03  0.12994128438E+03  0.00000000000E+00 0. -1.
         23    2    1    2    0    0 -0.40606286575E+02 -0.54020508744E+02  0.74203037254E+02  0.15992440526E+03  0.12450959315E+03 0.  0.
         23    2    1    2    0    0  0.40606286575E+02  0.54020508744E+02 -0.48920704460E+02  0.12524049630E+03  0.93406962882E+02 0.  0.
          5    1    3    3  502    0 -0.72096520540E+02 -0.14254486868E+02  0.79983137505E+02  0.10870084340E+03  0.41800000000E+01 0. -1.
         -5    1    3    3    0  502  0.31490233965E+02 -0.39766021876E+02 -0.57801002513E+01  0.51223561863E+02  0.41800000000E+01 0. -1.
        -11    1    4    4    0    0  0.21247283249E+02  0.50395692327E+02 -0.74835659881E+02  0.92690608157E+02  0.00000000000E+00 0. -1.
         11    1    4    4    0    0  0.19359003326E+02  0.36248164169E+01  0.25914955421E+02  0.32549888146E+02  0.00000000000E+00 0.  1.
</event>
<event>
 8    1  0.5951278E-006  0.1211456E+03  0.7561462E-02  0.1241219E+00
          1   -1    0    0  501    0  0.00000000000E+00  0.00000000000E+00  0.26344678870E+03  0.26344678870E+03  0.00000000000E+00 0. -1.
         -1   -1    0    0    0  501 -0.00000000000E+00 -0.00000000000E+00 -0.82632279558E+02  0.82632279558E+02  0.00000000000E+00 0.  1.
         23    2    1    2    0    0 -0.76793031307E+02 -0.51933225846E+02  0.56466864262E+02  0.16562246300E+03  0.12509222153E+03 0.  0.
         23    2    1    2    0    0  0.76793031307E+02  0.51933225846E+02  0.12434764488E+03  0.18045660526E+03  0.92238928815E+02 0.  0.
          5    1    3    3  502    0  0.32501478972E+01 -0.29229018325E+02 -0.32303455912E+02  0.43884902159E+02  0.41800000000E+01 0.  1.
         -5    1    3    3    0  502 -0.80043179204E+02 -0.22704207521E+02  0.88770320174E+02  0.12173756084E+03  0.41800000000E+01 0.  1.
        -11    1    4    4    0    0  0.30058023324E+01  0.55333426311E+02  0.40034094738E+02  0.68363379498E+02  0.00000000000E+00 0.  1.
         11    1    4    4    0    0  0.73787228975E+02 -0.34002004648E+01  0.84313550142E+02  0.11209322576E+03  0.00000000000E+00 0. -1.
</event>
<event>
 7    1  0.5951278E-006  0.1289616E+03  0.7561462E-02  0.1229005E+00
         -1   -1    0    0    0  501 -0.00000000000E+00  0.00000000000E+00  0.11412065076E+03  0.11412065076E+03  0.00000000000E+00 0.  1.
          1   -1    0    0  501    0  0.00000000000E+00 -0.00000000000E+00 -0.14927733799E+03  0.14927733799E+03  0.00000000000E+00 0. -1.
         23    2    1    2    0    0 -0.54937334507E+02  0.36376481325E+02 -0.28377829711E+02  0.11531414169E+03  0.90281177098E+02 0.  0.
          5    1    1    2  502    0 -0.16552658954E+01 -0.76557714286E+02  0.76504040340E+01  0.77070257582E+02  0.41800000000E+01 0. -1.
         -5    1    1    2    0  502  0.56592600402E+02  0.40181232961E+02 -0.14429261550E+02  0.71013589484E+02  0.41800000000E+01 0.  1.
        -11    1    3    3    0    0  0.24719419830E+02  0.15609878635E+01 -0.79526844714E+01  0.26014065237E+02  0.00000000000E+00 0.  1.
         11    1    3    3    0    0 -0.79656754337E+02  0.34815493462E+02 -0.20425145239E+02  0.89300076453E+02  0.00000000000E+00 0. -1.
</event>
<event>
 8    1  0.5951278E-006  0.2373588E+03  0.7561462E-02  0.1121565E+00
          1   -1    0    0  501    0  0.00000000000E+00  0.00000000000E+00  0.27350602768E+03  0.27350602768E+03  0.00000000000E+00 0. -1.
         -1   -1    0    0    0  501 -0.00000000000E+00 -0.00000000000E+00 -0.25410132205E+03  0.25410132205E+03  0.00000000000E+00 0.  1.
         23    2    1    2    0    0 -0.10690545151E+03  0.20698820739E+03 -0.47563679965E+02  0.26866328802E+03  0.12507903548E+03 0.  0.
         23    2    1    2    0    0  0.10690545151E+03 -0.20698820739E+03  0.66968385593E+02  0.25894406171E+03  0.91073425692E+02 0.  0.
          5    1    3    3  502    0 -0.47314385291E+02  0.13764592245E+03  0.30027223695E+02  0.14867467029E+03  0.41800000000E+01 0.  1.
         -5    1    3    3    0  502 -0.59591066215E+02  0.69342284941E+02 -0.77590903660E+02  0.11998861773E+03  0.41800000000E+01 0.  1.
        -11    1    4    4    0    0  0.75101208831E+02 -0.94637996285E+02 -0.64962792844E+01  0.12099067548E+03  0.00000000000E+00 0.  1.
         11    1    4    4    0    0  0.31804242675E+02 -0.11235021111E+03  0.73464664877E+02  0.13795338623E+03  0.00000000000E+00 0. -1.
</event>
<event>
 8    1  0.5951278E-006  0.1170507E+03  0.7561462E-02  0.1248043E+00
         -3   -1    0    0    0  501 -0.00000000000E+00  0.00000000000E+00  0.11120409298E+03  0.11120409298E+03  0.00000000000E+00 0.  1.
          3   -1    0    0  501    0  0.00000000000E+00 -0.00000000000E+00 -0.20486386755E+03  0.20486386755E+03  0.00000000000E+00 0. -1.
         23    2    1    2    0    0  0.32521919577E+02  0.56266922547E+02  0.34434729450E+02  0.14510882987E+03  0.12508868888E+03 0.  0.
         23    2    1    2    0    0 -0.32521919577E+02 -0.56266922547E+02 -0.12809450401E+03  0.17095913067E+03  0.92710196711E+02 0.  0.
          5    1    3    3  502    0  0.70817651779E+02  0.45101371596E+02 -0.10683736289E+02  0.84740121220E+02  0.41800000000E+01 0.  1.
         -5    1    3    3    0  502 -0.38295732202E+02  0.11165550950E+02  0.45118465739E+02  0.60368708645E+02  0.41800000000E+01 0.  1.
        -11    1    4    4    0    0 -0.31879883312E+02  0.17359350774E+02 -0.24227592537E+02  0.43642298971E+02  0.00000000000E+00 0.  1.
         11    1    4    4    0    0 -0.64203626497E+00 -0.73626273321E+02 -0.10386691147E+03  0.12731683169E+03  0.00000000000E+00 0. -1.
</event>
<event>
 8    1  0.5951278E-006  0.9570206E+02  0.7561462E-02  0.1289603E+00
          2   -1    0    0  501    0  0.00000000000E+00  0.00000000000E+00  0.25208721578E+03  0.25208721578E+03  0.00000000000E+00 0. -1.
         -2   -1    0    0    0  501 -0.00000000000E+00 -0.00000000000E+00 -0.66114281449E+02  0.66114281449E+02  0.00000000000E+00 0.  1.
         23    2    1    2    0    0 -0.39907390908E+02  0.54634956119E+02  0.95419117515E+02  0.17124928530E+03  0.12507570287E+03 0.  0.
         23    2    1    2    0    0  0.39907390908E+02 -0.54634956119E+02  0.90553816815E+02  0.14695221193E+03  0.93900908258E+02 0.  0.
          5    1    3    3  502    0 -0.73089576146E+02  0.39269230279E+02  0.17248966686E+02  0.84847851120E+02  0.41800000000E+01 0. -1.
         -5    1    3    3    0  502  0.33182185238E+02  0.15365725839E+02  0.78170150829E+02  0.86401434180E+02  0.41800000000E+01 0. -1.
        -11    1    4    4    0    0  0.57302630977E+01 -0.26912409805E+02 -0.15887106746E+02  0.31772848117E+02  0.00000000000E+00 0.  1.
         11    1    4    4    0    0  0.34177127810E+02 -0.27722546313E+02  0.10644092356E+03  0.11517936381E+03  0.00000000000E+00 0. -1.
</event>
<event>
 8    1  0.5951278E-006  0.8947463E+02  0.7561462E-02  0.1304129E+00
         -2   -1    0    0    0  501 -0.00000000000E+00  0.00000000000E+00  0.14654508383E+02  0.14654508383E+02  0.00000000000E+00 0. -1.
          2   -1    0    0  501    0  0.00000000000E+00 -0.00000000000E+00 -0.81957896064E+03  0.81957896064E+03  0.00000000000E+00 0.  1.
         23    2    1    2    0    0  0.12715678123E+02 -0.11225939692E+02 -0.51913524291E+03  0.53426249605E+03  0.12508918443E+03 0.  0.
         23    2    1    2    0    0 -0.12715678123E+02  0.11225939692E+02 -0.28578920935E+03  0.29997097298E+03  0.89551115326E+02 0.  0.
          5    1    3    3  502    0  0.83495590794E+01  0.42951638854E+02 -0.76068143070E+02  0.87854386386E+02  0.41800000000E+01 0.  1.
         -5    1    3    3    0  502  0.43661190440E+01 -0.54177578546E+02 -0.44306709984E+03  0.44640810966E+03  0.41800000000E+01 0.  1.
        -11    1    4    4    0    0  0.21877059556E+02  0.33009251909E+02 -0.70734766993E+02  0.81065551919E+02  0.00000000000E+00 0. -1.
         11    1    4    4    0    0 -0.34592737679E+02 -0.21783312217E+02 -0.21505444236E+03  0.21890542106E+03  0.00000000000E+00 0.  1.
</event>
<event>
 7    1  0.5951278E-006  0.1881675E+03  0.7561462E-02  0.1160125E+00
          2   -1    0    0  501    0  0.00000000000E+00  0.00000000000E+00  0.52139131509E+03  0.52139131509E+03  0.00000000000E+00 0. -1.
         -2   -1    0    0    0  501 -0.00000000000E+00 -0.00000000000E+00 -0.74676518153E+02  0.74676518153E+02  0.00000000000E+00 0.  1.
         23    2    1    2    0    0 -0.51232593711E+02 -0.49908475162E+02  0.16819972061E+03  0.20625874958E+03  0.95581856095E+02 0.  0.
          5    1    1    2  502    0 -0.10400205737E+03  0.68542402660E+01  0.15472235621E+03  0.18660088011E+03  0.41800000000E+01 0. -1.
         -5    1    1    2    0  502  0.15523465108E+03  0.43054234896E+02  0.12379272012E+03  0.20320820356E+03  0.41800000000E+01 0.  1.
        -11    1    3    3    0    0  0.80238581636E+01 -0.50981012365E+02  0.40939330026E+02  0.65874689104E+02  0.00000000000E+00 0.  1.
         11    1    3    3    0    0 -0.59256451875E+02  0.10725372033E+01  0.12726039058E+03  0.14038406047E+03  0.00000000000E+00 0. -1.
</event>
<event>
 8    1  0.5951278E-006  0.1333370E+03  0.7561462E-02  0.1222587E+00
         -1   -1    0    0    0  501 -0.00000000000E+00  0.00000000000E+00  0.75556306462E+02  0.75556306462E+02  0.00000000000E+00 0.  1.
          1   -1    0    0  501    0  0.00000000000E+00 -0.00000000000E+00 -0.30228881234E+03  0.30228881234E+03  0.00000000000E+00 0. -1.
         23    2    1    2    0    0  0.10131626051E+03 -0.17221378428E+02 -0.15574544551E+03  0.22464536597E+03  0.12508931264E+03 0.  0.
         23    2    1    2    0    0 -0.10131626051E+03  0.17221378428E+02 -0.70987060372E+02  0.15319975283E+03  0.88709869854E+02 0.  0.
          5    1    3    3  502    0  0.11726441941E+03 -0.47717749599E+02 -0.12961266163E+03  0.18123146013E+03  0.41800000000E+01 0.  1.
         -5    1    3    3    0  502 -0.15948158900E+02  0.30496371171E+02 -0.26132783879E+02  0.43413905839E+02  0.41800000000E+01 0.  1.
        -11    1    4    4    0    0 -0.16328440855E+02  0.11856193614E+02  0.20116940318E+02  0.28493483387E+02  0.00000000000E+00 0.  1.
         11    1    4    4    0    0 -0.84987819655E+02  0.53651848144E+01 -0.91104000690E+02  0.12470626945E+03  0.00000000000E+00 0. -1.
</event>
<event>
 8    1  0.5951278E-006  0.1172338E+03  0.7561462E-02  0.1247731E+00
         -2   -1    0    0    0  501 -0.00000000000E+00  0.00000000000E+00  0.45817573002E+03  0.45817573002E+03  0.00000000000E+00 0.  1.
          2   -1    0    0  501    0  0.00000000000E+00 -0.00000000000E+00 -0.39520700135E+02  0.39520700135E+02  0.00000000000E+00 0. -1.
         23    2    1    2    0    0 -0.73111921570E+02  0.60377547701E+01  0.28114243456E+03  0.31634114363E+03  0.12509533599E+03 0.  0.
         23    2    1    2    0    0  0.73111921570E+02 -0.60377547701E+01  0.13751259532E+03  0.18135528652E+03  0.92726579351E+02 0.  0.
          5    1    3    3  502    0 -0.89782511068E+02 -0.36385511628E+02  0.16326479289E+03  0.18988857192E+03  0.41800000000E+01 0.  1.
         -5    1    3    3    0  502  0.16670589498E+02  0.42423266398E+02  0.11787764167E+03  0.12645257171E+03  0.41800000000E+01 0.  1.
        -11    1    4    4    0    0  0.13255409189E+02 -0.25541175980E+02  0.10810904077E+03  0.11187324183E+03  0.00000000000E+00 0.  1.
         11    1    4    4    0    0  0.59856512381E+02  0.19503421210E+02  0.29403554559E+02  0.69482044688E+02  0.00000000000E+00 0. -1.
</event>
<event>
 8    1  0.5951278E-006  0.1313954E+03  0.7561462E-02  0.1225400E+00
          2   -1    0    0  501    0  0.00000000000E+00  0.00000000000E+00  0.74069185113E+03  0.74069185113E+03  0.00000000000E+00 0. -1.
         -2   -1    0    0    0  501 -0.00000000000E+00 -0.00000000000E+00 -0.26214581835E+02  0.26214581835E+02  0.00000000000E+00 0.  1.
         23    2    1    2    0    0 -0.42156182098E+02 -0.75480043709E+02  0.37817287616E+03  0.40759774733E+03  0.12508724426E+03 0.  0.
         23    2    1    2    0    0  0.42156182098E+02  0.75480043709E+02  0.33630439314E+03  0.35930868564E+03  0.92345579447E+02 0.  0.
          5    1    3    3  502    0 -0.59013857153E+02 -0.93909141606E+02  0.35919470863E+03  0.37595195613E+03  0.41800000000E+01 0.  1.
         -5    1    3    3    0  502  0.16857675056E+02  0.18429097897E+02  0.18978167530E+02  0.31645791196E+02  0.41800000000E+01 0.  1.
        -11    1    4    4    0    0  0.70949117239E+02  0.42536487945E+02  0.22322533285E+03  0.23806024294E+03  0.00000000000E+00 0.  1.
         11    1    4    4    0    0 -0.28792935141E+02  0.32943555765E+02  0.11307906028E+03  0.12124844269E+03  0.00000000000E+00 0. -1.
</event>
<event>
 8    1  0.5951278E-006  0.1034222E+03  0.7561462E-02  0.1273260E+00
          2   -1    0    0  501    0  0.00000000000E+00  0.00000000000E+00  0.52315156594E+03  0.52315156594E+03  0.00000000000E+00 0. -1.
         -2   -1    0    0    0  501 -0.00000000000E+00 -0.00000000000E+00 -0.25768575495E+02  0.25768575495E+02  0.00000000000E+00 0.  1.
         23    2    1    2    0    0  0.13950058328E+02  0.29562869611E+02  0.23603540932E+03  0.26912519949E+03  0.12508833342E+03 0.  0.
         23    2    1    2    0    0 -0.13950058328E+02 -0.29562869611E+02  0.26134758112E+03  0.27979494195E+03  0.94414426840E+02 0.  0.
          5    1    3    3  502    0  0.56155160561E+02  0.53892311294E+02  0.16944100577E+03  0.18650874003E+03  0.41800000000E+01 0. -1.
         -5    1    3    3    0  502 -0.42205102233E+02 -0.24329441684E+02  0.66594403557E+02  0.82616459451E+02  0.41800000000E+01 0. -1.
        -11    1    4    4    0    0  0.59295347978E+01  0.23030206214E+02  0.17439694261E+02  0.29490553014E+02  0.00000000000E+00 0.  1.
         11    1    4    4    0    0 -0.19879593126E+02 -0.52593075825E+02  0.24390788686E+03  0.25030438893E+03  0.00000000000E+00 0. -1.
</event>
<event>
 8    1  0.5951278E-006  0.1145213E+03  0.7561462E-02  0.1252419E+00
          1   -1    0    0  501    0  0.00000000000E+00  0.00000000000E+00  0.85829489017E+02  0.85829489017E+02  0.00000000000E+00 0. -1.
         -1   -1    0    0    0  501 -0.00000000000E+00 -0.00000000000E+00 -0.29656235494E+03  0.29656235494E+03  0.00000000000E+00 0.  1.
         23    2    1    2    0    0  0.94856136752E+02  0.58760936424E+01 -0.19144023490E+03  0.24764568456E+03  0.12508719514E+03 0.  0.
         23    2    1    2    0    0 -0.94856136752E+02 -0.58760936424E+01 -0.19292631022E+02  0.13474615939E+03  0.93552694793E+02 0.  0.
          5    1    3    3  502    0  0.87106052155E+02  0.13961374774E+02 -0.42118029039E+02  0.97845720794E+02  0.41800000000E+01 0. -1.
         -5    1    3    3    0  502  0.77500845970E+01 -0.80852811319E+01 -0.14932220586E+03  0.14979996377E+03  0.41800000000E+01 0. -1.
        -11    1    4    4    0    0 -0.10231828719E+02 -0.37165134578E+02 -0.22185667524E+02  0.44476301449E+02  0.00000000000E+00 0.  1.
         11    1    4    4    0    0 -0.84624308033E+02  0.31289040935E+02  0.28930365028E+01  0.90269857942E+02  0.00000000000E+00 0. -1.
</event>
<event>
 8    1  0.5951278E-006  0.1099978E+03  0.7561462E-02  0.1260574E+00
         -4   -1    0    0    0  501 -0.00000000000E+00  0.00000000000E+00  0.87231737242E+02  0.87231737242E+02  0.00000000000E+00 0.  1.
          4   -1    0    0  501    0  0.00000000000E+00 -0.00000000000E+00 -0.21427301793E+03  0.21427301793E+03  0.00000000000E+00 0. -1.
         23    2    1    2    0    0 -0.46986892033E+02 -0.39821589664E+02 -0.10696325648E+02  0.13984162851E+03  0.12509093754E+03 0.  0.
         23    2    1    2    0    0  0.46986892033E+02  0.39821589664E+02 -0.11634495504E+03  0.16166312667E+03  0.93836511733E+02 0.  0.
          5    1    3    3  502    0 -0.13356290856E+02 -0.80860001491E+02 -0.22981824665E+02  0.85219522478E+02  0.41800000000E+01 0.  1.
         -5    1    3    3    0  502 -0.33630601178E+02  0.41038411827E+02  0.12285499017E+02  0.54622106028E+02  0.41800000000E+01 0.  1.
        -11    1    4    4    0    0  0.39737343226E+02  0.55021489658E+02 -0.12536594828E+03  0.14255890628E+03  0.00000000000E+00 0. -1.
         11    1    4    4    0    0  0.72495488069E+01 -0.15199899994E+02  0.90209932386E+01  0.19104220391E+02  0.00000000000E+00 0.  1.
</event>
<event>
 7    1  0.5951278E-006  0.8155560E+02  0.7561462E-02  0.1324694E+00
          1   -1    0    0  501    0  0.00000000000E+00  0.00000000000E+00  0.99906950849E+02  0.99906950849E+02  0.00000000000E+00 0. -1.
         -1   -1    0    0    0  501 -0.00000000000E+00 -0.00000000000E+00 -0.17177720492E+03  0.17177720492E+03  0.00000000000E+00 0.  1.
         23    2    1    2    0    0 -0.64698988943E+01 -0.57776067273E+01 -0.13772329455E+03  0.18625109429E+03  0.12508606609E+03 0.  0.
          5    1    3    3  502    0  0.46211307387E+02  0.24071246527E+02 -0.10501421824E+03  0.11730459613E+03  0.41800000000E+01 0.  1.
         -5    1    3    3    0  502 -0.52681206281E+02 -0.29848853255E+02 -0.32709076313E+02  0.68946498164E+02  0.41800000000E+01 0.  1.
        -11    1    1    2    0    0 -0.16697765148E+02  0.17493704318E+02  0.15338672032E+02  0.28637735794E+02  0.00000000000E+00 0.  1.
         11    1    1    2    0    0  0.23167664042E+02 -0.11716097590E+02  0.50514368450E+02  0.56795325687E+02  0.00000000000E+00 0. -1.
</event>
<event>
 8    1  0.5951278E-006  0.1106429E+03  0.7561462E-02  0.1259384E+00
         -1   -1    0    0    0  501 -0.00000000000E+00  0.00000000000E+00  0.58990750003E+02  0.58990750003E+02  0.00000000000E+00 0.  1.
          1   -1    0    0  501    0  0.00000000000E+00 -0.00000000000E+00 -0.24339200740E+03  0.24339200740E+03  0.00000000000E+00 0. -1.
         23    2    1    2    0    0 -0.65406210420E+00 -0.26049532689E+02 -0.47857224181E+02  0.13644801727E+03  0.12509493020E+03 0.  0.
         23    2    1    2    0    0  0.65406210420E+00  0.26049532689E+02 -0.13654403322E+03  0.16593474013E+03  0.90614894054E+02 0.  0.
          5    1    3    3  502    0  0.97788789085E+01 -0.75526453086E+02 -0.21348298566E+02  0.79202865100E+02  0.41800000000E+01 0.  1.
         -5    1    3    3    0  502 -0.10432941013E+02  0.49476920397E+02 -0.26508925615E+02  0.57245152174E+02  0.41800000000E+01 0.  1.
        -11    1    4    4    0    0  0.36539484555E+02  0.41424125399E+02 -0.81200148533E+02  0.98206701494E+02  0.00000000000E+00 0. -1.
         11    1    4    4    0    0 -0.35885422451E+02 -0.15374592710E+02 -0.55343884687E+02  0.67728038638E+02  0.00000000000E+00 0.  1.
</event>
<event>
 8    1  0.6622996E-006  0.2612014E+03  0.7561462E-02  0.1106424E+00
          2   -1    0    0  501    0  0.00000000000E+00  0.00000000000E+00  0.62600946762E+03  0.62600946762E+03  0.00000000000E+00 0.  1.
         -2   -1    0    0    0  501 -0.00000000000E+00 -0.00000000000E+00 -0.14006483069E+03  0.14006483069E+03  0.00000000000E+00 0. -1.
         23    2    1    2    0    0 -0.21398590948E+03  0.12613889062E+03  0.95683232935E+02  0.29411519718E+03  0.12508988355E+03 0.  0.
         23    2    1    2    0    0  0.21398590948E+03 -0.12613889062E+03  0.39026140399E+03  0.47195910112E+03  0.93490323033E+02 0.  0.
          5    1    3    3  502    0 -0.23732948971E+02  0.70491882036E+02  0.12523216384E+01  0.74507711073E+02  0.41800000000E+01 0. -1.
         -5    1    3    3    0  502 -0.19025296051E+03  0.55647008588E+02  0.94430911296E+02  0.21960748611E+03  0.41800000000E+01 0. -1.
        -11    1    4    4    0    0  0.19131461694E+03 -0.10315167445E+03  0.38054589498E+03  0.43824277380E+03  0.00000000000E+00 0.  1.
         11    1    4    4    0    0  0.22671292544E+02 -0.22987216172E+02  0.97155090088E+01  0.33716327325E+02  0.00000000000E+00 0. -1.
</event>
<event>
 8    1  0.5951278E-006  0.7672687E+02  0.7561462E-02  0.1338605E+00
         -1   -1    0    0    0  501 -0.00000000000E+00  0.00000000000E+00  0.18995416601E+03  0.18995416601E+03  0.00000000000E+00 0.  1.
          1   -1    0    0  501    0  0.00000000000E+00 -0.00000000000E+00 -0.78161944033E+02  0.78161944033E+02  0.00000000000E+00 0. -1.
         23    2    1    2    0    0 -0.42900766361E+02  0.10011919804E+02  0.96646300754E+02  0.16410165241E+03  0.12509248811E+03 0.  0.
         23    2    1    2    0    0  0.42900766361E+02 -0.10011919804E+02  0.15145921220E+02  0.10401445763E+03  0.92999431041E+02 0.  0.
          5    1    3    3  502    0 -0.45591374480E+02 -0.14197847830E+02  0.12054269945E+03  0.12972342541E+03  0.41800000000E+01 0.  1.
         -5    1    3    3    0  502  0.26906081188E+01  0.24209767634E+02 -0.23896398695E+02  0.34378226998E+02  0.41800000000E+01 0.  1.
        -11    1    4    4    0    0  0.61357758913E+02 -0.10938177037E+02  0.39240115784E+02  0.73649202185E+02  0.00000000000E+00 0.  1.
         11    1    4    4    0    0 -0.18456992552E+02  0.92625723281E+00 -0.24094194564E+02  0.30365255445E+02  0.00000000000E+00 0. -1.
</event>
<event>
 7    1  0.5951278E-006  0.8776812E+02  0.7561462E-02  0.1308348E+00
         -2   -1    0    0    0  501 -0.00000000000E+00  0.00000000000E+00  0.12749001408E+03  0.12749001408E+03  0.00000000000E+00 0.  1.
          2   -1    0    0  501    0  0.00000000000E+00 -0.00000000000E+00 -0.96041082510E+02  0.96041082510E+02  0.00000000000E+00 0. -1.
         23    2    1    2    0    0  0.33679637537E+02  0.56041319815E+02  0.44981840730E+02  0.14084823542E+03  0.11636112716E+03 0.  0.
          5    1    3    3  502    0 -0.28549086759E+02  0.15213843089E+02 -0.23038762025E+02  0.39934550604E+02  0.41800000000E+01 0. -1.
         -5    1    3    3    0  502  0.62228724296E+02  0.40827476726E+02  0.68020602755E+02  0.10091368481E+03  0.41800000000E+01 0.  1.
        -11    1    1    2    0    0 -0.29035859011E+02 -0.29365182732E+02  0.14442938842E+02  0.43749211967E+02  0.00000000000E+00 0. -1.
         11    1    1    2    0    0 -0.46437785266E+01 -0.26676137083E+02 -0.27975848005E+02  0.38933649203E+02  0.00000000000E+00 0.  1.
</event>
<event>
 8    1  0.5951278E-006  0.1437809E+03  0.7561462E-02  0.1208330E+00
         -2   -1    0    0    0  501 -0.00000000000E+00  0.00000000000E+00  0.20070618580E+02  0.20070618580E+02  0.00000000000E+00 0.  1.
          2   -1    0    0  501    0  0.00000000000E+00 -0.00000000000E+00 -0.13032371402E+04  0.13032371402E+04  0.00000000000E+00 0. -1.
         23    2    1    2    0    0 -0.63919777368E+02  0.10081900408E+03 -0.67985016747E+03  0.70149128076E+03  0.12507420701E+03 0.  0.
         23    2    1    2    0    0  0.63919777368E+02 -0.10081900408E+03 -0.60331635415E+03  0.62181647801E+03  0.91732761995E+02 0.  0.
          5    1    3    3  502    0  0.19270879701E+02  0.49887839097E+02 -0.10000571240E+03  0.11348470472E+03  0.41800000000E+01 0.  1.
         -5    1    3    3    0  502 -0.83190657069E+02  0.50931164981E+02 -0.57984445507E+03  0.58800657604E+03  0.41800000000E+01 0.  1.
        -11    1    4    4    0    0 -0.10994311397E+02 -0.34584088952E+02 -0.66417213906E+02  0.75684743474E+02  0.00000000000E+00 0. -1.
         11    1    4    4    0    0  0.74914088765E+02 -0.66234915127E+02 -0.53689914024E+03  0.54613173454E+03  0.00000000000E+00 0.  1.
</event>
<event>
 8    1  0.5951278E-006  0.6895297E+02  0.7561462E-02  0.1363690E+00
         -1   -1    0    0    0  501 -0.00000000000E+00  0.00000000000E+00  0.16941742307E+03  0.16941742307E+03  0.00000000000E+00 0.  1.
          1   -1    0    0  501    0  0.00000000000E+00 -0.00000000000E+00 -0.71435535059E+02  0.71435535059E+02  0.00000000000E+00 0. -1.
         23    2    1    2    0    0  0.22151232215E+01 -0.15353849224E+02  0.64205921969E+02  0.14146082266E+03  0.12509243172E+03 0.  0.
         23    2    1    2    0    0 -0.22151232215E+01  0.15353849224E+02  0.33775966043E+02  0.99392135471E+02  0.92180980980E+02 0.  0.
          5    1    3    3  502    0 -0.40188125982E+02  0.21778354153E+02  0.70990332748E+02  0.84536867242E+02  0.41800000000E+01 0. -1.
         -5    1    3    3    0  502  0.42403249203E+02 -0.37132203378E+02 -0.67844107784E+01  0.56923955416E+02  0.41800000000E+01 0. -1.
        -11    1    4    4    0    0 -0.84223096260E+01  0.23662085094E+02 -0.27500703569E+02  0.37244036667E+02  0.00000000000E+00 0. -1.
         11    1    4    4    0    0  0.62071864045E+01 -0.83082358701E+01  0.61276669611E+02  0.62148098804E+02  0.00000000000E+00 0.  1.
</event>
<event>
 8    1  0.5951278E-006  0.1362286E+03  0.7561462E-02  0.1218496E+00
         -2   -1    0    0    0  501 -0.00000000000E+00  0.00000000000E+00  0.30379159154E+02  0.30379159154E+02  0.00000000000E+00 0.  1.
          2   -1    0    0  501    0  0.00000000000E+00 -0.00000000000E+00 -0.73285190368E+03  0.73285190368E+03  0.00000000000E+00 0. -1.
         23    2    1    2    0    0 -0.58600466787E+02  0.83774003965E+02 -0.37962716491E+03  0.41258186910E+03  0.12511960646E+03 0.  0.
         23    2    1    2    0    0  0.58600466787E+02 -0.83774003965E+02 -0.32284557962E+03  0.35064919374E+03  0.90958728799E+02 0.  0.
          5    1    3    3  502    0 -0.79178779192E+02  0.43583831383E+02 -0.12709600111E+03  0.15601184356E+03  0.41800000000E+01 0.  1.
         -5    1    3    3    0  502  0.20578312406E+02  0.40190172582E+02 -0.25253116380E+03  0.25657002554E+03  0.41800000000E+01 0.  1.
        -11    1    4    4    0    0  0.19174862672E+02 -0.93973915208E+02 -0.23525755157E+03  0.25405685912E+03  0.00000000000E+00 0. -1.
         11    1    4    4    0    0  0.39425604115E+02  0.10199911244E+02 -0.87588028048E+02  0.96592334616E+02  0.00000000000E+00 0.  1.
</event>
<event>
 8    1  0.5951278E-006  0.1172280E+03  0.7561462E-02  0.1247741E+00
         -4   -1    0    0    0  501 -0.00000000000E+00  0.00000000000E+00  0.51224241285E+02  0.51224241285E+02  0.00000000000E+00 0. -1.
          4   -1    0    0  501    0  0.00000000000E+00 -0.00000000000E+00 -0.37114257805E+03  0.37114257805E+03  0.00000000000E+00 0.  1.
         23    2    1    2    0    0  0.57924107738E+02  0.57780418670E+02 -0.13803293509E+03  0.20345783493E+03  0.12509284705E+03 0.  0.
         23    2    1    2    0    0 -0.57924107738E+02 -0.57780418670E+02 -0.18188540167E+03  0.21890898441E+03  0.90250014262E+02 0.  0.
          5    1    3    3  502    0  0.76875540964E+02 -0.92709364734E+00 -0.38009053567E+02  0.85865411280E+02  0.41800000000E+01 0. -1.
         -5    1    3    3    0  502 -0.18951433226E+02  0.58707512318E+02 -0.10002388153E+03  0.11759242365E+03  0.41800000000E+01 0. -1.
        -11    1    4    4    0    0 -0.35910935813E+02 -0.23499655425E+01 -0.14359036493E+03  0.14803145122E+03  0.00000000000E+00 0.  1.
         11    1    4    4    0    0 -0.22013171925E+02 -0.55430453128E+02 -0.38295036744E+02  0.70877533192E+02  0.00000000000E+00 0. -1.
</event>
<event>
 8    1  0.5951278E-006  0.1259643E+03  0.7561462E-02  0.1233570E+00
          4   -1    0    0  501    0  0.00000000000E+00  0.00000000000E+00  0.54775432667E+02  0.54775432667E+02  0.00000000000E+00 0. -1.
         -4   -1    0    0    0  501 -0.00000000000E+00 -0.00000000000E+00 -0.30541153050E+03  0.30541153050E+03  0.00000000000E+00 0.  1.
         23    2    1    2    0    0  0.31299835543E+02 -0.64275933339E+02 -0.14141609214E+03  0.20188490204E+03  0.12509167537E+03 0.  0.
         23    2    1    2    0    0 -0.31299835543E+02  0.64275933339E+02 -0.10922000570E+03  0.15830206113E+03  0.89551424335E+02 0.  0.
          5    1    3    3  502    0  0.34191107027E+02  0.29237949103E+02 -0.22368447031E+02  0.50415367598E+02  0.41800000000E+01 0. -1.
         -5    1    3    3    0  502 -0.28912714841E+01 -0.93513882442E+02 -0.11904764510E+03  0.15146953445E+03  0.41800000000E+01 0. -1.
        -11    1    4    4    0    0 -0.84658820652E+01 -0.22145361511E+02 -0.13280690037E+02  0.27174711101E+02  0.00000000000E+00 0. -1.
         11    1    4    4    0    0 -0.22833953478E+02  0.86421294850E+02 -0.95939315665E+02  0.13112735003E+03  0.00000000000E+00 0.  1.
</event>
<event>
 8    1  0.5951278E-006  0.1234197E+03  0.7561462E-02  0.1237560E+00
          1   -1    0    0  501    0  0.00000000000E+00  0.00000000000E+00  0.24502796655E+03  0.24502796655E+03  0.00000000000E+00 0. -1.
         -1   -1    0    0    0  501 -0.00000000000E+00 -0.00000000000E+00 -0.88868615817E+02  0.88868615817E+02  0.00000000000E+00 0.  1.
         23    2    1    2    0    0  0.98842823992E+02 -0.65689629894E+01  0.78096294739E+02  0.17764840703E+03  0.12508744996E+03 0.  0.
         23    2    1    2    0    0 -0.98842823992E+02  0.65689629894E+01  0.78063055995E+02  0.15624817534E+03  0.92231211944E+02 0.  0.
          5    1    3    3  502    0  0.11209190020E+03  0.21440715585E+02  0.26367725926E+02  0.11720506707E+03  0.41800000000E+01 0.  1.
         -5    1    3    3    0  502 -0.13249076208E+02 -0.28009678574E+02  0.51728568813E+02  0.60443339961E+02  0.41800000000E+01 0.  1.
        -11    1    4    4    0    0 -0.19071806477E+02 -0.72699962410E+01 -0.20342998154E+02  0.28817082113E+02  0.00000000000E+00 0.  1.
         11    1    4    4    0    0 -0.79771017515E+02  0.13838959230E+02  0.98406054149E+02  0.12743109323E+03  0.00000000000E+00 0. -1.
</event>
<event>
 8    1  0.5951278E-006  0.1032592E+03  0.7561462E-02  0.1273588E+00
          2   -1    0    0  501    0  0.00000000000E+00  0.00000000000E+00  0.61742383487E+02  0.61742383487E+02  0.00000000000E+00 0. -1.
         -2   -1    0    0    0  501 -0.00000000000E+00 -0.00000000000E+00 -0.30449538526E+03  0.30449538526E+03  0.00000000000E+00 0.  1.
         23    2    1    2    0    0 -0.25280887815E+02 -0.90135847856E+01 -0.18597758386E+03  0.22573486460E+03  0.12509276317E+03 0.  0.
         23    2    1    2    0    0  0.25280887815E+02  0.90135847856E+01 -0.56775417912E+02  0.14050290415E+03  0.12568711149E+03 0.  0.
          5    1    3    3  502    0 -0.60480708391E+02 -0.84736159198E+01 -0.17955972969E+03  0.18970737250E+03  0.41800000000E+01 0. -1.
         -5    1    3    3    0  502  0.35199820576E+02 -0.53996886573E+00 -0.64178541693E+01  0.36027492101E+02  0.41800000000E+01 0. -1.
        -11    1    4    4    0    0 -0.29787145555E+02  0.37469650599E+02 -0.61965162339E+02  0.78300256066E+02  0.00000000000E+00 0.  1.
         11    1    4    4    0    0  0.55068033370E+02 -0.28456065813E+02  0.51897444270E+01  0.62202648079E+02  0.00000000000E+00 0. -1.
</event>
<event>
 8    1  0.5951278E-006  0.1615869E+03  0.7561462E-02  0.1186917E+00
          2   -1    0    0  501    0  0.00000000000E+00  0.00000000000E+00  0.75144864331E+03  0.75144864331E+03  0.00000000000E+00 0. -1.
         -2   -1    0    0    0  501 -0.00000000000E+00 -0.00000000000E+00 -0.42330992921E+02  0.42330992921E+02  0.00000000000E+00 0.  1.
         23    2    1    2    0    0 -0.97719010737E+02  0.10112074986E+03  0.37460528056E+03  0.41922486045E+03  0.12508379703E+03 0.  0.
         23    2    1    2    0    0  0.97719010737E+02 -0.10112074986E+03  0.33451236983E+03  0.37455477579E+03  0.92835033163E+02 0.  0.
          5    1    3    3  502    0 -0.60924230298E+02  0.11347059648E+03  0.18382320123E+03  0.22449004391E+03  0.41800000000E+01 0.  1.
         -5    1    3    3    0  502 -0.36794780439E+02 -0.12349846615E+02  0.19078207933E+03  0.19473481654E+03  0.41800000000E+01 0.  1.
        -11    1    4    4    0    0  0.43600742544E+02 -0.36026563058E+01  0.38675802947E+02  0.58393677881E+02  0.00000000000E+00 0.  1.
         11    1    4    4    0    0  0.54118268193E+02 -0.97518093559E+02  0.29583656688E+03  0.31616109791E+03  0.00000000000E+00 0. -1.
</event>
<event>
 8    1  0.5951278E-006  0.7694283E+02  0.7561462E-02  0.1337958E+00
         -4   -1    0    0    0  501 -0.00000000000E+00  0.00000000000E+00  0.57791011437E+02  0.57791011437E+02  0.00000000000E+00 0.  1.
          4   -1    0    0  501    0  0.00000000000E+00 -0.00000000000E+00 -0.27095480553E+03  0.27095480553E+03  0.00000000000E+00 0. -1.
         23    2    1    2    0    0 -0.68295354608E+02  0.31253850983E+02 -0.10412448625E+03  0.17925194876E+03  0.12509314064E+03 0.  0.
         23    2    1    2    0    0  0.68295354608E+02 -0.31253850983E+02 -0.10903930784E+03  0.14949386821E+03  0.69410282490E+02 0.  0.
          5    1    3    3  502    0 -0.18067391245E+02  0.15707460511E+01 -0.11773469570E+03  0.11919659744E+03  0.41800000000E+01 0.  1.
         -5    1    3    3    0  502 -0.50227963363E+02  0.29683104932E+02  0.13610209441E+02  0.60055351327E+02  0.41800000000E+01 0.  1.
        -11    1    4    4    0    0  0.27552037287E+02 -0.41896466399E+01  0.22203186007E+01  0.27957069094E+02  0.00000000000E+00 0.  1.
         11    1    4    4    0    0  0.40743317320E+02 -0.27064204343E+02 -0.11125962644E+03  0.12153679912E+03  0.00000000000E+00 0. -1.
</event>
<event>
 8    1  0.5951278E-006  0.1482774E+03  0.7561462E-02  0.1202606E+00
          2   -1    0    0  501    0  0.00000000000E+00  0.00000000000E+00  0.61190049482E+03  0.61190049482E+03  0.00000000000E+00 0. -1.
         -2   -1    0    0    0  501 -0.00000000000E+00 -0.00000000000E+00 -0.61187359008E+02  0.61187359008E+02  0.00000000000E+00 0.  1.
         23    2    1    2    0    0 -0.99187974307E+02 -0.48107674448E+02  0.87869768754E+02  0.18847141489E+03  0.12509106836E+03 0.  0.
         23    2    1    2    0    0  0.99187974307E+02  0.48107674448E+02  0.46284336706E+03  0.48461643894E+03  0.92067952453E+02 0.  0.
          5    1    3    3  502    0 -0.24483537959E+02  0.42492465455E+02  0.24839354788E+02  0.55131834703E+02  0.41800000000E+01 0. -1.
         -5    1    3    3    0  502 -0.74704436348E+02 -0.90600139903E+02  0.63030413966E+02  0.13333958019E+03  0.41800000000E+01 0. -1.
        -11    1    4    4    0    0  0.86441078994E+02  0.69183795677E+01  0.39365288139E+03  0.40309119953E+03  0.00000000000E+00 0. -1.
         11    1    4    4    0    0  0.12746895313E+02  0.41189294880E+02  0.69190485670E+02  0.81525239405E+02  0.00000000000E+00 0.  1.
</event>
<event>
 8    1  0.5951278E-006  0.1431607E+03  0.7561462E-02  0.1209138E+00
         -1   -1    0    0    0  501 -0.00000000000E+00  0.00000000000E+00  0.13350896473E+03  0.13350896473E+03  0.00000000000E+00 0.  1.
          1   -1    0    0  501    0  0.00000000000E+00 -0.00000000000E+00 -0.26454013900E+03  0.26454013900E+03  0.00000000000E+00 0. -1.
         23    2    1    2    0    0  0.10973049470E+03 -0.22544371745E+02  0.42115737098E+02  0.17311904213E+03  0.12508971690E+03 0.  0.
         23    2    1    2    0    0 -0.10973049470E+03  0.22544371745E+02 -0.17314691136E+03  0.22493006160E+03  0.89803393778E+02 0.  0.
          5    1    3    3  502    0  0.57202219476E+02 -0.64409153463E+02 -0.11585651707E+02  0.87019151273E+02  0.41800000000E+01 0.  1.
         -5    1    3    3    0  502  0.52528275221E+02  0.41864781719E+02  0.53701388805E+02  0.86099890857E+02  0.41800000000E+01 0.  1.
        -11    1    4    4    0    0 -0.72648521250E+02  0.48644102894E+02 -0.69130113440E+02  0.11145864242E+03  0.00000000000E+00 0.  1.
         11    1    4    4    0    0 -0.37081973447E+02 -0.26099731149E+02 -0.10401679792E+03  0.11347141918E+03  0.00000000000E+00 0. -1.
</event>
<event>
 8    1  0.5951278E-006  0.1072666E+03  0.7561462E-02  0.1265717E+00
         -3   -1    0    0    0  501 -0.00000000000E+00  0.00000000000E+00  0.95918374257E+03  0.95918374257E+03  0.00000000000E+00 0.  1.
          3   -1    0    0  501    0  0.00000000000E+00 -0.00000000000E+00 -0.19059101785E+02  0.19059101785E+02  0.00000000000E+00 0. -1.
         23    2    1    2    0    0 -0.38149288216E+01 -0.15487210335E+02  0.80603606817E+03  0.81584044094E+03  0.12508826690E+03 0.  0.
         23    2    1    2    0    0  0.38149288216E+01  0.15487210335E+02  0.13408857261E+03  0.16240240341E+03  0.90224098572E+02 0.  0.
          5    1    3    3  502    0 -0.42263866836E+02  0.38133358437E+02  0.28790019397E+03  0.29350363124E+03  0.41800000000E+01 0. -1.
         -5    1    3    3    0  502  0.38448938015E+02 -0.53620568772E+02  0.51813587420E+03  0.52233680970E+03  0.41800000000E+01 0. -1.
        -11    1    4    4    0    0  0.37600344187E+02 -0.19794951850E+02  0.56069336927E+02  0.70351947700E+02  0.00000000000E+00 0.  1.
         11    1    4    4    0    0 -0.33785415366E+02  0.35282162186E+02  0.78019235686E+02  0.92050455713E+02  0.00000000000E+00 0. -1.
</event>
<event>
 8    1  0.5951278E-006  0.1013287E+03  0.7561462E-02  0.1277526E+00
          1   -1    0    0  501    0  0.00000000000E+00  0.00000000000E+00  0.58815724324E+02  0.58815724324E+02  0.00000000000E+00 0. -1.
         -1   -1    0    0    0  501 -0.00000000000E+00 -0.00000000000E+00 -0.26787168388E+03  0.26787168388E+03  0.00000000000E+00 0.  1.
         23    2    1    2    0    0  0.51833070176E+01  0.41790736501E+02 -0.17786339200E+03  0.22148647826E+03  0.12509013354E+03 0.  0.
         23    2    1    2    0    0 -0.51833070176E+01 -0.41790736501E+02 -0.31192567557E+02  0.10520092995E+03  0.91219115659E+02 0.  0.
          5    1    3    3  502    0  0.36793316053E+02  0.62432938032E+02 -0.16682210125E+03  0.18193049696E+03  0.41800000000E+01 0. -1.
         -5    1    3    3    0  502 -0.31610009036E+02 -0.20642201530E+02 -0.11041290747E+02  0.39555981300E+02  0.41800000000E+01 0. -1.
        -11    1    4    4    0    0 -0.35023188744E+01  0.25014655118E+02 -0.28834065183E+02  0.38332786529E+02  0.00000000000E+00 0.  1.
         11    1    4    4    0    0 -0.16809881432E+01 -0.66805391619E+02 -0.23585023744E+01  0.66868143416E+02  0.00000000000E+00 0. -1.
</event>
<event>
 7    1  0.5951278E-006  0.1887154E+03  0.7561462E-02  0.1159625E+00
          2   -1    0    0  501    0  0.00000000000E+00  0.00000000000E+00  0.13016784209E+03  0.13016784209E+03  0.00000000000E+00 0. -1.
         -2   -1    0    0    0  501 -0.00000000000E+00 -0.00000000000E+00 -0.27715776024E+03  0.27715776024E+03  0.00000000000E+00 0.  1.
         23    2    1    2    0    0 -0.12673336105E+03  0.50339807562E+02 -0.46418075041E+02  0.17157025273E+03  0.93200176510E+02 0.  0.
          5    1    1    2  502    0 -0.82293844520E+01 -0.75027632966E+02 -0.42395448694E+02  0.86670150264E+02  0.41800000000E+01 0. -1.
         -5    1    1    2    0  502  0.13496274550E+03  0.24687825404E+02 -0.58176394414E+02  0.14908519934E+03  0.41800000000E+01 0.  1.
        -11    1    3    3    0    0 -0.34724657839E+02 -0.27309044066E+02 -0.19019544607E+02  0.48097077114E+02  0.00000000000E+00 0.  1.
         11    1    3    3    0    0 -0.92008703210E+02  0.77648851628E+02 -0.27398530434E+02  0.12347317561E+03  0.00000000000E+00 0. -1.
</event>
<event>
 8    1  0.5951278E-006  0.9707339E+02  0.7561462E-02  0.1286573E+00
          1   -1    0    0  501    0  0.00000000000E+00  0.00000000000E+00  0.32782150413E+02  0.32782150413E+02  0.00000000000E+00 0. -1.
         -1   -1    0    0    0  501 -0.00000000000E+00 -0.00000000000E+00 -0.39662840847E+03  0.39662840847E+03  0.00000000000E+00 0.  1.
         23    2    1    2    0    0 -0.50989867816E+01 -0.40336380911E+02 -0.20916569100E+03  0.24708613816E+03  0.12509296578E+03 0.  0.
         23    2    1    2    0    0  0.50989867816E+01  0.40336380911E+02 -0.15468056705E+03  0.18232442072E+03  0.87539095703E+02 0.  0.
          5    1    3    3  502    0 -0.61854205453E+02 -0.37724918831E+02 -0.95520146157E+02  0.11996117270E+03  0.41800000000E+01 0. -1.
         -5    1    3    3    0  502  0.56755218671E+02 -0.26114620792E+01 -0.11364554485E+03  0.12712496546E+03  0.41800000000E+01 0. -1.
        -11    1    4    4    0    0 -0.21994127045E+02  0.10720528433E+02 -0.21058657246E+01  0.24558217053E+02  0.00000000000E+00 0. -1.
         11    1    4    4    0    0  0.27093113827E+02  0.29615852478E+02 -0.15257470132E+03  0.15776620367E+03  0.00000000000E+00 0.  1.
</event>
<event>
 8    1  0.5951278E-006  0.1172606E+03  0.7561462E-02  0.1247686E+00
          2   -1    0    0  501    0  0.00000000000E+00  0.00000000000E+00  0.89510654909E+02  0.89510654909E+02  0.00000000000E+00 0. -1.
         -2   -1    0    0    0  501 -0.00000000000E+00 -0.00000000000E+00 -0.16555340272E+03  0.16555340272E+03  0.00000000000E+00 0.  1.
         23    2    1    2    0    0 -0.70795941491E+02 -0.10580835943E+02 -0.79501312738E+02  0.16459763668E+03  0.12509158186E+03 0.  0.
         23    2    1    2    0    0  0.70795941491E+02  0.10580835943E+02  0.34585649306E+01  0.90466420947E+02  0.55210435849E+02 0.  0.
          5    1    3    3  502    0  0.24432832366E+02  0.31369541663E+02 -0.22214533786E+02  0.45738051477E+02  0.41800000000E+01 0.  1.
         -5    1    3    3    0  502 -0.95228773857E+02 -0.41950377606E+02 -0.57286778952E+02  0.11885958520E+03  0.41800000000E+01 0.  1.
        -11    1    4    4    0    0 -0.69006422182E+01 -0.79438425512E+01  0.65221919605E+00  0.10542717267E+02  0.00000000000E+00 0.  1.
         11    1    4    4    0    0  0.77696583710E+02  0.18524678494E+02  0.28063457346E+01  0.79923703680E+02  0.00000000000E+00 0. -1.
</event>
<event>
 8    1  0.5951278E-006  0.8982007E+02  0.7561462E-02  0.1303288E+00
         -1   -1    0    0    0  501 -0.00000000000E+00  0.00000000000E+00  0.30964678268E+03  0.30964678268E+03  0.00000000000E+00 0.  1.
          1   -1    0    0  501    0  0.00000000000E+00 -0.00000000000E+00 -0.42981528666E+02  0.42981528666E+02  0.00000000000E+00 0. -1.
         23    2    1    2    0    0  0.65958810689E+01 -0.56698807541E+01  0.21201008250E+03  0.24631618162E+03  0.12509089917E+03 0.  0.
         23    2    1    2    0    0 -0.65958810689E+01  0.56698807541E+01  0.54655171520E+02  0.10631212972E+03  0.90771294789E+02 0.  0.
          5    1    3    3  502    0 -0.55117981868E+02  0.51418880179E+01  0.59456671219E+02  0.81344938933E+02  0.41800000000E+01 0.  1.
         -5    1    3    3    0  502  0.61713862937E+02 -0.10811768772E+02  0.15255341128E+03  0.16497124269E+03  0.41800000000E+01 0.  1.
        -11    1    4    4    0    0  0.27176765329E+02  0.61804433928E+00  0.65144785239E+02  0.70588962285E+02  0.00000000000E+00 0.  1.
         11    1    4    4    0    0 -0.33772646398E+02  0.50518364148E+01 -0.10489613719E+02  0.35723167439E+02  0.00000000000E+00 0. -1.
</event>
<event>
 8    1  0.5951278E-006  0.7342719E+02  0.7561462E-02  0.1348812E+00
         -1   -1    0    0    0  501 -0.00000000000E+00  0.00000000000E+00  0.52464987143E+02  0.52464987143E+02  0.00000000000E+00 0.  1.
          1   -1    0    0  501    0  0.00000000000E+00 -0.00000000000E+00 -0.33345173711E+03  0.33345173711E+03  0.00000000000E+00 0. -1.
         23    2    1    2    0    0  0.27927105904E+02  0.13598474194E+02 -0.68714196600E+02  0.14609386050E+03  0.12512766887E+03 0.  0.
         23    2    1    2    0    0 -0.27927105904E+02 -0.13598474194E+02 -0.21227255336E+03  0.23982286375E+03  0.10719387725E+03 0.  0.
          5    1    3    3  502    0  0.11353894673E+01  0.30118746214E+02 -0.98173248745E+02  0.10278077229E+03  0.41800000000E+01 0. -1.
         -5    1    3    3    0  502  0.26791716436E+02 -0.16520272020E+02  0.29459052145E+02  0.43313088213E+02  0.41800000000E+01 0. -1.
        -11    1    4    4    0    0  0.10017490966E+02 -0.38173634480E+02 -0.18000513602E+03  0.18428083321E+03  0.00000000000E+00 0. -1.
         11    1    4    4    0    0 -0.37944596869E+02  0.24575160286E+02 -0.32267417347E+02  0.55542030543E+02  0.00000000000E+00 0.  1.
</event>
<event>
 8    1  0.5951278E-006  0.1610858E+03  0.7561462E-02  0.1187476E+00
          2   -1    0    0  501    0  0.00000000000E+00  0.00000000000E+00  0.10286382105E+04  0.10286382105E+04  0.00000000000E+00 0. -1.
         -2   -1    0    0    0  501 -0.00000000000E+00 -0.00000000000E+00 -0.43107027734E+02  0.43107027734E+02  0.00000000000E+00 0.  1.
         23    2    1    2    0    0 -0.12999124422E+03 -0.85341621403E+02  0.28342503301E+03  0.34663884545E+03  0.12509126237E+03 0.  0.
         23    2    1    2    0    0  0.12999124422E+03  0.85341621403E+02  0.70210614974E+03  0.72510639277E+03  0.92980209785E+02 0.  0.
          5    1    3    3  502    0 -0.34236229503E+01 -0.36134575767E+01 -0.12754746719E+02  0.14315524217E+02  0.41800000000E+01 0.  1.
         -5    1    3    3    0  502 -0.12656762127E+03 -0.81728163827E+02  0.29617977973E+03  0.33232332123E+03  0.41800000000E+01 0.  1.
        -11    1    4    4    0    0  0.10771860442E+03  0.40863425454E+02  0.60637869640E+03  0.61722624760E+03  0.00000000000E+00 0. -1.
         11    1    4    4    0    0  0.22272639792E+02  0.44478195950E+02  0.95727453344E+02  0.10788014517E+03  0.00000000000E+00 0.  1.
</event>
<event>
 8    1  0.5951278E-006  0.1159595E+03  0.7561462E-02  0.1249915E+00
          1   -1    0    0  501    0  0.00000000000E+00  0.00000000000E+00  0.14661332756E+03  0.14661332756E+03  0.00000000000E+00 0. -1.
         -1   -1    0    0    0  501 -0.00000000000E+00 -0.00000000000E+00 -0.14836667546E+03  0.14836667546E+03  0.00000000000E+00 0.  1.
         23    2    1    2    0    0  0.77166429989E+02 -0.25154444067E+02 -0.60073974089E+02  0.16076909790E+03  0.12510162471E+03 0.  0.
         23    2    1    2    0    0 -0.77166429989E+02  0.25154444067E+02  0.58320626190E+02  0.13421090512E+03  0.89576043894E+02 0.  0.
          5    1    3    3  502    0  0.43625890920E+02 -0.53828648382E+02  0.17355715065E+02  0.71550227048E+02  0.41800000000E+01 0. -1.
         -5    1    3    3    0  502  0.33540539069E+02  0.28674204315E+02 -0.77429689154E+02  0.89218870855E+02  0.41800000000E+01 0. -1.
        -11    1    4    4    0    0 -0.22468356180E+00  0.39848416376E+02  0.67238635544E+01  0.40412338604E+02  0.00000000000E+00 0. -1.
         11    1    4    4    0    0 -0.76941746427E+02 -0.14693972308E+02  0.51596762635E+02  0.93798566513E+02  0.00000000000E+00 0.  1.
</event>
<event>
 7    1  0.5951278E-006  0.7014658E+02  0.7561462E-02  0.1359595E+00
         -1   -1    0    0    0  501 -0.00000000000E+00  0.00000000000E+00  0.45733362978E+03  0.45733362978E+03  0.00000000000E+00 0.  1.
          1   -1    0    0  501    0  0.00000000000E+00 -0.00000000000E+00 -0.62635115111E+02  0.62635115111E+02  0.00000000000E+00 0. -1.
         23    2    1    2    0    0 -0.15003851477E+02  0.46371202649E+02  0.31681509931E+01  0.10305421069E+03  0.90745408508E+02 0.  0.
          5    1    1    2  502    0  0.39992910688E+01 -0.55263271297E+02  0.49052635408E+02  0.74119207524E+02  0.41800000000E+01 0. -1.
         -5    1    1    2    0  502  0.11004560408E+02  0.88920686476E+01  0.34247772827E+03  0.34279532668E+03  0.41800000000E+01 0.  1.
        -11    1    3    3    0    0 -0.12578161675E+02 -0.84162067391E+01  0.36058984136E+02  0.39106176289E+02  0.00000000000E+00 0. -1.
         11    1    3    3    0    0 -0.24256898015E+01  0.54787409388E+02 -0.32890833143E+02  0.63948034398E+02  0.00000000000E+00 0.  1.
</event>
<event>
 8    1  0.5951278E-006  0.1625874E+03  0.7561462E-02  0.1185806E+00
          2   -1    0    0  501    0  0.00000000000E+00  0.00000000000E+00  0.12979031877E+04  0.12979031877E+04  0.00000000000E+00 0. -1.
         -2   -1    0    0    0  501 -0.00000000000E+00 -0.00000000000E+00 -0.24926053348E+02  0.24926053348E+02  0.00000000000E+00 0.  1.
         23    2    1    2    0    0 -0.12055064978E+03 -0.67973613624E+02  0.53752982125E+03  0.56898106020E+03  0.12509303266E+03 0.  0.
         23    2    1    2    0    0  0.12055064978E+03  0.67973613624E+02  0.73544731306E+03  0.75384818080E+03  0.90837536897E+02 0.  0.
          5    1    3    3  502    0 -0.20647227908E+02 -0.59004492727E+02  0.35662838360E+03  0.36208992608E+03  0.41800000000E+01 0. -1.
         -5    1    3    3    0  502 -0.99903421873E+02 -0.89691208968E+01  0.18090143766E+03  0.20689113412E+03  0.41800000000E+01 0. -1.
        -11    1    4    4    0    0  0.77199299896E+02 -0.48808145505E+01  0.42763273859E+03  0.43457256398E+03  0.00000000000E+00 0. -1.
         11    1    4    4    0    0  0.43351349885E+02  0.72854428174E+02  0.30781457447E+03  0.31927561682E+03  0.00000000000E+00 0.  1.
</event>
<event>
 8    1  0.5951278E-006  0.1514620E+03  0.7561462E-02  0.1198688E+00
          2   -1    0    0  501    0  0.00000000000E+00  0.00000000000E+00  0.25792376534E+03  0.25792376534E+03  0.00000000000E+00 0.  1.
         -2   -1    0    0    0  501 -0.00000000000E+00 -0.00000000000E+00 -0.10978134086E+03  0.10978134086E+03  0.00000000000E+00 0. -1.
         23    2    1    2    0    0 -0.11742197023E+03  0.16471708839E+02  0.25464832926E+02  0.17422812243E+03  0.12509094549E+03 0.  0.
         23    2    1    2    0    0  0.11742197023E+03 -0.16471708839E+02  0.12267759155E+03  0.19347698377E+03  0.91237686818E+02 0.  0.
          5    1    3    3  502    0 -0.84392649060E+02 -0.42451088859E+02  0.43650862259E+02  0.10414933671E+03  0.41800000000E+01 0.  1.
         -5    1    3    3    0  502 -0.33029321172E+02  0.58922797698E+02 -0.18186029333E+02  0.70078785724E+02  0.41800000000E+01 0.  1.
        -11    1    4    4    0    0  0.12286089220E+03 -0.29685372969E+02  0.12635496635E+03  0.17872212432E+03  0.00000000000E+00 0.  1.
         11    1    4    4    0    0 -0.54389219636E+01  0.13213664130E+02 -0.36773748090E+01  0.14754859448E+02  0.00000000000E+00 0. -1.
</event>
<event>
 8    1  0.5951278E-006  0.4169436E+02  0.7561462E-02  0.1496100E+00
          2   -1    0    0  501    0  0.00000000000E+00  0.00000000000E+00  0.78859137996E+02  0.78859137996E+02  0.00000000000E+00 0. -1.
         -2   -1    0    0    0  501 -0.00000000000E+00 -0.00000000000E+00 -0.17116127229E+03  0.17116127229E+03  0.00000000000E+00 0.  1.
         23    2    1    2    0    0 -0.13150339725E+02 -0.23066949225E+01 -0.95068171600E+02  0.15768159220E+03  0.12508906823E+03 0.  0.
         23    2    1    2    0    0  0.13150339725E+02  0.23066949225E+01  0.27660373012E+01  0.92338818091E+02  0.91326634054E+02 0.  0.
          5    1    3    3  502    0 -0.12491305262E+01 -0.17153393993E+02 -0.12264604397E+03  0.12391660000E+03  0.41800000000E+01 0. -1.
         -5    1    3    3    0  502 -0.11901209199E+02  0.14846699071E+02  0.27577872374E+02  0.33764992202E+02  0.41800000000E+01 0. -1.
        -11    1    4    4    0    0 -0.15523698950E+02  0.72116437625E+01  0.40922326469E+02  0.44357973787E+02  0.00000000000E+00 0. -1.
         11    1    4    4    0    0  0.28674038676E+02 -0.49049488400E+01 -0.38156289168E+02  0.47980844304E+02  0.00000000000E+00 0.  1.
</event>
<event>
 8    1  0.5951278E-006  0.1109289E+03  0.7561462E-02  0.1258859E+00
          1   -1    0    0  501    0  0.00000000000E+00  0.00000000000E+00  0.14109506365E+03  0.14109506365E+03  0.00000000000E+00 0. -1.
         -1   -1    0    0    0  501 -0.00000000000E+00 -0.00000000000E+00 -0.13784180428E+03  0.13784180428E+03  0.00000000000E+00 0.  1.
         23    2    1    2    0    0 -0.45167896144E+02 -0.29141108113E+02 -0.76442677104E+02  0.14772143251E+03  0.11440627480E+03 0.  0.
         23    2    1    2    0    0  0.45167896144E+02  0.29141108113E+02  0.79695936474E+02  0.13121543543E+03  0.89312402159E+02 0.  0.
          5    1    3    3  502    0 -0.21354146437E+02  0.42571145414E+02 -0.14602548870E+02  0.49990087272E+02  0.41800000000E+01 0. -1.
         -5    1    3    3    0  502 -0.23813749707E+02 -0.71712253528E+02 -0.61840128235E+02  0.97731345234E+02  0.41800000000E+01 0.  1.
        -11    1    4    4    0    0  0.69522731081E+02  0.19827620015E+02  0.37065271918E+02  0.81242716810E+02  0.00000000000E+00 0. -1.
         11    1    4    4    0    0 -0.24354834937E+02  0.93134880985E+01  0.42630664556E+02  0.49972718616E+02  0.00000000000E+00 0.  1.
</event>
<event>
 8    1  0.5951278E-006  0.6905964E+02  0.7561462E-02  0.1363320E+00
         -2   -1    0    0    0  501 -0.00000000000E+00  0.00000000000E+00  0.36111892203E+02  0.36111892203E+02  0.00000000000E+00 0.  1.
          2   -1    0    0  501    0  0.00000000000E+00 -0.00000000000E+00 -0.40829810411E+03  0.40829810411E+03  0.00000000000E+00 0. -1.
         23    2    1    2    0    0  0.21627501921E+02 -0.24778816709E+02 -0.11780363184E+03  0.17494887841E+03  0.12509067026E+03 0.  0.
         23    2    1    2    0    0 -0.21627501921E+02  0.24778816709E+02 -0.25438258006E+03  0.26946111790E+03  0.82565479608E+02 0.  0.
          5    1    3    3  502    0  0.10126550758E+02  0.13500026871E+02 -0.13138379156E+03  0.13252913205E+03  0.41800000000E+01 0.  1.
         -5    1    3    3    0  502  0.11500951163E+02 -0.38278843581E+02  0.13580159722E+02  0.42419746364E+02  0.41800000000E+01 0.  1.
        -11    1    4    4    0    0  0.27449332106E+02  0.11003385822E+02 -0.44163378009E+02  0.53150204983E+02  0.00000000000E+00 0.  1.
         11    1    4    4    0    0 -0.49076834027E+02  0.13775430887E+02 -0.21021920205E+03  0.21631091291E+03  0.00000000000E+00 0. -1.
</event>
<event>
 8    1  0.5951278E-006  0.1611386E+03  0.7561462E-02  0.1187417E+00
         -1   -1    0    0    0  501 -0.00000000000E+00  0.00000000000E+00  0.43716196203E+02  0.43716196203E+02  0.00000000000E+00 0.  1.
          1   -1    0    0  501    0  0.00000000000E+00 -0.00000000000E+00 -0.73211397016E+03  0.73211397016E+03  0.00000000000E+00 0. -1.
         23    2    1    2    0    0 -0.94455857293E+02  0.10506194665E+03 -0.34434821972E+03  0.39265711113E+03  0.12507593250E+03 0.  0.
         23    2    1    2    0    0  0.94455857293E+02 -0.10506194665E+03 -0.34404955424E+03  0.38317305523E+03  0.92149730707E+02 0.  0.
          5    1    3    3  502    0  0.11412346276E+02  0.25172665105E+01 -0.14063370843E+03  0.14118034787E+03  0.41800000000E+01 0. -1.
         -5    1    3    3    0  502 -0.10586820357E+03  0.10254468014E+03 -0.20371451129E+03  0.25147676327E+03  0.41800000000E+01 0. -1.
        -11    1    4    4    0    0 -0.43468928444E+01  0.99115504581E+01 -0.62268301520E+02  0.63201864561E+02  0.00000000000E+00 0.  1.
         11    1    4    4    0    0  0.98802750137E+02 -0.11497349711E+03 -0.28178125272E+03  0.31997119067E+03  0.00000000000E+00 0. -1.
</event>
<event>
 8    1  0.5951278E-006  0.1584892E+03  0.7561462E-02  0.1190413E+00
          2   -1    0    0  501    0  0.00000000000E+00  0.00000000000E+00  0.76035926962E+03  0.76035926962E+03  0.00000000000E+00 0. -1.
         -2   -1    0    0    0  501 -0.00000000000E+00 -0.00000000000E+00 -0.45975738151E+02  0.45975738151E+02  0.00000000000E+00 0.  1.
         23    2    1    2    0    0 -0.95360960323E+02 -0.11358656163E+03  0.30300640480E+03  0.35979978838E+03  0.12508951446E+03 0.  0.
         23    2    1    2    0    0  0.95360960323E+02  0.11358656163E+03  0.41137712667E+03  0.44653521939E+03  0.90371135206E+02 0.  0.
          5    1    3    3  502    0 -0.56363486120E+02 -0.11843348640E+02  0.20570871140E+03  0.21366013625E+03  0.41800000000E+01 0. -1.
         -5    1    3    3    0  502 -0.38997474203E+02 -0.10174321299E+03  0.97297693398E+02  0.14613965213E+03  0.41800000000E+01 0. -1.
        -11    1    4    4    0    0  0.48295992267E+02  0.75597810344E+02  0.12510950504E+03  0.15394778351E+03  0.00000000000E+00 0.  1.
         11    1    4    4    0    0  0.47064968056E+02  0.37988751285E+02  0.28626762163E+03  0.29258743588E+03  0.00000000000E+00 0. -1.
</event>
<event>
 8    1  0.5951278E-006  0.1208987E+03  0.7561462E-02  0.1241622E+00
         -1   -1    0    0    0  501 -0.00000000000E+00  0.00000000000E+00  0.10643130396E+03  0.10643130396E+03  0.00000000000E+00 0.  1.
          1   -1    0    0  501    0  0.00000000000E+00 -0.00000000000E+00 -0.25397914139E+03  0.25397914139E+03  0.00000000000E+00 0. -1.
         23    2    1    2    0    0 -0.11068301662E+03 -0.40498638593E+02 -0.45618180572E+02  0.17781830862E+03  0.12508981808E+03 0.  0.
         23    2    1    2    0    0  0.11068301662E+03  0.40498638593E+02 -0.10192965686E+03  0.18259213673E+03  0.95180688965E+02 0.  0.
          5    1    3    3  502    0 -0.89261035322E+02 -0.35751130106E+02  0.28525227921E+02  0.10038344863E+03  0.41800000000E+01 0.  1.
         -5    1    3    3    0  502 -0.21421981300E+02 -0.47475084872E+01 -0.74143408493E+02  0.77434859996E+02  0.41800000000E+01 0.  1.
        -11    1    4    4    0    0  0.93010096088E+02  0.18218661368E+02 -0.11686813544E+03  0.15046912866E+03  0.00000000000E+00 0. -1.
         11    1    4    4    0    0  0.17672920533E+02  0.22279977226E+02  0.14938478584E+02  0.32123008074E+02  0.00000000000E+00 0.  1.
</event>
<event>
 8    1  0.5951278E-006  0.3643015E+03  0.7561462E-02  0.1056894E+00
         -2   -1    0    0    0  501 -0.00000000000E+00  0.00000000000E+00  0.31454864389E+03  0.31454864389E+03  0.00000000000E+00 0.  1.
          2   -1    0    0  501    0  0.00000000000E+00 -0.00000000000E+00 -0.59263945987E+03  0.59263945987E+03  0.00000000000E+00 0. -1.
         23    2    1    2    0    0 -0.47910737597E+02 -0.34873362466E+03  0.95973525207E+02  0.38570539928E+03  0.12508859961E+03 0.  0.
         23    2    1    2    0    0  0.47910737597E+02  0.34873362466E+03 -0.37406434119E+03  0.52148270447E+03  0.90052762179E+02 0.  0.
          5    1    3    3  502    0  0.36928227997E+02 -0.13315736257E+03  0.10164470906E+02  0.13861950114E+03  0.41800000000E+01 0.  1.
         -5    1    3    3    0  502 -0.84838965594E+02 -0.21557626209E+03  0.85809054301E+02  0.24708589814E+03  0.41800000000E+01 0.  1.
        -11    1    4    4    0    0 -0.17002036471E+02  0.10743819302E+03 -0.15384689361E+03  0.18841682844E+03  0.00000000000E+00 0.  1.
         11    1    4    4    0    0  0.64912774068E+02  0.24129543163E+03 -0.22021744757E+03  0.33306587604E+03  0.00000000000E+00 0. -1.
</event>
<event>
 8    1  0.5951278E-006  0.1453833E+03  0.7561462E-02  0.1206264E+00
          2   -1    0    0  501    0  0.00000000000E+00  0.00000000000E+00  0.12420008068E+04  0.12420008068E+04  0.00000000000E+00 0. -1.
         -2   -1    0    0    0  501 -0.00000000000E+00 -0.00000000000E+00 -0.17935160752E+02  0.17935160752E+02  0.00000000000E+00 0.  1.
         23    2    1    2    0    0  0.38705880518E+02 -0.89896240621E+02  0.78154060920E+03  0.79751610624E+03  0.12508691625E+03 0.  0.
         23    2    1    2    0    0 -0.38705880518E+02  0.89896240621E+02  0.44252503688E+03  0.46241986135E+03  0.91783662144E+02 0.  0.
          5    1    3    3  502    0 -0.44104260390E+02 -0.20874295012E+02  0.18948414043E+03  0.19571058697E+03  0.41800000000E+01 0. -1.
         -5    1    3    3    0  502  0.82810140908E+02 -0.69021945610E+02  0.59205646877E+03  0.60180551927E+03  0.41800000000E+01 0. -1.
        -11    1    4    4    0    0 -0.14608170970E+02  0.10464255873E+03  0.36060388727E+03  0.37576405798E+03  0.00000000000E+00 0.  1.
         11    1    4    4    0    0 -0.24097709548E+02 -0.14746318108E+02  0.81921149613E+02  0.86655803367E+02  0.00000000000E+00 0. -1.
</event>
<event>
 7    1  0.5951278E-006  0.2913275E+03  0.7561462E-02  0.1089658E+00
         -1   -1    0    0    0  501 -0.00000000000E+00  0.00000000000E+00  0.49458490214E+03  0.49458490214E+03  0.00000000000E+00 0.  1.
          1   -1    0    0  501    0  0.00000000000E+00 -0.00000000000E+00 -0.21577002919E+03  0.21577002919E+03  0.00000000000E+00 0. -1.
         23    2    1    2    0    0 -0.26787651471E+03  0.28592749732E+02 -0.60657084667E+01  0.28410203022E+03  0.90009989947E+02 0.  0.
          5    1    1    2  502    0  0.13358894441E+03  0.62542306714E+02  0.90954889922E+02  0.17334304312E+03  0.41800000000E+01 0. -1.
         -5    1    1    2    0  502  0.13428757029E+03 -0.91135056445E+02  0.19392569149E+03  0.25290985799E+03  0.41800000000E+01 0.  1.
        -11    1    3    3    0    0 -0.20878952757E+03  0.39948717313E+02 -0.38058266050E+02  0.21595693657E+03  0.00000000000E+00 0. -1.
         11    1    3    3    0    0 -0.59086987137E+02 -0.11355967581E+02  0.31992557583E+02  0.68145093655E+02  0.00000000000E+00 0.  1.
</event>
<event>
 8    1  0.5951278E-006  0.1187888E+03  0.7561462E-02  0.1245109E+00
         -3   -1    0    0    0  501 -0.00000000000E+00  0.00000000000E+00  0.12316376799E+03  0.12316376799E+03  0.00000000000E+00 0.  1.
          3   -1    0    0  501    0  0.00000000000E+00 -0.00000000000E+00 -0.13961924543E+03  0.13961924543E+03  0.00000000000E+00 0. -1.
         23    2    1    2    0    0  0.41517464738E+02  0.44262156788E+02 -0.63039985659E+01  0.13919071732E+03  0.12510586313E+03 0.  0.
         23    2    1    2    0    0 -0.41517464738E+02 -0.44262156788E+02 -0.10151478880E+02  0.12359229610E+03  0.10718752134E+03 0.  0.
          5    1    3    3  502    0  0.93649579742E+01 -0.42112674464E+02 -0.16481569568E+02  0.46371266144E+02  0.41800000000E+01 0. -1.
         -5    1    3    3    0  502  0.32152506764E+02  0.86374831252E+02  0.10177571002E+02  0.92819451176E+02  0.41800000000E+01 0. -1.
        -11    1    4    4    0    0 -0.39705325182E+02  0.15177345161E+02 -0.38828435056E+02  0.57571798850E+02  0.00000000000E+00 0. -1.
         11    1    4    4    0    0 -0.18121395561E+01 -0.59439501949E+02  0.28676956175E+02  0.66020497250E+02  0.00000000000E+00 0.  1.
</event>
<event>
 8    1  0.5951278E-006  0.9266139E+02  0.7561462E-02  0.1296532E+00
         -2   -1    0    0    0  501 -0.00000000000E+00  0.00000000000E+00  0.11672930666E+03  0.11672930666E+03  0.00000000000E+00 0.  1.
          2   -1    0    0  501    0  0.00000000000E+00 -0.00000000000E+00 -0.10858034050E+03  0.10858034050E+03  0.00000000000E+00 0. -1.
         23    2    1    2    0    0  0.50815465287E+01  0.22934272566E+02 -0.71918809940E+01  0.12748324512E+03  0.12509377148E+03 0.  0.
         23    2    1    2    0    0 -0.50815465287E+01 -0.22934272566E+02  0.15340847151E+02  0.97826402028E+02  0.93716916132E+02 0.  0.
          5    1    3    3  502    0  0.56617257636E+02  0.17045172453E+02  0.27084665202E+02  0.65169803247E+02  0.41800000000E+01 0.  1.
         -5    1    3    3    0  502 -0.51535711107E+02  0.58891001131E+01 -0.34276546196E+02  0.62313441878E+02  0.41800000000E+01 0.  1.
        -11    1    4    4    0    0  0.14027281227E+02 -0.43636308162E+02  0.39657670003E+02  0.60610418236E+02  0.00000000000E+00 0.  1.
         11    1    4    4    0    0 -0.19108827755E+02  0.20702035597E+02 -0.24316822852E+02  0.37215983793E+02  0.00000000000E+00 0. -1.
</event>
<event>
 8    1  0.5951278E-006  0.1734648E+03  0.7561462E-02  0.1174282E+00
          2   -1    0    0  501    0  0.00000000000E+00  0.00000000000E+00  0.86091334217E+03  0.86091334217E+03  0.00000000000E+00 0. -1.
         -2   -1    0    0    0  501 -0.00000000000E+00 -0.00000000000E+00 -0.56358085907E+02  0.56358085907E+02  0.00000000000E+00 0.  1.
         23    2    1    2    0    0  0.72412034182E+02  0.14402374278E+03  0.20342845242E+03  0.28812917508E+03  0.12509574372E+03 0.  0.
         23    2    1    2    0    0 -0.72412034182E+02 -0.14402374278E+03  0.60112680384E+03  0.62914225300E+03  0.92087996148E+02 0.  0.
          5    1    3    3  502    0  0.36576348902E+02  0.88423137550E+02  0.20000955026E+03  0.22176062128E+03  0.41800000000E+01 0. -1.
         -5    1    3    3    0  502  0.35835685280E+02  0.55600605233E+02  0.34189021621E+01  0.66368553802E+02  0.41800000000E+01 0. -1.
        -11    1    4    4    0    0 -0.90575932212E+02 -0.89242183302E+02  0.38574025045E+03  0.40615724491E+03  0.00000000000E+00 0.  1.
         11    1    4    4    0    0  0.18163898030E+02 -0.54781559481E+02  0.21538655339E+03  0.22298500809E+03  0.00000000000E+00 0. -1.
</event>
<event>
 8    1  0.5951278E-006  0.1346464E+03  0.7561462E-02  0.1220720E+00
         -2   -1    0    0    0  501 -0.00000000000E+00  0.00000000000E+00  0.21800448396E+02  0.21800448396E+02  0.00000000000E+00 0.  1.
          2   -1    0    0  501    0  0.00000000000E+00 -0.00000000000E+00 -0.10208589213E+04  0.10208589213E+04  0.00000000000E+00 0. -1.
         23    2    1    2    0    0 -0.47653212082E+02 -0.87403715194E+02 -0.52594820852E+03  0.54971395916E+03  0.12511467061E+03 0.  0.
         23    2    1    2    0    0  0.47653212082E+02  0.87403715194E+02 -0.47311026443E+03  0.49294541058E+03  0.96185328665E+02 0.  0.
          5    1    3    3  502    0 -0.67527172102E+02 -0.96447471813E+02 -0.29434940435E+03  0.31705059223E+03  0.41800000000E+01 0. -1.
         -5    1    3    3    0  502  0.19873960019E+02  0.90437566186E+01 -0.23159880417E+03  0.23266336694E+03  0.41800000000E+01 0. -1.
        -11    1    4    4    0    0  0.47814466099E+02  0.10305020079E+03 -0.45520518323E+03  0.46916662913E+03  0.00000000000E+00 0. -1.
         11    1    4    4    0    0 -0.16125401682E+00 -0.15646485594E+02 -0.17905081193E+02  0.23778781441E+02  0.00000000000E+00 0.  1.
</event>
<event>
 8    1  0.5951278E-006  0.1861532E+03  0.7561462E-02  0.1161977E+00
         -2   -1    0    0    0  501 -0.00000000000E+00  0.00000000000E+00  0.36641250345E+03  0.36641250345E+03  0.00000000000E+00 0.  1.
          2   -1    0    0  501    0  0.00000000000E+00 -0.00000000000E+00 -0.18788968639E+03  0.18788968639E+03  0.00000000000E+00 0. -1.
         23    2    1    2    0    0 -0.17694959237E+03  0.11189716899E+02  0.25879288196E+03  0.33641393744E+03  0.12150808018E+03 0.  0.
         23    2    1    2    0    0  0.17694959237E+03 -0.11189716899E+02 -0.80270064891E+02  0.21788825240E+03  0.97957333636E+02 0.  0.
          5    1    3    3  502    0 -0.42147501928E+02  0.38685131682E+02  0.19918638366E+02  0.60722120240E+02  0.41800000000E+01 0. -1.
         -5    1    3    3    0  502 -0.13480209044E+03 -0.27495414784E+02  0.23887424359E+03  0.27569181720E+03  0.41800000000E+01 0.  1.
        -11    1    4    4    0    0  0.82341544326E+02 -0.51541455486E+01  0.14584587914E+02  0.83781891498E+02  0.00000000000E+00 0.  1.
         11    1    4    4    0    0  0.94608048042E+02 -0.60355713499E+01 -0.94854652805E+02  0.13410636090E+03  0.00000000000E+00 0. -1.
</event>
<event>
 8    1  0.5951278E-006  0.1536374E+03  0.7561462E-02  0.1196073E+00
         -1   -1    0    0    0  501 -0.00000000000E+00  0.00000000000E+00  0.94632256696E+02  0.94632256696E+02  0.00000000000E+00 0.  1.
          1   -1    0    0  501    0  0.00000000000E+00 -0.00000000000E+00 -0.27607397087E+03  0.27607397087E+03  0.00000000000E+00 0. -1.
         23    2    1    2    0    0 -0.10422144035E+03  0.34137458253E+02 -0.43209031962E+02  0.17190961238E+03  0.12513360740E+03 0.  0.
         23    2    1    2    0    0  0.10422144035E+03 -0.34137458253E+02 -0.13823268221E+03  0.19879661519E+03  0.91566069550E+02 0.  0.
          5    1    3    3  502    0  0.15589368185E+02 -0.27027305380E+02 -0.12461765876E+02  0.33856633697E+02  0.41800000000E+01 0. -1.
         -5    1    3    3    0  502 -0.11981080854E+03  0.61164763634E+02 -0.30747266086E+02  0.13805297869E+03  0.41800000000E+01 0. -1.
        -11    1    4    4    0    0  0.17872634325E+02 -0.50282485868E+02 -0.37966294014E+02  0.65491976028E+02  0.00000000000E+00 0.  1.
         11    1    4    4    0    0  0.86348806025E+02  0.16145027615E+02 -0.10026638820E+03  0.13330463916E+03  0.00000000000E+00 0. -1.
</event>
<event>
 8    1  0.5951278E-006  0.1170962E+03  0.7561462E-02  0.1247966E+00
          2   -1    0    0  501    0  0.00000000000E+00  0.00000000000E+00  0.14023113228E+03  0.14023113228E+03  0.00000000000E+00 0.  1.
         -2   -1    0    0    0  501 -0.00000000000E+00 -0.00000000000E+00 -0.16831707376E+03  0.16831707376E+03  0.00000000000E+00 0. -1.
         23    2    1    2    0    0  0.60456409057E+02  0.17429312282E+02 -0.10429756622E+03  0.17459722691E+03  0.12508977178E+03 0.  0.
         23    2    1    2    0    0 -0.60456409057E+02 -0.17429312282E+02  0.76211624734E+02  0.13395097912E+03  0.90420654393E+02 0.  0.
          5    1    3    3  502    0 -0.27717218327E+02 -0.19943659872E+02 -0.59632173513E+02  0.68843752649E+02  0.41800000000E+01 0. -1.
         -5    1    3    3    0  502  0.88173627384E+02  0.37372972154E+02 -0.44665392704E+02  0.10575347426E+03  0.41800000000E+01 0. -1.
        -11    1    4    4    0    0 -0.26766296775E+02 -0.50227365678E+02  0.63441125143E+02  0.85229098701E+02  0.00000000000E+00 0. -1.
         11    1    4    4    0    0 -0.33690112282E+02  0.32798053395E+02  0.12770499591E+02  0.48721880422E+02  0.00000000000E+00 0.  1.
</event>
<event>
 8    1  0.5951278E-006  0.1108921E+03  0.7561462E-02  0.1258927E+00
          1   -1    0    0  501    0  0.00000000000E+00  0.00000000000E+00  0.27457261938E+03  0.27457261938E+03  0.00000000000E+00 0. -1.
         -1   -1    0    0    0  501 -0.00000000000E+00 -0.00000000000E+00 -0.48993494827E+02  0.48993494827E+02  0.00000000000E+00 0.  1.
         23    2    1    2    0    0  0.92576351161E+01 -0.35444733899E+02  0.10296216012E+03  0.16615200927E+03  0.12515290968E+03 0.  0.
         23    2    1    2    0    0 -0.92576351161E+01  0.35444733899E+02  0.12261696444E+03  0.15741410494E+03  0.91663774173E+02 0.  0.
          5    1    3    3  502    0 -0.57296720895E+02 -0.15811428392E+02  0.35916787385E+02  0.69573008481E+02  0.41800000000E+01 0.  1.
         -5    1    3    3    0  502  0.66554356011E+02 -0.19633305507E+02  0.67045372730E+02  0.96579000790E+02  0.41800000000E+01 0.  1.
        -11    1    4    4    0    0  0.19122833187E+01 -0.28099741092E+02  0.14926321878E+02  0.31875497827E+02  0.00000000000E+00 0.  1.
         11    1    4    4    0    0 -0.11169918435E+02  0.63544474992E+02  0.10769064256E+03  0.12553860711E+03  0.00000000000E+00 0. -1.
</event>
<event>
 8    1  0.5951278E-006  0.2270614E+03  0.7561462E-02  0.1128725E+00
         -2   -1    0    0    0  501 -0.00000000000E+00  0.00000000000E+00  0.34606581378E+03  0.34606581378E+03  0.00000000000E+00 0.  1.
          2   -1    0    0  501    0  0.00000000000E+00 -0.00000000000E+00 -0.21238076280E+03  0.21238076280E+03  0.00000000000E+00 0. -1.
         23    2    1    2    0    0  0.23428484136E+02 -0.21662397025E+03  0.19095947861E+03  0.31557553263E+03  0.12509019131E+03 0.  0.
         23    2    1    2    0    0 -0.23428484136E+02  0.21662397025E+03 -0.57274427631E+02  0.24287104396E+03  0.90725661063E+02 0.  0.
          5    1    3    3  502    0 -0.20965256818E+02 -0.17139205885E+03  0.86126962810E+02  0.19300286514E+03  0.41800000000E+01 0. -1.
         -5    1    3    3    0  502  0.44393740954E+02 -0.45231911407E+02  0.10483251580E+03  0.12257266749E+03  0.41800000000E+01 0. -1.
        -11    1    4    4    0    0 -0.88554506671E+01  0.80825418644E+02 -0.67827777935E+02  0.10588566836E+03  0.00000000000E+00 0.  1.
         11    1    4    4    0    0 -0.14573033469E+02  0.13579855161E+03  0.10553350304E+02  0.13698537559E+03  0.00000000000E+00 0. -1.
</event>
<event>
 8    1  0.5951278E-006  0.8728182E+02  0.7561462E-02  0.1309571E+00
         -2   -1    0    0    0  501 -0.00000000000E+00  0.00000000000E+00  0.14720573266E+03  0.14720573266E+03  0.00000000000E+00 0.  1.
          2   -1    0    0  501    0  0.00000000000E+00 -0.00000000000E+00 -0.11155324950E+03  0.11155324950E+03  0.00000000000E+00 0. -1.
         23    2    1    2    0    0 -0.58805902459E+02  0.16522152811E+01  0.34762961946E+02  0.14253695453E+03  0.12508979136E+03 0.  0.
         23    2    1    2    0    0  0.58805902459E+02 -0.16522152811E+01  0.88952121725E+00  0.11622202763E+03  0.10022925959E+03 0.  0.
          5    1    3    3  502    0 -0.22768694829E+02  0.46555567486E+02  0.60121506686E+02  0.79485233184E+02  0.41800000000E+01 0.  1.
         -5    1    3    3    0  502 -0.36037207630E+02 -0.44903352205E+02 -0.25358544740E+02  0.63051721343E+02  0.41800000000E+01 0.  1.
        -11    1    4    4    0    0  0.21859199680E+02  0.12613813408E+02  0.48269447592E+02  0.54469004674E+02  0.00000000000E+00 0.  1.
         11    1    4    4    0    0  0.36946702779E+02 -0.14266028689E+02 -0.47379926375E+02  0.61753022955E+02  0.00000000000E+00 0. -1.
</event>
<event>
 8    1  0.5951278E-006  0.9171423E+02  0.7561462E-02  0.1298753E+00
          3   -1    0    0  501    0  0.00000000000E+00  0.00000000000E+00  0.15395835725E+03  0.15395835725E+03  0.00000000000E+00 0. -1.
         -3   -1    0    0    0  501 -0.00000000000E+00 -0.00000000000E+00 -0.95415376748E+02  0.95415376748E+02  0.00000000000E+00 0.  1.
         23    2    1    2    0    0  0.13061025337E+02 -0.16561472449E+02 -0.18456341430E+02  0.12819280114E+03  0.12509150640E+03 0.  0.
         23    2    1    2    0    0 -0.13061025337E+02  0.16561472449E+02  0.76999321928E+02  0.12118093285E+03  0.91164961233E+02 0.  0.
          5    1    3    3  502    0 -0.42875354064E+02  0.22738473546E+02  0.16329336781E+02  0.51375614887E+02  0.41800000000E+01 0. -1.
         -5    1    3    3    0  502  0.55936379401E+02 -0.39299945995E+02 -0.34785678211E+02  0.76817186256E+02  0.41800000000E+01 0. -1.
        -11    1    4    4    0    0  0.11583622260E+02  0.34077253353E+02 -0.25470707285E+01  0.36082226512E+02  0.00000000000E+00 0.  1.
         11    1    4    4    0    0 -0.24644647598E+02 -0.17515780904E+02  0.79546392656E+02  0.85098706338E+02  0.00000000000E+00 0. -1.
</event>
<event>
 7    1  0.5951278E-006  0.2659591E+03  0.7561462E-02  0.1103615E+00
          1   -1    0    0  501    0  0.00000000000E+00  0.00000000000E+00  0.27096138507E+03  0.27096138507E+03  0.00000000000E+00 0. -1.
         -1   -1    0    0    0  501 -0.00000000000E+00 -0.00000000000E+00 -0.32480691089E+03  0.32480691089E+03  0.00000000000E+00 0.  1.
         23    2    1    2    0    0 -0.33606410258E+02 -0.24795001572E+03  0.74261784039E+02  0.27638848226E+03  0.90924031198E+02 0.  0.
          5    1    1    2  502    0  0.11248274432E+02  0.25693814102E+03 -0.13926319175E+03  0.29249861703E+03  0.41800000000E+01 0. -1.
         -5    1    1    2    0  502  0.22358135826E+02 -0.89881252946E+01  0.11155881894E+02  0.26881196677E+02  0.41800000000E+01 0.  1.
        -11    1    3    3    0    0 -0.27667683383E+02 -0.19302639865E+03  0.95592597525E+02  0.21716960188E+03  0.00000000000E+00 0.  1.
         11    1    3    3    0    0 -0.59387268756E+01 -0.54923617076E+02 -0.21330813486E+02  0.59218880381E+02  0.00000000000E+00 0. -1.
</event>
<event>
 8    1  0.5951278E-006  0.2086211E+03  0.7561462E-02  0.1142663E+00
         -1   -1    0    0    0  501 -0.00000000000E+00  0.00000000000E+00  0.11521836107E+03  0.11521836107E+03  0.00000000000E+00 0.  1.
          1   -1    0    0  501    0  0.00000000000E+00 -0.00000000000E+00 -0.55366448003E+03  0.55366448003E+03  0.00000000000E+00 0. -1.
         23    2    1    2    0    0  0.26771254853E+02  0.18160641221E+03 -0.46871984732E+02  0.22702716356E+03  0.12508701370E+03 0.  0.
         23    2    1    2    0    0 -0.26771254853E+02 -0.18160641221E+03 -0.39157413423E+03  0.44185567754E+03  0.90601038235E+02 0.  0.
          5    1    3    3  502    0 -0.19944096230E+02 -0.62917465080E+01  0.12181350725E+02  0.24560349225E+02  0.41800000000E+01 0.  1.
         -5    1    3    3    0  502  0.46715351083E+02  0.18789815872E+03 -0.59053335457E+02  0.20246681433E+03  0.41800000000E+01 0.  1.
        -11    1    4    4    0    0 -0.57779500789E+02 -0.12503872812E+03 -0.29686112152E+03  0.32726087409E+03  0.00000000000E+00 0. -1.
         11    1    4    4    0    0  0.31008245936E+02 -0.56567684095E+02 -0.94713012710E+02  0.11459480344E+03  0.00000000000E+00 0.  1.
</event>
<event>
 8    1  0.6538839E-006  0.6367169E+02  0.7561462E-02  0.1383039E+00
          1   -1    0    0  501    0  0.00000000000E+00  0.00000000000E+00  0.73363746036E+02  0.73363746036E+02  0.00000000000E+00 0. -1.
         -1   -1    0    0    0  501 -0.00000000000E+00 -0.00000000000E+00 -0.21183643896E+03  0.21183643896E+03  0.00000000000E+00 0.  1.
         23    2    1    2    0    0  0.53497531295E+02  0.13775536700E+02 -0.10637407069E+03  0.17324759442E+03  0.12509010668E+03 0.  0.
         23    2    1    2    0    0 -0.53497531295E+02 -0.13775536700E+02 -0.32098622236E+02  0.11195259058E+03  0.91931005226E+02 0.  0.
          5    1    3    3  502    0  0.45120539139E+02  0.28413935243E+02 -0.13192116873E+03  0.14235126247E+03  0.41800000000E+01 0.  1.
         -5    1    3    3    0  502  0.83769921559E+01 -0.14638398544E+02  0.25547098040E+02  0.30896331947E+02  0.41800000000E+01 0.  1.
        -11    1    4    4    0    0 -0.25836022663E+02 -0.60047295478E+00 -0.63209052959E+02  0.68287956557E+02  0.00000000000E+00 0.  1.
         11    1    4    4    0    0 -0.27661508633E+02 -0.13175063745E+02  0.31110430723E+02  0.43664634022E+02  0.00000000000E+00 0. -1.
</event>
<event>
 8    1  0.5951278E-006  0.2026271E+03  0.7561462E-02  0.1147541E+00
         -1   -1    0    0    0  501 -0.00000000000E+00  0.00000000000E+00  0.56040245814E+03  0.56040245814E+03  0.00000000000E+00 0.  1.
          1   -1    0    0  501    0  0.00000000000E+00 -0.00000000000E+00 -0.89689445099E+02  0.89689445099E+02  0.00000000000E+00 0. -1.
         23    2    1    2    0    0 -0.16376881880E+03 -0.85714942209E+02  0.33390923855E+03  0.40163318344E+03  0.12508619876E+03 0.  0.
         23    2    1    2    0    0  0.16376881880E+03  0.85714942209E+02  0.13680377449E+03  0.24845871980E+03  0.94070108958E+02 0.  0.
          5    1    3    3  502    0  0.56620639007E+01 -0.11360267309E+02 -0.59655801961E+01  0.14634725417E+02  0.41800000000E+01 0.  1.
         -5    1    3    3    0  502 -0.16943088271E+03 -0.74354674900E+02  0.33987481875E+03  0.38699845803E+03  0.41800000000E+01 0.  1.
        -11    1    4    4    0    0  0.11660252416E+03  0.92440615408E+01  0.68046635387E+02  0.13532163871E+03  0.00000000000E+00 0.  1.
         11    1    4    4    0    0  0.47166294641E+02  0.76470880669E+02  0.68757139103E+02  0.11313708109E+03  0.00000000000E+00 0. -1.
</event>
<event>
 8    1  0.5951278E-006  0.7486797E+02  0.7561462E-02  0.1344280E+00
         -1   -1    0    0    0  501 -0.00000000000E+00  0.00000000000E+00  0.13747816512E+03  0.13747816512E+03  0.00000000000E+00 0. -1.
          1   -1    0    0  501    0  0.00000000000E+00 -0.00000000000E+00 -0.89040266842E+02  0.89040266842E+02  0.00000000000E+00 0.  1.
         23    2    1    2    0    0 -0.16383330831E+02 -0.19227683244E+02  0.29222543580E+02  0.13092062515E+03  0.12509250859E+03 0.  0.
         23    2    1    2    0    0  0.16383330831E+02  0.19227683244E+02  0.19215354701E+02  0.95597806816E+02  0.90175348515E+02 0.  0.
          5    1    3    3  502    0 -0.29651040090E+02 -0.27927672757E+02 -0.41511918552E+02  0.58308240120E+02  0.41800000000E+01 0. -1.
         -5    1    3    3    0  502  0.13267709259E+02  0.86999895128E+01  0.70734462133E+02  0.72612385030E+02  0.41800000000E+01 0. -1.
        -11    1    4    4    0    0  0.41638353772E+02 -0.19634037746E+02  0.17404173621E+02  0.49215375671E+02  0.00000000000E+00 0. -1.
         11    1    4    4    0    0 -0.25255022941E+02  0.38861720990E+02  0.18111810808E+01  0.46382431145E+02  0.00000000000E+00 0.  1.
</event>
<event>
 8    1  0.5951278E-006  0.1935677E+03  0.7561462E-02  0.1155282E+00
          2   -1    0    0  501    0  0.00000000000E+00  0.00000000000E+00  0.75722627445E+03  0.75722627445E+03  0.00000000000E+00 0.  1.
         -2   -1    0    0    0  501 -0.00000000000E+00 -0.00000000000E+00 -0.64829789638E+02  0.64829789638E+02  0.00000000000E+00 0. -1.
         23    2    1    2    0    0  0.37530416679E+02 -0.16965524336E+03  0.20343604943E+03  0.29533592171E+03  0.12508255942E+03 0.  0.
         23    2    1    2    0    0 -0.37530416679E+02  0.16965524336E+03  0.48896043538E+03  0.52672014237E+03  0.90334750999E+02 0.  0.
          5    1    3    3  502    0  0.18926831060E+02  0.12221445815E+02  0.15926014444E+01  0.22969489571E+02  0.41800000000E+01 0.  1.
         -5    1    3    3    0  502  0.18603585619E+02 -0.18187668918E+03  0.20184344799E+03  0.27236643214E+03  0.41800000000E+01 0.  1.
        -11    1    4    4    0    0 -0.71766318271E+01  0.13535586823E+03  0.43658770320E+03  0.45714498542E+03  0.00000000000E+00 0.  1.
         11    1    4    4    0    0 -0.30353784852E+02  0.34299375126E+02  0.52372732180E+02  0.69575156952E+02  0.00000000000E+00 0. -1.
</event>
<event>
 8    1  0.5951278E-006  0.9502847E+02  0.7561462E-02  0.1291112E+00
         -1   -1    0    0    0  501 -0.00000000000E+00  0.00000000000E+00  0.76767926508E+02  0.76767926508E+02  0.00000000000E+00 0.  1.
          1   -1    0    0  501    0  0.00000000000E+00 -0.00000000000E+00 -0.28937099015E+03  0.28937099015E+03  0.00000000000E+00 0. -1.
         23    2    1    2    0    0  0.46350717358E+02 -0.75209584141E+02 -0.51417736474E+02  0.16154294965E+03  0.12508984936E+03 0.  0.
         23    2    1    2    0    0 -0.46350717358E+02  0.75209584141E+02 -0.16118532717E+03  0.20459596700E+03  0.89855047018E+02 0.  0.
          5    1    3    3  502    0  0.15659446477E+02 -0.21788051506E+02 -0.86402673650E+02  0.90569486397E+02  0.41800000000E+01 0. -1.
         -5    1    3    3    0  502  0.30691270881E+02 -0.53421532635E+02  0.34984937175E+02  0.70973463256E+02  0.41800000000E+01 0. -1.
        -11    1    4    4    0    0 -0.14841079726E+02  0.66950591827E+02 -0.40610340011E+02  0.79698426015E+02  0.00000000000E+00 0.  1.
         11    1    4    4    0    0 -0.31509637632E+02  0.82589923140E+01 -0.12057498716E+03  0.12489754099E+03  0.00000000000E+00 0. -1.
</event>
<event>
 8    1  0.5951278E-006  0.1047190E+03  0.7561462E-02  0.1270674E+00
          2   -1    0    0  501    0  0.00000000000E+00  0.00000000000E+00  0.22774106548E+03  0.22774106548E+03  0.00000000000E+00 0. -1.
         -2   -1    0    0    0  501 -0.00000000000E+00 -0.00000000000E+00 -0.81676657857E+02  0.81676657857E+02  0.00000000000E+00 0.  1.
         23    2    1    2    0    0  0.63420417365E+02  0.38272175743E+02  0.41585148617E+02  0.15120536409E+03  0.12508728460E+03 0.  0.
         23    2    1    2    0    0 -0.63420417365E+02 -0.38272175743E+02  0.10447925901E+03  0.15821235925E+03  0.92888784474E+02 0.  0.
          5    1    3    3  502    0  0.56797816052E+02  0.50333083171E+01  0.80942403791E+02  0.99098290764E+02  0.41800000000E+01 0. -1.
         -5    1    3    3    0  502  0.66226013131E+01  0.33238867426E+02 -0.39357255174E+02  0.52107073327E+02  0.41800000000E+01 0. -1.
        -11    1    4    4    0    0 -0.86115476043E+02 -0.18645151872E+02  0.85076218002E+02  0.12248052813E+03  0.00000000000E+00 0. -1.
         11    1    4    4    0    0  0.22695058679E+02 -0.19627023871E+02  0.19403041007E+02  0.35731831114E+02  0.00000000000E+00 0.  1.
</event>
<event>
 8    1  0.5951278E-006  0.1862238E+03  0.7561462E-02  0.1161912E+00
          2   -1    0    0  501    0  0.00000000000E+00  0.00000000000E+00  0.19273145771E+03  0.19273145771E+03  0.00000000000E+00 0. -1.
         -2   -1    0    0    0  501 -0.00000000000E+00 -0.00000000000E+00 -0.23503509940E+03  0.23503509940E+03  0.00000000000E+00 0.  1.
         23    2    1    2    0    0  0.13268865542E+03 -0.12210997321E+03  0.79359543991E+01  0.21960488607E+03  0.12508477837E+03 0.  0.
         23    2    1    2    0    0 -0.13268865542E+03  0.12210997321E+03 -0.50239596091E+02  0.20816167103E+03  0.91050202838E+02 0.  0.
          5    1    3    3  502    0  0.11957368888E+03 -0.76139318869E+02 -0.44392801681E+02  0.14860436128E+03  0.41800000000E+01 0. -1.
         -5    1    3    3    0  502  0.13114966536E+02 -0.45970654341E+02  0.52328756080E+02  0.71000524792E+02  0.41800000000E+01 0. -1.
        -11    1    4    4    0    0 -0.46814521412E+02  0.62575103383E+02  0.21931379164E+02  0.81167902341E+02  0.00000000000E+00 0.  1.
         11    1    4    4    0    0 -0.85874134006E+02  0.59534869827E+02 -0.72170975255E+02  0.12699376869E+03  0.00000000000E+00 0. -1.
</event>
<event>
 8    1  0.5951278E-006  0.2693053E+03  0.7561462E-02  0.1101678E+00
          1   -1    0    0  501    0  0.00000000000E+00  0.00000000000E+00  0.10471516809E+04  0.10471516809E+04  0.00000000000E+00 0. -1.
         -1   -1    0    0    0  501 -0.00000000000E+00 -0.00000000000E+00 -0.14939393922E+03  0.14939393922E+03  0.00000000000E+00 0.  1.
         23    2    1    2    0    0  0.12669472476E+03  0.22001218339E+03  0.28357306188E+02  0.28444394578E+03  0.12508919760E+03 0.  0.
         23    2    1    2    0    0 -0.12669472476E+03 -0.22001218339E+03  0.86940043545E+03  0.91210167431E+03  0.10777491816E+03 0.  0.
          5    1    3    3  502    0  0.26993556812E+02  0.11396724686E+03 -0.39665413347E+02  0.12372551428E+03  0.41800000000E+01 0. -1.
         -5    1    3    3    0  502  0.99701167953E+02  0.10604493652E+03  0.68022719535E+02  0.16071843151E+03  0.41800000000E+01 0. -1.
        -11    1    4    4    0    0 -0.98416482068E+02 -0.64338538754E+02  0.37451953247E+03  0.39254315904E+03  0.00000000000E+00 0. -1.
         11    1    4    4    0    0 -0.28278242697E+02 -0.15567364463E+03  0.49488090298E+03  0.51955851526E+03  0.00000000000E+00 0.  1.
</event>
<event>
 8    1  0.5951278E-006  0.1501225E+03  0.7561462E-02  0.1200323E+00
         -3   -1    0    0    0  501 -0.00000000000E+00  0.00000000000E+00  0.17150268851E+03  0.17150268851E+03  0.00000000000E+00 0.  1.
          3   -1    0    0  501    0  0.00000000000E+00 -0.00000000000E+00 -0.17733940032E+03  0.17733940032E+03  0.00000000000E+00 0. -1.
         23    2    1    2    0    0  0.38703640215E+02 -0.11290388038E+03  0.62168510103E+02  0.18373195345E+03  0.12508896474E+03 0.  0.
         23    2    1    2    0    0 -0.38703640215E+02  0.11290388038E+03 -0.68005221914E+02  0.16511013537E+03  0.91604522946E+02 0.  0.
          5    1    3    3  502    0  0.70199716069E+02 -0.96012229993E+02  0.87615534650E+01  0.11933392503E+03  0.41800000000E+01 0.  1.
         -5    1    3    3    0  502 -0.31496075854E+02 -0.16891650385E+02  0.53406956638E+02  0.64398028419E+02  0.41800000000E+01 0.  1.
        -11    1    4    4    0    0  0.25132829834E+02  0.48182830953E+02 -0.51440671157E+01  0.54586681165E+02  0.00000000000E+00 0.  1.
         11    1    4    4    0    0 -0.63836470049E+02  0.64721049425E+02 -0.62861154798E+02  0.11052345421E+03  0.00000000000E+00 0. -1.
</event>
<event>
 8    1  0.5951278E-006  0.8310717E+02  0.7561462E-02  0.1320458E+00
         -3   -1    0    0    0  501 -0.00000000000E+00  0.00000000000E+00  0.54080607647E+03  0.54080607647E+03  0.00000000000E+00 0.  1.
          3   -1    0    0  501    0  0.00000000000E+00 -0.00000000000E+00 -0.22811024763E+02  0.22811024763E+02  0.00000000000E+00 0. -1.
         23    2    1    2    0    0  0.13661500820E+02  0.17307352744E+02  0.34697034712E+03  0.36950236508E+03  0.12512951273E+03 0.  0.
         23    2    1    2    0    0 -0.13661500820E+02 -0.17307352744E+02  0.17102470458E+03  0.19411473615E+03  0.89134169362E+02 0.  0.
          5    1    3    3  502    0  0.48518154447E+02  0.13083310120E+02  0.32269717774E+03  0.32661311247E+03  0.41800000000E+01 0.  1.
         -5    1    3    3    0  502 -0.34856653627E+02  0.42240426234E+01  0.24273169383E+02  0.42889252617E+02  0.41800000000E+01 0.  1.
        -11    1    4    4    0    0 -0.46094872278E+02 -0.93222505752E+01  0.50324799940E+02  0.68878349973E+02  0.00000000000E+00 0. -1.
         11    1    4    4    0    0  0.32433371458E+02 -0.79851021685E+01  0.12069990464E+03  0.12523638617E+03  0.00000000000E+00 0.  1.
</event>
<event>
 8    1  0.5951278E-006  0.1137546E+03  0.7561462E-02  0.1253771E+00
         -2   -1    0    0    0  501 -0.00000000000E+00  0.00000000000E+00  0.58896600001E+02  0.58896600001E+02  0.00000000000E+00 0.  1.
          2   -1    0    0  501    0  0.00000000000E+00 -0.00000000000E+00 -0.24522718287E+03  0.24522718287E+03  0.00000000000E+00 0. -1.
         23    2    1    2    0    0  0.39316892417E+02  0.19176334778E+02 -0.84037181954E+02  0.15692012946E+03  0.12509248272E+03 0.  0.
         23    2    1    2    0    0 -0.39316892417E+02 -0.19176334778E+02 -0.10229340092E+03  0.14720365342E+03  0.96392042526E+02 0.  0.
          5    1    3    3  502    0  0.78981076244E+02 -0.14333678241E+02 -0.53045499667E+02  0.96305566670E+02  0.41800000000E+01 0. -1.
         -5    1    3    3    0  502 -0.39664183828E+02  0.33510013019E+02 -0.30991682287E+02  0.60614562790E+02  0.41800000000E+01 0. -1.
        -11    1    4    4    0    0  0.67938638648E+01 -0.42724253582E+02 -0.15145369111E+02  0.45835582639E+02  0.00000000000E+00 0.  1.
         11    1    4    4    0    0 -0.46110756281E+02  0.23547918804E+02 -0.87148031809E+02  0.10136807078E+03  0.00000000000E+00 0. -1.
</event>
<event>
 8    1  0.5951278E-006  0.8134691E+02  0.7561462E-02  0.1325272E+00
         -1   -1    0    0    0  501 -0.00000000000E+00  0.00000000000E+00  0.12238105631E+03  0.12238105631E+03  0.00000000000E+00 0.  1.
          1   -1    0    0  501    0  0.00000000000E+00 -0.00000000000E+00 -0.13118855479E+03  0.13118855479E+03  0.00000000000E+00 0. -1.
         23    2    1    2    0    0 -0.43988873048E+01 -0.66580124867E+02 -0.37424338725E+01  0.14182179321E+03  0.12508857655E+03 0.  0.
         23    2    1    2    0    0  0.43988873048E+01  0.66580124867E+02 -0.50650646130E+01  0.11174781789E+03  0.89496685334E+02 0.  0.
          5    1    3    3  502    0  0.93965810995E+01 -0.11678249397E+02  0.56763668236E+02  0.58857995862E+02  0.41800000000E+01 0.  1.
         -5    1    3    3    0  502 -0.13795468404E+02 -0.54901875470E+02 -0.60506102108E+02  0.82963797351E+02  0.41800000000E+01 0.  1.
        -11    1    4    4    0    0  0.21623785900E+02  0.69600539184E+02 -0.32028932245E+02  0.79609519985E+02  0.00000000000E+00 0. -1.
         11    1    4    4    0    0 -0.17224898595E+02 -0.30204143174E+01  0.26963867632E+02  0.32138297901E+02  0.00000000000E+00 0.  1.
</event>
<event>
 8    1  0.5951278E-006  0.8987537E+02  0.7561462E-02  0.1303154E+00
         -2   -1    0    0    0  501 -0.00000000000E+00  0.00000000000E+00  0.33401422204E+02  0.33401422204E+02  0.00000000000E+00 0.  1.
          2   -1    0    0  501    0  0.00000000000E+00 -0.00000000000E+00 -0.59789551007E+03  0.59789551007E+03  0.00000000000E+00 0. -1.
         23    2    1    2    0    0 -0.76365055345E+00  0.47462089653E+02 -0.13698827043E+03  0.19148484782E+03  0.12508967821E+03 0.  0.
         23    2    1    2    0    0  0.76365055345E+00 -0.47462089653E+02 -0.42750581744E+03  0.43981208445E+03  0.91761716240E+02 0.  0.
          5    1    3    3  502    0 -0.17027552978E+01  0.61750438110E+02 -0.89242693159E+01  0.62555023501E+02  0.41800000000E+01 0. -1.
         -5    1    3    3    0  502  0.93910474432E+00 -0.14288348458E+02 -0.12806400111E+03  0.12892982432E+03  0.41800000000E+01 0. -1.
        -11    1    4    4    0    0 -0.10020056538E+02 -0.73790402506E+02 -0.29142801657E+03  0.30079181151E+03  0.00000000000E+00 0. -1.
         11    1    4    4    0    0  0.10783707091E+02  0.26328312853E+02 -0.13607780088E+03  0.13902027294E+03  0.00000000000E+00 0.  1.
</event>
<event>
 8    1  0.5951278E-006  0.1888367E+03  0.7561462E-02  0.1159515E+00
         -3   -1    0    0    0  501 -0.00000000000E+00  0.00000000000E+00  0.73565874666E+03  0.73565874666E+03  0.00000000000E+00 0.  1.
          3   -1    0    0  501    0  0.00000000000E+00 -0.00000000000E+00 -0.57951893308E+02  0.57951893308E+02  0.00000000000E+00 0. -1.
         23    2    1    2    0    0  0.14380984968E+03  0.88262409300E+02  0.44954241784E+03  0.49619302694E+03  0.12509040246E+03 0.  0.
         23    2    1    2    0    0 -0.14380984968E+03 -0.88262409300E+02  0.22816443552E+03  0.29741761303E+03  0.89032023144E+02 0.  0.
          5    1    3    3  502    0  0.11802848575E+03  0.35934283385E+01  0.29915590653E+03  0.32164478076E+03  0.41800000000E+01 0. -1.
         -5    1    3    3    0  502  0.25781363935E+02  0.84668980961E+02  0.15038651131E+03  0.17454824618E+03  0.41800000000E+01 0. -1.
        -11    1    4    4    0    0 -0.26801480513E+02 -0.49062483260E+01  0.10407475372E+03  0.10758227081E+03  0.00000000000E+00 0.  1.
         11    1    4    4    0    0 -0.11700836917E+03 -0.83356160974E+02  0.12408968179E+03  0.18983534222E+03  0.00000000000E+00 0. -1.
</event>
<event>
 8    1  0.5951278E-006  0.1119538E+03  0.7561462E-02  0.1256994E+00
          1   -1    0    0  501    0  0.00000000000E+00  0.00000000000E+00  0.55241603815E+03  0.55241603815E+03  0.00000000000E+00 0. -1.
         -1   -1    0    0    0  501 -0.00000000000E+00 -0.00000000000E+00 -0.31777964547E+02  0.31777964547E+02  0.00000000000E+00 0.  1.
         23    2    1    2    0    0  0.36821897295E+02 -0.65349817583E+02  0.29315781191E+03  0.32743515154E+03  0.12508327227E+03 0.  0.
         23    2    1    2    0    0 -0.36821897295E+02  0.65349817583E+02  0.22748026170E+03  0.25675885116E+03  0.92473711986E+02 0.  0.
          5    1    3    3  502    0 -0.38618466567E+02 -0.46273101740E+02  0.78412270559E+02  0.98987587499E+02  0.41800000000E+01 0.  1.
         -5    1    3    3    0  502  0.75440363862E+02 -0.19076715842E+02  0.21474554135E+03  0.22844756404E+03  0.41800000000E+01 0.  1.
        -11    1    4    4    0    0  0.14007679611E+01  0.39264101542E+02  0.19820611644E+02  0.44005550408E+02  0.00000000000E+00 0.  1.
         11    1    4    4    0    0 -0.38222665256E+02  0.26085716041E+02  0.20765965005E+03  0.21275330075E+03  0.00000000000E+00 0. -1.
</event>
<event>
 8    1  0.6358855E-006  0.1579040E+03  0.7561462E-02  0.1191084E+00
         -2   -1    0    0    0  501 -0.00000000000E+00  0.00000000000E+00  0.10433238040E+03  0.10433238040E+03  0.00000000000E+00 0.  1.
          2   -1    0    0  501    0  0.00000000000E+00 -0.00000000000E+00 -0.35052840465E+03  0.35052840465E+03  0.00000000000E+00 0. -1.
         23    2    1    2    0    0 -0.45873813723E+02 -0.14949058152E+03 -0.15447063978E+03  0.25290446318E+03  0.12509055996E+03 0.  0.
         23    2    1    2    0    0  0.45873813723E+02  0.14949058152E+03 -0.91725384474E+02  0.20195632187E+03  0.88999826063E+02 0.  0.
          5    1    3    3  502    0 -0.27835290170E+02 -0.11212464466E+03 -0.26902016034E+02  0.11869258690E+03  0.41800000000E+01 0.  1.
         -5    1    3    3    0  502 -0.18038523553E+02 -0.37365936863E+02 -0.12756862374E+03  0.13421187628E+03  0.41800000000E+01 0.  1.
        -11    1    4    4    0    0  0.12660635047E+02  0.13472836886E+02  0.16664842808E+02  0.24890279214E+02  0.00000000000E+00 0.  1.
         11    1    4    4    0    0  0.33213178675E+02  0.13601774463E+03 -0.10839022728E+03  0.17706604266E+03  0.00000000000E+00 0. -1.
</event>
<event>
 8    1  0.5951278E-006  0.9605060E+02  0.7561462E-02  0.1288827E+00
         -2   -1    0    0    0  501 -0.00000000000E+00  0.00000000000E+00  0.23828090786E+02  0.23828090786E+02  0.00000000000E+00 0.  1.
          2   -1    0    0  501    0  0.00000000000E+00 -0.00000000000E+00 -0.55424408598E+03  0.55424408598E+03  0.00000000000E+00 0. -1.
         23    2    1    2    0    0 -0.30736328441E+02  0.26038496316E+02 -0.30806037220E+03  0.33492209575E+03  0.12509553202E+03 0.  0.
         23    2    1    2    0    0  0.30736328441E+02 -0.26038496316E+02 -0.22235562300E+03  0.24315008101E+03  0.89761983266E+02 0.  0.
          5    1    3    3  502    0 -0.28773536580E+02 -0.32884856891E+02 -0.36749218053E+02  0.57247774171E+02  0.41800000000E+01 0.  1.
         -5    1    3    3    0  502 -0.19627918612E+01  0.58923353207E+02 -0.27131115414E+03  0.27767432158E+03  0.41800000000E+01 0.  1.
        -11    1    4    4    0    0 -0.22463473401E+02 -0.27961620760E+02 -0.42657759088E+02  0.55732793607E+02  0.00000000000E+00 0.  1.
         11    1    4    4    0    0  0.53199801843E+02  0.19231244441E+01 -0.17969786391E+03  0.18741728740E+03  0.00000000000E+00 0. -1.
</event>
<event>
 8    1  0.5951278E-006  0.5197542E+02  0.7561462E-02  0.1434969E+00
          2   -1    0    0  501    0  0.00000000000E+00  0.00000000000E+00  0.53183725166E+02  0.53183725166E+02  0.00000000000E+00 0. -1.
         -2   -1    0    0    0  501 -0.00000000000E+00 -0.00000000000E+00 -0.22882759764E+03  0.22882759764E+03  0.00000000000E+00 0.  1.
         23    2    1    2    0    0  0.65399155533E+01 -0.41979088943E+01 -0.15150138379E+03  0.19670645951E+03  0.12522128009E+03 0.  0.
         23    2    1    2    0    0 -0.65399155533E+01  0.41979088943E+01 -0.24142488681E+02  0.85304863294E+02  0.81447326582E+02 0.  0.
          5    1    3    3  502    0  0.21386124857E+02 -0.17801672173E+02  0.12949501735E+02  0.30974632584E+02  0.41800000000E+01 0. -1.
         -5    1    3    3    0  502 -0.14846209303E+02  0.13603763279E+02 -0.16445088553E+03  0.16573182693E+03  0.41800000000E+01 0. -1.
        -11    1    4    4    0    0 -0.78857257311E+01 -0.24899743724E+02  0.19667172952E+02  0.32695253474E+02  0.00000000000E+00 0. -1.
         11    1    4    4    0    0  0.13458101778E+01  0.29097652618E+02 -0.43809661633E+02  0.52609609819E+02  0.00000000000E+00 0.  1.
</event>
<event>
 8    1  0.5951278E-006  0.1582491E+03  0.7561462E-02  0.1190688E+00
          3   -1    0    0  501    0  0.00000000000E+00  0.00000000000E+00  0.57540461981E+03  0.57540461981E+03  0.00000000000E+00 0. -1.
         -3   -1    0    0    0  501 -0.00000000000E+00 -0.00000000000E+00 -0.83306875120E+02  0.83306875120E+02  0.00000000000E+00 0.  1.
         23    2    1    2    0    0 -0.14204867715E+03  0.67034676526E+02  0.94982223502E+02  0.22212290326E+03  0.12508192049E+03 0.  0.
         23    2    1    2    0    0  0.14204867715E+03 -0.67034676526E+02  0.39711552118E+03  0.43658859166E+03  0.90760049948E+02 0.  0.
          5    1    3    3  502    0 -0.93157521400E+02  0.56959182679E+02  0.12316137483E+03  0.16464771160E+03  0.41800000000E+01 0.  1.
         -5    1    3    3    0  502 -0.48891155754E+02  0.10075493847E+02 -0.28179151328E+02  0.57475191664E+02  0.41800000000E+01 0.  1.
        -11    1    4    4    0    0  0.11033770622E+03 -0.54090898686E+02  0.37776631259E+03  0.39725007446E+03  0.00000000000E+00 0. -1.
         11    1    4    4    0    0  0.31710970931E+02 -0.12943777840E+02  0.19349208597E+02  0.39338517200E+02  0.00000000000E+00 0.  1.
</event>
<event>
 8    1  0.5951278E-006  0.6706378E+02  0.7561462E-02  0.1370372E+00
          3   -1    0    0  501    0  0.00000000000E+00  0.00000000000E+00  0.11903961405E+03  0.11903961405E+03  0.00000000000E+00 0. -1.
         -3   -1    0    0    0  501 -0.00000000000E+00 -0.00000000000E+00 -0.10539975955E+03  0.10539975955E+03  0.00000000000E+00 0.  1.
         23    2    1    2    0    0  0.89793215838E+01 -0.73356766319E+01 -0.14058739715E+02  0.12640925818E+03  0.12508881654E+03 0.  0.
         23    2    1    2    0    0 -0.89793215838E+01  0.73356766319E+01  0.27698594217E+02  0.98030115428E+02  0.93318010274E+02 0.  0.
          5    1    3    3  502    0  0.26930624390E+02  0.10816207818E+00  0.51302553715E+02  0.58092122071E+02  0.41800000000E+01 0. -1.
         -5    1    3    3    0  502 -0.17951302806E+02 -0.74438387101E+01 -0.65361293430E+02  0.68317136108E+02  0.41800000000E+01 0. -1.
        -11    1    4    4    0    0 -0.40604899903E+02  0.27905787132E+02  0.33888428899E+02  0.59798967088E+02  0.00000000000E+00 0. -1.
         11    1    4    4    0    0  0.31625578319E+02 -0.20570110501E+02 -0.61898346821E+01  0.38231148340E+02  0.00000000000E+00 0.  1.
</event>
<event>
 8    1  0.5951278E-006  0.8805028E+02  0.7561462E-02  0.1307643E+00
         -4   -1    0    0    0  501 -0.00000000000E+00  0.00000000000E+00  0.43923379583E+03  0.43923379583E+03  0.00000000000E+00 0.  1.
          4   -1    0    0  501    0  0.00000000000E+00 -0.00000000000E+00 -0.47933100334E+02  0.47933100334E+02  0.00000000000E+00 0. -1.
         23    2    1    2    0    0 -0.38725535304E+02  0.43925227328E+02  0.34308915856E+03  0.36984434400E+03  0.12508227446E+03 0.  0.
         23    2    1    2    0    0  0.38725535304E+02 -0.43925227328E+02  0.48211536934E+02  0.11732255217E+03  0.89504951107E+02 0.  0.
          5    1    3    3  502    0 -0.53235308479E+02  0.65644859171E+02  0.32932861363E+03  0.34002654861E+03  0.41800000000E+01 0. -1.
         -5    1    3    3    0  502  0.14509773175E+02 -0.21719631843E+02  0.13760544933E+02  0.29817795388E+02  0.41800000000E+01 0. -1.
        -11    1    4    4    0    0 -0.78064942629E+00 -0.17455073872E+02  0.64679215938E+02  0.66997686466E+02  0.00000000000E+00 0.  1.
         11    1    4    4    0    0  0.39506184730E+02 -0.26470153456E+02 -0.16467679004E+02  0.50324865700E+02  0.00000000000E+00 0. -1.
</event>
<event>
 7    1  0.5951278E-006  0.1375772E+03  0.7561462E-02  0.1216627E+00
          2   -1    0    0  501    0  0.00000000000E+00  0.00000000000E+00  0.11627414693E+03  0.11627414693E+03  0.00000000000E+00 0. -1.
         -2   -1    0    0    0  501 -0.00000000000E+00 -0.00000000000E+00 -0.32938283713E+03  0.32938283713E+03  0.00000000000E+00 0.  1.
         23    2    1    2    0    0 -0.39467668964E+02  0.11283874757E+03  0.17753813781E+02  0.15133355771E+03  0.91084400085E+02 0.  0.
          5    1    1    2  502    0 -0.74363413799E+01 -0.72766619151E+02 -0.21994247907E+02  0.76495093808E+02  0.41800000000E+01 0. -1.
         -5    1    1    2    0  502  0.46904010343E+02 -0.40072128415E+02 -0.20886825607E+03  0.21782833254E+03  0.41800000000E+01 0.  1.
        -11    1    3    3    0    0 -0.39524436084E+02  0.12335923652E+03  0.32184668974E+02  0.13347484857E+03  0.00000000000E+00 0. -1.
         11    1    3    3    0    0  0.56767120144E-01 -0.10520488959E+02 -0.14430855193E+02  0.17858709137E+02  0.00000000000E+00 0.  1.
</event>
<event>
 8    1  0.5951278E-006  0.9558720E+02  0.7561462E-02  0.1289859E+00
          4   -1    0    0  501    0  0.00000000000E+00  0.00000000000E+00  0.94006755718E+02  0.94006755718E+02  0.00000000000E+00 0. -1.
         -4   -1    0    0    0  501 -0.00000000000E+00 -0.00000000000E+00 -0.16998384936E+03  0.16998384936E+03  0.00000000000E+00 0.  1.
         23    2    1    2    0    0 -0.37067118940E+02  0.52123203045E+02 -0.56758499335E+02  0.15153059965E+03  0.12509674569E+03 0.  0.
         23    2    1    2    0    0  0.37067118940E+02 -0.52123203045E+02 -0.19218594305E+02  0.11246000543E+03  0.90482588664E+02 0.  0.
          5    1    3    3  502    0 -0.41577444786E+02 -0.24736738141E+02  0.99552794979E+01  0.49569850904E+02  0.41800000000E+01 0.  1.
         -5    1    3    3    0  502  0.45103258456E+01  0.76859941187E+02 -0.66713778833E+02  0.10196074874E+03  0.41800000000E+01 0.  1.
        -11    1    4    4    0    0  0.28263638506E+02 -0.27811400575E+02  0.34681188114E+02  0.52679142671E+02  0.00000000000E+00 0. -1.
         11    1    4    4    0    0  0.88034804346E+01 -0.24311802470E+02 -0.53899782419E+02  0.59780862756E+02  0.00000000000E+00 0.  1.
</event>
<event>
 8    1  0.5951278E-006  0.2385258E+03  0.7561462E-02  0.1120779E+00
         -1   -1    0    0    0  501 -0.00000000000E+00  0.00000000000E+00  0.30626467920E+03  0.30626467920E+03  0.00000000000E+00 0.  1.
          1   -1    0    0  501    0  0.00000000000E+00 -0.00000000000E+00 -0.51028939602E+03  0.51028939602E+03  0.00000000000E+00 0. -1.
         23    2    1    2    0    0 -0.23046011485E+03  0.54808319344E+02  0.20319876872E+03  0.33623422199E+03  0.12509155054E+03 0.  0.
         23    2    1    2    0    0  0.23046011485E+03 -0.54808319344E+02 -0.40722348554E+03  0.48031985324E+03  0.93596890062E+02 0.  0.
          5    1    3    3  502    0 -0.19778897659E+03  0.48370931880E+02  0.21906625028E+03  0.29911155231E+03  0.41800000000E+01 0. -1.
         -5    1    3    3    0  502 -0.32671138265E+02  0.64373874637E+01 -0.15867481564E+02  0.37122669678E+02  0.41800000000E+01 0. -1.
        -11    1    4    4    0    0  0.48247334358E+02  0.38699073251E+01 -0.16287940573E+03  0.16991904622E+03  0.00000000000E+00 0.  1.
         11    1    4    4    0    0  0.18221278050E+03 -0.58678226669E+02 -0.24434407981E+03  0.31040080702E+03  0.00000000000E+00 0. -1.
</event>
<event>
 8    1  0.5951278E-006  0.9016976E+02  0.7561462E-02  0.1302441E+00
          1   -1    0    0  501    0  0.00000000000E+00  0.00000000000E+00  0.17699835347E+03  0.17699835347E+03  0.00000000000E+00 0.  1.
         -1   -1    0    0    0  501 -0.00000000000E+00 -0.00000000000E+00 -0.70579329783E+02  0.70579329783E+02  0.00000000000E+00 0. -1.
         23    2    1    2    0    0  0.15355279552E+02  0.26918580916E+02  0.49325976853E+02  0.13798659441E+03  0.12508738400E+03 0.  0.
         23    2    1    2    0    0 -0.15355279552E+02 -0.26918580916E+02  0.57093046835E+02  0.10959108884E+03  0.88262087826E+02 0.  0.
          5    1    3    3  502    0 -0.27132280721E+02  0.47773845471E+02 -0.15846079117E+02  0.57332988686E+02  0.41800000000E+01 0.  1.
         -5    1    3    3    0  502  0.42487560274E+02 -0.20855264555E+02  0.65172055970E+02  0.80653605729E+02  0.41800000000E+01 0.  1.
        -11    1    4    4    0    0  0.23415580513E+02 -0.30878859916E+02  0.58980733192E+02  0.70572801335E+02  0.00000000000E+00 0.  1.
         11    1    4    4    0    0 -0.38770860065E+02  0.39602790003E+01 -0.18876863563E+01  0.39018287504E+02  0.00000000000E+00 0. -1.
</event>
<event>
 8    1  0.5951278E-006  0.1456589E+03  0.7561462E-02  0.1205911E+00
         -1   -1    0    0    0  501 -0.00000000000E+00  0.00000000000E+00  0.13369513929E+03  0.13369513929E+03  0.00000000000E+00 0. -1.
          1   -1    0    0  501    0  0.00000000000E+00 -0.00000000000E+00 -0.18341409793E+03  0.18341409793E+03  0.00000000000E+00 0.  1.
         23    2    1    2    0    0 -0.10445400106E+03 -0.39028733355E+02 -0.17786437854E+02  0.16851746589E+03  0.12509156076E+03 0.  0.
         23    2    1    2    0    0  0.10445400106E+03  0.39028733355E+02 -0.31932520791E+02  0.14859177133E+03  0.92875983226E+02 0.  0.
          5    1    3    3  502    0  0.14121370754E+02 -0.33591168052E+02  0.22581015859E+02  0.43071502879E+02  0.41800000000E+01 0. -1.
         -5    1    3    3    0  502 -0.11857537181E+03 -0.54375653032E+01 -0.40367453714E+02  0.12544596301E+03  0.41800000000E+01 0. -1.
        -11    1    4    4    0    0  0.42475646970E+02  0.57230563248E+02 -0.42731709291E+02  0.83099440035E+02  0.00000000000E+00 0.  1.
         11    1    4    4    0    0  0.61978354086E+02 -0.18201829893E+02  0.10799188500E+02  0.65492331299E+02  0.00000000000E+00 0. -1.
</event>
<event>
 8    1  0.5951278E-006  0.1847750E+03  0.7561462E-02  0.1163260E+00
         -2   -1    0    0    0  501 -0.00000000000E+00  0.00000000000E+00  0.86241435938E+02  0.86241435938E+02  0.00000000000E+00 0.  1.
          2   -1    0    0  501    0  0.00000000000E+00 -0.00000000000E+00 -0.46905661896E+03  0.46905661896E+03  0.00000000000E+00 0. -1.
         23    2    1    2    0    0  0.49228389426E+02 -0.16034558114E+03 -0.17370958041E+03  0.27195168006E+03  0.12509419749E+03 0.  0.
         23    2    1    2    0    0 -0.49228389426E+02  0.16034558114E+03 -0.20910560262E+03  0.28334637484E+03  0.91792567075E+02 0.  0.
          5    1    3    3  502    0  0.81224579901E+01  0.16744773605E+02  0.18807489769E+01  0.19166934642E+02  0.41800000000E+01 0. -1.
         -5    1    3    3    0  502  0.41105931436E+02 -0.17709035475E+03 -0.17559032938E+03  0.25278474542E+03  0.41800000000E+01 0. -1.
        -11    1    4    4    0    0 -0.51534417529E+01  0.42494055775E+02 -0.12467958121E+03  0.13182299006E+03  0.00000000000E+00 0.  1.
         11    1    4    4    0    0 -0.44074947673E+02  0.11785152537E+03 -0.84426021413E+02  0.15152338478E+03  0.00000000000E+00 0. -1.
</event>
<event>
 8    1  0.5951278E-006  0.9640393E+02  0.7561462E-02  0.1288045E+00
          2   -1    0    0  501    0  0.00000000000E+00  0.00000000000E+00  0.39552964772E+03  0.39552964772E+03  0.00000000000E+00 0. -1.
         -2   -1    0    0    0  501 -0.00000000000E+00 -0.00000000000E+00 -0.41577144098E+02  0.41577144098E+02  0.00000000000E+00 0.  1.
         23    2    1    2    0    0  0.20134192206E+02 -0.43428234944E+02  0.11413024610E+03  0.17596740325E+03  0.12508963444E+03 0.  0.
         23    2    1    2    0    0 -0.20134192206E+02  0.43428234944E+02  0.23982225751E+03  0.26113938856E+03  0.91584211383E+02 0.  0.
          5    1    3    3  502    0 -0.50190137749E+02 -0.37936660519E+02  0.58866336132E+02  0.86260988101E+02  0.41800000000E+01 0. -1.
         -5    1    3    3    0  502  0.70324329955E+02 -0.54915744254E+01  0.55263909971E+02  0.89706415147E+02  0.41800000000E+01 0. -1.
        -11    1    4    4    0    0 -0.75884728041E+01  0.45714546578E+02  0.24349767489E+03  0.24786795348E+03  0.00000000000E+00 0. -1.
         11    1    4    4    0    0 -0.12545719402E+02 -0.22863116340E+01 -0.36754173750E+01  0.13271435080E+02  0.00000000000E+00 0.  1.
</event>
<event>
 8    1  0.5951278E-006  0.1140865E+03  0.7561462E-02  0.1253184E+00
         -3   -1    0    0    0  501 -0.00000000000E+00  0.00000000000E+00  0.73974235956E+02  0.73974235956E+02  0.00000000000E+00 0.  1.
          3   -1    0    0  501    0  0.00000000000E+00 -0.00000000000E+00 -0.23368934164E+03  0.23368934164E+03  0.00000000000E+00 0. -1.
         23    2    1    2    0    0 -0.58158375048E+02  0.42210201199E+02 -0.73439755184E+02  0.16186046270E+03  0.12506523926E+03 0.  0.
         23    2    1    2    0    0  0.58158375048E+02 -0.42210201199E+02 -0.86275350500E+02  0.14580311490E+03  0.93010830207E+02 0.  0.
          5    1    3    3  502    0 -0.60867465643E+02  0.83060244002E+02 -0.51026583338E+02  0.11500016137E+03  0.41800000000E+01 0. -1.
         -5    1    3    3    0  502  0.27090905947E+01 -0.40850042803E+02 -0.22413171846E+02  0.46860301333E+02  0.41800000000E+01 0. -1.
        -11    1    4    4    0    0  0.53244549875E+02 -0.51103034101E+02 -0.10271408146E+03  0.12647800092E+03  0.00000000000E+00 0. -1.
         11    1    4    4    0    0  0.49138251726E+01  0.88928329014E+01  0.16438730958E+02  0.19325113980E+02  0.00000000000E+00 0.  1.
</event>
<event>
 8    1  0.5951278E-006  0.9020656E+02  0.7561462E-02  0.1302352E+00
          3   -1    0    0  501    0  0.00000000000E+00  0.00000000000E+00  0.43117317007E+02  0.43117317007E+02  0.00000000000E+00 0. -1.
         -3   -1    0    0    0  501 -0.00000000000E+00 -0.00000000000E+00 -0.28870045941E+03  0.28870045941E+03  0.00000000000E+00 0.  1.
         23    2    1    2    0    0 -0.13939363161E+02 -0.86182845896E+01 -0.17313417564E+03  0.21422370314E+03  0.12509105300E+03 0.  0.
         23    2    1    2    0    0  0.13939363161E+02  0.86182845896E+01 -0.72448966771E+02  0.11759407328E+03  0.91164316535E+02 0.  0.
          5    1    3    3  502    0  0.35664848376E+02 -0.14422795322E+02 -0.52902131965E+01  0.39057101662E+02  0.41800000000E+01 0.  1.
         -5    1    3    3    0  502 -0.49604211537E+02  0.58045107327E+01 -0.16784396244E+03  0.17516660148E+03  0.41800000000E+01 0.  1.
        -11    1    4    4    0    0 -0.43864472506E+01 -0.39689772464E+02 -0.23024689557E+02  0.46093983196E+02  0.00000000000E+00 0. -1.
         11    1    4    4    0    0  0.18325810411E+02  0.48308057054E+02 -0.49424277214E+02  0.71500090082E+02  0.00000000000E+00 0.  1.
</event>
<event>
 8    1  0.5951278E-006  0.9499042E+02  0.7561462E-02  0.1291198E+00
          2   -1    0    0  501    0  0.00000000000E+00  0.00000000000E+00  0.40256489238E+03  0.40256489238E+03  0.00000000000E+00 0. -1.
         -2   -1    0    0    0  501 -0.00000000000E+00 -0.00000000000E+00 -0.30405244577E+02  0.30405244577E+02  0.00000000000E+00 0.  1.
         23    2    1    2    0    0  0.17875858208E+02  0.17093261891E+02  0.23706668662E+03  0.26918425849E+03  0.12509126751E+03 0.  0.
         23    2    1    2    0    0 -0.17875858208E+02 -0.17093261891E+02  0.13509296119E+03  0.16378587846E+03  0.89241133529E+02 0.  0.
          5    1    3    3  502    0 -0.37555783109E+02 -0.12115276108E+02  0.18003249281E+03  0.18435397372E+03  0.41800000000E+01 0. -1.
         -5    1    3    3    0  502  0.55431641316E+02  0.29208537999E+02  0.57034193810E+02  0.84830284773E+02  0.41800000000E+01 0. -1.
        -11    1    4    4    0    0  0.33629901568E+02 -0.13982311102E+01  0.79797425713E+02  0.86605741612E+02  0.00000000000E+00 0. -1.
         11    1    4    4    0    0 -0.51505759775E+02 -0.15695030781E+02  0.55295535472E+02  0.77180136851E+02  0.00000000000E+00 0.  1.
</event>
<event>
 8    1  0.5951278E-006  0.1760742E+03  0.7561462E-02  0.1171657E+00
         -1   -1    0    0    0  501 -0.00000000000E+00  0.00000000000E+00  0.21187332662E+03  0.21187332662E+03  0.00000000000E+00 0.  1.
          1   -1    0    0  501    0  0.00000000000E+00 -0.00000000000E+00 -0.15764794411E+03  0.15764794411E+03  0.00000000000E+00 0. -1.
         23    2    1    2    0    0 -0.14571235417E+03 -0.56055053380E+01  0.23231274229E+02  0.19352063320E+03  0.12508809505E+03 0.  0.
         23    2    1    2    0    0  0.14571235417E+03  0.56055053380E+01  0.30994108281E+02  0.17600063753E+03  0.93552540390E+02 0.  0.
          5    1    3    3  502    0  0.15955923789E+02  0.72422757209E+01  0.25562209527E+02  0.31272048501E+02  0.41800000000E+01 0.  1.
         -5    1    3    3    0  502 -0.16166827796E+03 -0.12847781059E+02 -0.23309352976E+01  0.16224858470E+03  0.41800000000E+01 0.  1.
        -11    1    4    4    0    0  0.90721222328E+02 -0.41247548363E+02  0.71122981739E+01  0.99911386798E+02  0.00000000000E+00 0.  1.
         11    1    4    4    0    0  0.54991131846E+02  0.46853053701E+02  0.23881810107E+02  0.76089250730E+02  0.00000000000E+00 0. -1.
</event>
<event>
 8    1  0.5951278E-006  0.1301336E+03  0.7561462E-02  0.1227258E+00
          3   -1    0    0  501    0  0.00000000000E+00  0.00000000000E+00  0.39479086026E+02  0.39479086026E+02  0.00000000000E+00 0. -1.
         -3   -1    0    0    0  501 -0.00000000000E+00 -0.00000000000E+00 -0.60805601820E+03  0.60805601820E+03  0.00000000000E+00 0.  1.
         23    2    1    2    0    0 -0.78752411770E+02 -0.73192673140E+02 -0.33849855955E+03  0.37745913702E+03  0.12780851124E+03 0.  0.
         23    2    1    2    0    0  0.78752411770E+02  0.73192673140E+02 -0.23007837263E+03  0.27007596721E+03  0.91901364242E+02 0.  0.
          5    1    3    3  502    0 -0.17759096330E+02 -0.86992037288E+02 -0.27166388520E+03  0.28583516050E+03  0.41800000000E+01 0. -1.
         -5    1    3    3    0  502 -0.60993315439E+02  0.13799364148E+02 -0.66834674342E+02  0.91623976521E+02  0.41800000000E+01 0.  1.
        -11    1    4    4    0    0  0.16230600771E+02  0.24831243952E+02 -0.16512585184E+03  0.16776939537E+03  0.00000000000E+00 0.  1.
         11    1    4    4    0    0  0.62521810998E+02  0.48361429188E+02 -0.64952520792E+02  0.10230657184E+03  0.00000000000E+00 0. -1.
</event>
<event>
 8    1  0.5951278E-006  0.7765539E+02  0.7561462E-02  0.1335840E+00
         -1   -1    0    0    0  501 -0.00000000000E+00  0.00000000000E+00  0.29608119355E+02  0.29608119355E+02  0.00000000000E+00 0.  1.
          1   -1    0    0  501    0  0.00000000000E+00 -0.00000000000E+00 -0.50113080367E+03  0.50113080367E+03  0.00000000000E+00 0. -1.
         23    2    1    2    0    0 -0.48652732363E+02  0.28403964514E+02 -0.25853919725E+03  0.29268345918E+03  0.12508883723E+03 0.  0.
         23    2    1    2    0    0  0.48652732363E+02 -0.28403964514E+02 -0.21298348707E+03  0.23805546384E+03  0.90191820773E+02 0.  0.
          5    1    3    3  502    0 -0.96584005232E+01  0.13353851855E+02  0.10764368948E+02  0.20123471343E+02  0.41800000000E+01 0.  1.
         -5    1    3    3    0  502 -0.38994331840E+02  0.15050112659E+02 -0.26930356620E+03  0.27255998784E+03  0.41800000000E+01 0.  1.
        -11    1    4    4    0    0  0.70000006815E+02 -0.26581368698E+02 -0.11132244760E+03  0.13416131133E+03  0.00000000000E+00 0.  1.
         11    1    4    4    0    0 -0.21347274452E+02 -0.18225958164E+01 -0.10166103946E+03  0.10389415252E+03  0.00000000000E+00 0. -1.
</event>
<event>
 8    1  0.5951278E-006  0.1118749E+03  0.7561462E-02  0.1257137E+00
         -2   -1    0    0    0  501 -0.00000000000E+00  0.00000000000E+00  0.78222442529E+02  0.78222442529E+02  0.00000000000E+00 0. -1.
          2   -1    0    0  501    0  0.00000000000E+00 -0.00000000000E+00 -0.18995253181E+03  0.18995253181E+03  0.00000000000E+00 0.  1.
         23    2    1    2    0    0 -0.92649448189E+01  0.38956619875E+02 -0.22575506288E+02  0.13327180389E+03  0.12509301657E+03 0.  0.
         23    2    1    2    0    0  0.92649448189E+01 -0.38956619875E+02 -0.89154582996E+02  0.13490317045E+03  0.92988538503E+02 0.  0.
          5    1    3    3  502    0 -0.52524047648E+02  0.55770434151E+02  0.86012442560E+01  0.77204732430E+02  0.41800000000E+01 0.  1.
         -5    1    3    3    0  502  0.43259102829E+02 -0.16813814276E+02 -0.31176750544E+02  0.56067071464E+02  0.41800000000E+01 0.  1.
        -11    1    4    4    0    0 -0.29651238207E+02 -0.51595662639E+02 -0.61107628909E+02  0.85296252211E+02  0.00000000000E+00 0.  1.
         11    1    4    4    0    0  0.38916183026E+02  0.12639042764E+02 -0.28046954087E+02  0.49606918236E+02  0.00000000000E+00 0. -1.
</event>
<event>
 8    1  0.5951278E-006  0.8746367E+02  0.7561462E-02  0.1309113E+00
          2   -1    0    0  501    0  0.00000000000E+00  0.00000000000E+00  0.12518001329E+03  0.12518001329E+03  0.00000000000E+00 0. -1.
         -2   -1    0    0    0  501 -0.00000000000E+00 -0.00000000000E+00 -0.13209200217E+03  0.13209200217E+03  0.00000000000E+00 0.  1.
         23    2    1    2    0    0  0.48881155035E+02  0.27296943875E+02 -0.44162864566E+02  0.14398670617E+03  0.12508925806E+03 0.  0.
         23    2    1    2    0    0 -0.48881155035E+02 -0.27296943875E+02  0.37250875687E+02  0.11328530930E+03  0.91167116341E+02 0.  0.
          5    1    3    3  502    0 -0.27636719311E+02 -0.14540337310E+02 -0.47056133588E+02  0.56630043013E+02  0.41800000000E+01 0.  1.
         -5    1    3    3    0  502  0.76517874346E+02  0.41837281185E+02  0.28932690229E+01  0.87356663152E+02  0.41800000000E+01 0.  1.
        -11    1    4    4    0    0 -0.17280373761E+02 -0.76227268515E+01  0.64464205786E+02  0.67174035978E+02  0.00000000000E+00 0. -1.
         11    1    4    4    0    0 -0.31600781274E+02 -0.19674217024E+02 -0.27213330098E+02  0.46111273325E+02  0.00000000000E+00 0.  1.
</event>
<event>
 8    1  0.5951278E-006  0.1353172E+03  0.7561462E-02  0.1219773E+00
         -3   -1    0    0    0  501 -0.00000000000E+00  0.00000000000E+00  0.11098685896E+03  0.11098685896E+03  0.00000000000E+00 0.  1.
          3   -1    0    0  501    0  0.00000000000E+00 -0.00000000000E+00 -0.18001335875E+03  0.18001335875E+03  0.00000000000E+00 0. -1.
         23    2    1    2    0    0 -0.83005116859E+02  0.42815972996E+02 -0.43926530320E+02  0.16217354232E+03  0.12509061033E+03 0.  0.
         23    2    1    2    0    0  0.83005116859E+02 -0.42815972996E+02 -0.25099969470E+02  0.12882667540E+03  0.85107266781E+02 0.  0.
          5    1    3    3  502    0  0.19489325407E+02 -0.23111563601E+02  0.47333022740E+01  0.30884538645E+02  0.41800000000E+01 0. -1.
         -5    1    3    3    0  502 -0.10249444227E+03  0.65927536597E+02 -0.48659832594E+02  0.13128900367E+03  0.41800000000E+01 0. -1.
        -11    1    4    4    0    0 -0.70296998645E+01 -0.25551651739E+02  0.13038518800E+02  0.29534836368E+02  0.00000000000E+00 0.  1.
         11    1    4    4    0    0  0.90034816723E+02 -0.17264321257E+02 -0.38138488271E+02  0.99291839032E+02  0.00000000000E+00 0. -1.
</event>
<event>
 8    1  0.5951278E-006  0.1014367E+03  0.7561462E-02  0.1277303E+00
          2   -1    0    0  501    0  0.00000000000E+00  0.00000000000E+00  0.39411530655E+02  0.39411530655E+02  0.00000000000E+00 0. -1.
         -2   -1    0    0    0  501 -0.00000000000E+00 -0.00000000000E+00 -0.59149572453E+03  0.59149572453E+03  0.00000000000E+00 0.  1.
         23    2    1    2    0    0 -0.56659602962E+02 -0.24252052093E+02 -0.47838591286E+03  0.49829581017E+03  0.12508860929E+03 0.  0.
         23    2    1    2    0    0  0.56659602962E+02  0.24252052093E+02 -0.73698281015E+02  0.13261144501E+03  0.91410535964E+02 0.  0.
          5    1    3    3  502    0 -0.76891612543E+02 -0.28455078655E+02 -0.16591231715E+03  0.18511180666E+03  0.41800000000E+01 0. -1.
         -5    1    3    3    0  502  0.20232009582E+02  0.42030265613E+01 -0.31247359570E+03  0.31318400351E+03  0.41800000000E+01 0. -1.
        -11    1    4    4    0    0 -0.19161900286E+02  0.12728781879E+02 -0.45343957887E+02  0.50845597917E+02  0.00000000000E+00 0.  1.
         11    1    4    4    0    0  0.75821503248E+02  0.11523270214E+02 -0.28354323129E+02  0.81765847095E+02  0.00000000000E+00 0. -1.
</event>
<event>
 8    1  0.5951278E-006  0.1779104E+03  0.7561462E-02  0.1169841E+00
         -1   -1    0    0    0  501 -0.00000000000E+00  0.00000000000E+00  0.12564266766E+03  0.12564266766E+03  0.00000000000E+00 0.  1.
          1   -1    0    0  501    0  0.00000000000E+00 -0.00000000000E+00 -0.29519245354E+03  0.29519245354E+03  0.00000000000E+00 0. -1.
         23    2    1    2    0    0 -0.28614240603E+02 -0.15371839172E+03 -0.55874902647E+02  0.20788849405E+03  0.12508997760E+03 0.  0.
         23    2    1    2    0    0  0.28614240603E+02  0.15371839172E+03 -0.11367488323E+03  0.21294662716E+03  0.89309396050E+02 0.  0.
          5    1    3    3  502    0 -0.19608313341E+02  0.23206980765E+01  0.24777963494E+02  0.31957651142E+02  0.41800000000E+01 0. -1.
         -5    1    3    3    0  502 -0.90059272623E+01 -0.15603908979E+03 -0.80652866140E+02  0.17593084291E+03  0.41800000000E+01 0. -1.
        -11    1    4    4    0    0  0.60435579477E+02  0.99446949816E+02 -0.64159521337E+02  0.13288566240E+03  0.00000000000E+00 0.  1.
         11    1    4    4    0    0 -0.31821338874E+02  0.54271441901E+02 -0.49515361894E+02  0.80060964753E+02  0.00000000000E+00 0. -1.
</event>
<event>
 8    1  0.5951278E-006  0.7967547E+02  0.7561462E-02  0.1329975E+00
          2   -1    0    0  501    0  0.00000000000E+00  0.00000000000E+00  0.23370906737E+03  0.23370906737E+03  0.00000000000E+00 0. -1.
         -2   -1    0    0    0  501 -0.00000000000E+00 -0.00000000000E+00 -0.66127483082E+02  0.66127483082E+02  0.00000000000E+00 0.  1.
         23    2    1    2    0    0 -0.39193072843E+02 -0.24296742796E+02  0.44034652794E+02  0.14040724883E+03  0.12509482886E+03 0.  0.
         23    2    1    2    0    0  0.39193072843E+02  0.24296742796E+02  0.12354693149E+03  0.15942930162E+03  0.89595922149E+02 0.  0.
          5    1    3    3  502    0  0.23113523487E+02 -0.38941895830E+02 -0.20083416214E+02  0.49714406621E+02  0.41800000000E+01 0.  1.
         -5    1    3    3    0  502 -0.62306596331E+02  0.14645153034E+02  0.64118069008E+02  0.90692842204E+02  0.41800000000E+01 0.  1.
        -11    1    4    4    0    0  0.16640496542E+02  0.79718406964E-01 -0.11603307929E+02  0.20286676294E+02  0.00000000000E+00 0.  1.
         11    1    4    4    0    0  0.22552576302E+02  0.24217024389E+02  0.13515023942E+03  0.13914262533E+03  0.00000000000E+00 0. -1.
</event>
<event>
 8    1  0.5951278E-006  0.1156577E+03  0.7561462E-02  0.1250437E+00
          1   -1    0    0  501    0  0.00000000000E+00  0.00000000000E+00  0.29479645044E+03  0.29479645044E+03  0.00000000000E+00 0. -1.
         -1   -1    0    0    0  501 -0.00000000000E+00 -0.00000000000E+00 -0.58509347365E+02  0.58509347365E+02  0.00000000000E+00 0.  1.
         23    2    1    2    0    0  0.73840801535E+02 -0.14201783692E+01  0.13941516896E+03  0.20134104330E+03  0.12508855065E+03 0.  0.
         23    2    1    2    0    0 -0.73840801535E+02  0.14201783692E+01  0.96871934119E+02  0.15196475451E+03  0.90855017004E+02 0.  0.
          5    1    3    3  502    0 -0.13991248267E+02  0.35448333685E+02  0.83063157184E+01  0.39227626360E+02  0.41800000000E+01 0.  1.
         -5    1    3    3    0  502  0.87832049802E+02 -0.36868512054E+02  0.13110885324E+03  0.16211341694E+03  0.41800000000E+01 0.  1.
        -11    1    4    4    0    0 -0.58488137237E+02  0.29590300433E+02  0.19784818183E+02  0.68468146664E+02  0.00000000000E+00 0.  1.
         11    1    4    4    0    0 -0.15352664299E+02 -0.28170122063E+02  0.77087115936E+02  0.83496607844E+02  0.00000000000E+00 0. -1.
</event>
<event>
 8    1  0.5951278E-006  0.1120602E+03  0.7561462E-02  0.1256802E+00
         -1   -1    0    0    0  501 -0.00000000000E+00  0.00000000000E+00  0.11265120552E+04  0.11265120552E+04  0.00000000000E+00 0.  1.
          1   -1    0    0  501    0  0.00000000000E+00 -0.00000000000E+00 -0.14148379802E+02  0.14148379802E+02  0.00000000000E+00 0. -1.
         23    2    1    2    0    0  0.57463445095E+02  0.19406612919E+02  0.70101391479E+03  0.71466549110E+03  0.12509033251E+03 0.  0.
         23    2    1    2    0    0 -0.57463445095E+02 -0.19406612919E+02  0.41134976065E+03  0.42599494395E+03  0.92652050895E+02 0.  0.
          5    1    3    3  502    0  0.88544210217E+01  0.63299775750E+02  0.21805051620E+03  0.22726364073E+03  0.41800000000E+01 0. -1.
         -5    1    3    3    0  502  0.48609024073E+02 -0.43893162831E+02  0.48296339859E+03  0.48740185037E+03  0.41800000000E+01 0. -1.
        -11    1    4    4    0    0 -0.74286125300E+02 -0.94302513495E+01  0.38965677524E+03  0.39678679482E+03  0.00000000000E+00 0.  1.
         11    1    4    4    0    0  0.16822680206E+02 -0.99763615690E+01  0.21692985407E+02  0.29208149126E+02  0.00000000000E+00 0. -1.
</event>
<event>
 7    1  0.5951278E-006  0.1027136E+03  0.7561462E-02  0.1274691E+00
         -2   -1    0    0    0  501 -0.00000000000E+00  0.00000000000E+00  0.14246336234E+03  0.14246336234E+03  0.00000000000E+00 0.  1.
          2   -1    0    0  501    0  0.00000000000E+00 -0.00000000000E+00 -0.11834396894E+03  0.11834396894E+03  0.00000000000E+00 0. -1.
         23    2    1    2    0    0 -0.28901363610E+02  0.26117432364E+02  0.84141732031E+01  0.10065044445E+03  0.92424588531E+02 0.  0.
          5    1    1    2  502    0 -0.24231749155E+02 -0.50804580759E+02 -0.47574647405E+02  0.73818036880E+02  0.41800000000E+01 0. -1.
         -5    1    1    2    0  502  0.53133112765E+02  0.24687148395E+02  0.63279867594E+02  0.86338849950E+02  0.41800000000E+01 0.  1.
        -11    1    3    3    0    0 -0.28624588776E+01 -0.29077945976E+02  0.23830510089E+02  0.37704294505E+02  0.00000000000E+00 0.  1.
         11    1    3    3    0    0 -0.26038904732E+02  0.55195378340E+02 -0.15416336886E+02  0.62946149944E+02  0.00000000000E+00 0. -1.
</event>
<event>
 8    1  0.5951278E-006  0.1135914E+03  0.7561462E-02  0.1254060E+00
          1   -1    0    0  501    0  0.00000000000E+00  0.00000000000E+00  0.12836449732E+03  0.12836449732E+03  0.00000000000E+00 0. -1.
         -1   -1    0    0    0  501 -0.00000000000E+00 -0.00000000000E+00 -0.11446314101E+03  0.11446314101E+03  0.00000000000E+00 0.  1.
         23    2    1    2    0    0  0.22420297555E+01  0.54135725037E+02 -0.28697062138E+02  0.13930832208E+03  0.12509030259E+03 0.  0.
         23    2    1    2    0    0 -0.22420297555E+01 -0.54135725037E+02  0.42598418452E+02  0.10351931625E+03  0.77239369235E+02 0.  0.
          5    1    3    3  502    0 -0.87836569198E+01 -0.38686931124E+02 -0.21865400219E+02  0.45490651736E+02  0.41800000000E+01 0.  1.
         -5    1    3    3    0  502  0.11025686675E+02  0.92822656161E+02 -0.68316619193E+01  0.93817670340E+02  0.41800000000E+01 0.  1.
        -11    1    4    4    0    0  0.36865246269E+02 -0.31807716063E+02  0.28064674026E+02  0.56199671812E+02  0.00000000000E+00 0. -1.
         11    1    4    4    0    0 -0.39107276025E+02 -0.22328008975E+02  0.14533744426E+02  0.47319644440E+02  0.00000000000E+00 0.  1.
</event>
<event>
 8    1  0.5951278E-006  0.1128952E+03  0.7561462E-02  0.1255300E+00
          3   -1    0    0  501    0  0.00000000000E+00  0.00000000000E+00  0.30010756932E+02  0.30010756932E+02  0.00000000000E+00 0. -1.
         -3   -1    0    0    0  501 -0.00000000000E+00 -0.00000000000E+00 -0.57648558295E+03  0.57648558295E+03  0.00000000000E+00 0.  1.
         23    2    1    2    0    0  0.72181397500E+02 -0.13269798228E+02 -0.31716604057E+03  0.34875387591E+03  0.12509487192E+03 0.  0.
         23    2    1    2    0    0 -0.72181397500E+02  0.13269798228E+02 -0.22930878545E+03  0.25774246397E+03  0.91991396125E+02 0.  0.
          5    1    3    3  502    0  0.96490437841E+01 -0.58596447444E+02 -0.82983845595E+02  0.10212951938E+03  0.41800000000E+01 0.  1.
         -5    1    3    3    0  502  0.62532353716E+02  0.45326649216E+02 -0.23418219497E+03  0.24662435653E+03  0.41800000000E+01 0.  1.
        -11    1    4    4    0    0 -0.31587807165E+02  0.31323705643E+02 -0.19912034034E+03  0.20402910095E+03  0.00000000000E+00 0.  1.
         11    1    4    4    0    0 -0.40593590334E+02 -0.18053907416E+02 -0.30188445105E+02  0.53713363022E+02  0.00000000000E+00 0. -1.
</event>
<event>
 8    1  0.5951278E-006  0.9431914E+02  0.7561462E-02  0.1292717E+00
         -2   -1    0    0    0  501 -0.00000000000E+00  0.00000000000E+00  0.18715583802E+03  0.18715583802E+03  0.00000000000E+00 0.  1.
          2   -1    0    0  501    0  0.00000000000E+00 -0.00000000000E+00 -0.77551991345E+02  0.77551991345E+02  0.00000000000E+00 0. -1.
         23    2    1    2    0    0  0.31407718833E+02  0.41968368604E+02  0.84374640906E+02  0.15973352837E+03  0.12509169154E+03 0.  0.
         23    2    1    2    0    0 -0.31407718833E+02 -0.41968368604E+02  0.25229205772E+02  0.10497430100E+03  0.87380216755E+02 0.  0.
          5    1    3    3  502    0  0.75203923366E+02  0.83251119075E+00  0.49527692718E+02  0.90148698884E+02  0.41800000000E+01 0. -1.
         -5    1    3    3    0  502 -0.43796204533E+02  0.41135857414E+02  0.34846948188E+02  0.69584829487E+02  0.41800000000E+01 0. -1.
        -11    1    4    4    0    0 -0.10393511680E+02 -0.20816116458E+02 -0.32517667696E+02  0.39984178144E+02  0.00000000000E+00 0. -1.
         11    1    4    4    0    0 -0.21014207153E+02 -0.21152252146E+02  0.57746873468E+02  0.64990122853E+02  0.00000000000E+00 0.  1.
</event>
<event>
 8    1  0.5951278E-006  0.1025891E+03  0.7561462E-02  0.1274944E+00
         -1   -1    0    0    0  501 -0.00000000000E+00  0.00000000000E+00  0.34271622562E+02  0.34271622562E+02  0.00000000000E+00 0.  1.
          1   -1    0    0  501    0  0.00000000000E+00 -0.00000000000E+00 -0.35340689940E+03  0.35340689940E+03  0.00000000000E+00 0. -1.
         23    2    1    2    0    0  0.23642858566E+01 -0.18421852223E+02 -0.17190951769E+03  0.21343092571E+03  0.12511963591E+03 0.  0.
         23    2    1    2    0    0 -0.23642858566E+01  0.18421852223E+02 -0.14722575915E+03  0.17424759625E+03  0.91333707663E+02 0.  0.
          5    1    3    3  502    0 -0.18798322181E+00  0.53748555604E+02 -0.66916469681E+02  0.85931536014E+02  0.41800000000E+01 0. -1.
         -5    1    3    3    0  502  0.25522690785E+01 -0.72170407826E+02 -0.10499304801E+03  0.12749938970E+03  0.41800000000E+01 0. -1.
        -11    1    4    4    0    0  0.17204845794E+02  0.43698845953E+02 -0.12937290115E+03  0.13763336590E+03  0.00000000000E+00 0. -1.
         11    1    4    4    0    0 -0.19569131650E+02 -0.25276993731E+02 -0.17852857998E+02  0.36614230353E+02  0.00000000000E+00 0.  1.
</event>
<event>
 8    1  0.5951278E-006  0.1128266E+03  0.7561462E-02  0.1255423E+00
          2   -1    0    0  501    0  0.00000000000E+00  0.00000000000E+00  0.32674366782E+02  0.32674366782E+02  0.00000000000E+00 0. -1.
         -2   -1    0    0    0  501 -0.00000000000E+00 -0.00000000000E+00 -0.48744437404E+03  0.48744437404E+03  0.00000000000E+00 0.  1.
         23    2    1    2    0    0 -0.32598634204E+02 -0.55339435110E+02 -0.26643652626E+03  0.30126354791E+03  0.12508468628E+03 0.  0.
         23    2    1    2    0    0  0.32598634204E+02  0.55339435110E+02 -0.18833348099E+03  0.21885519291E+03  0.91120641843E+02 0.  0.
          5    1    3    3  502    0  0.31386148818E+02 -0.50332985383E+02 -0.57753480348E+02  0.82894129150E+02  0.41800000000E+01 0.  1.
         -5    1    3    3    0  502 -0.63984783023E+02 -0.50064497271E+01 -0.20868304591E+03  0.21836941876E+03  0.41800000000E+01 0.  1.
        -11    1    4    4    0    0  0.57822676918E+02  0.26640853231E+02 -0.15708504687E+03  0.16949604413E+03  0.00000000000E+00 0.  1.
         11    1    4    4    0    0 -0.25224042714E+02  0.28698581879E+02 -0.31248434124E+02  0.49359148776E+02  0.00000000000E+00 0. -1.
</event>
<event>
 8    1  0.5951278E-006  0.8360107E+02  0.7561462E-02  0.1319132E+00
         -2   -1    0    0    0  501 -0.00000000000E+00  0.00000000000E+00  0.36793561765E+03  0.36793561765E+03  0.00000000000E+00 0.  1.
          2   -1    0    0  501    0  0.00000000000E+00 -0.00000000000E+00 -0.37909962638E+02  0.37909962638E+02  0.00000000000E+00 0. -1.
         23    2    1    2    0    0  0.14167680894E+02  0.29474357060E+02  0.25999694925E+03  0.28794845101E+03  0.11935843461E+03 0.  0.
         23    2    1    2    0    0 -0.14167680894E+02 -0.29474357060E+02  0.70028705760E+02  0.11789712928E+03  0.89029503853E+02 0.  0.
          5    1    3    3  502    0 -0.27716148862E+02 -0.12362261302E+02  0.11920686306E+02  0.32872261471E+02  0.41800000000E+01 0. -1.
         -5    1    3    3    0  502  0.41883829756E+02  0.41836618362E+02  0.24807626294E+03  0.25507618953E+03  0.41800000000E+01 0.  1.
        -11    1    4    4    0    0 -0.70528088231E+01  0.23107438611E+02  0.58926722568E+02  0.63687160905E+02  0.00000000000E+00 0.  1.
         11    1    4    4    0    0 -0.71148720710E+01 -0.52581795671E+02  0.11101983192E+02  0.54209968376E+02  0.00000000000E+00 0. -1.
</event>
<event>
 8    1  0.5951278E-006  0.1574843E+03  0.7561462E-02  0.1191567E+00
         -1   -1    0    0    0  501 -0.00000000000E+00  0.00000000000E+00  0.12057435488E+03  0.12057435488E+03  0.00000000000E+00 0.  1.
          1   -1    0    0  501    0  0.00000000000E+00 -0.00000000000E+00 -0.26285562527E+03  0.26285562527E+03  0.00000000000E+00 0. -1.
         23    2    1    2    0    0 -0.13958145988E+03  0.17290711148E+02 -0.76176266063E+02  0.20279462627E+03  0.12466308315E+03 0.  0.
         23    2    1    2    0    0  0.13958145988E+03 -0.17290711148E+02 -0.66105004330E+02  0.18063535388E+03  0.92072291379E+02 0.  0.
          5    1    3    3  502    0 -0.59370638346E+02  0.55292162983E+02  0.64040741819E+01  0.81489757338E+02  0.41800000000E+01 0.  1.
         -5    1    3    3    0  502 -0.80210821530E+02 -0.38001451834E+02 -0.82580340245E+02  0.12130486893E+03  0.41800000000E+01 0.  1.
        -11    1    4    4    0    0  0.72596716348E+02  0.85086158831E+01 -0.79084971193E+02  0.10768989013E+03  0.00000000000E+00 0. -1.
         11    1    4    4    0    0  0.66984743528E+02 -0.25799327031E+02  0.12979966863E+02  0.72945463742E+02  0.00000000000E+00 0.  1.
</event>
<event>
 8    1  0.5951278E-006  0.1052463E+03  0.7561462E-02  0.1269635E+00
         -3   -1    0    0    0  501 -0.00000000000E+00  0.00000000000E+00  0.40236949710E+02  0.40236949710E+02  0.00000000000E+00 0.  1.
          3   -1    0    0  501    0  0.00000000000E+00 -0.00000000000E+00 -0.42528713500E+03  0.42528713500E+03  0.00000000000E+00 0. -1.
         23    2    1    2    0    0  0.24231346907E+02 -0.40295077519E+02 -0.11602548858E+03  0.17697697416E+03  0.12509230167E+03 0.  0.
         23    2    1    2    0    0 -0.24231346907E+02  0.40295077519E+02 -0.26902469671E+03  0.28854711055E+03  0.93135901361E+02 0.  0.
          5    1    3    3  502    0  0.70314039699E+02 -0.55920712064E+01 -0.87553386232E+02  0.11250956973E+03  0.41800000000E+01 0.  1.
         -5    1    3    3    0  502 -0.46082692793E+02 -0.34703006312E+02 -0.28472102348E+02  0.64467404432E+02  0.41800000000E+01 0.  1.
        -11    1    4    4    0    0  0.23244495586E+02  0.18719153510E+02 -0.24762074496E+02  0.38779809393E+02  0.00000000000E+00 0.  1.
         11    1    4    4    0    0 -0.47475842493E+02  0.21575924008E+02 -0.24426262221E+03  0.24976730116E+03  0.00000000000E+00 0. -1.
</event>
<event>
 8    1  0.5951278E-006  0.2811649E+03  0.7561462E-02  0.1095054E+00
          1   -1    0    0  501    0  0.00000000000E+00  0.00000000000E+00  0.48626477122E+03  0.48626477122E+03  0.00000000000E+00 0. -1.
         -1   -1    0    0    0  501 -0.00000000000E+00 -0.00000000000E+00 -0.52826500485E+03  0.52826500485E+03  0.00000000000E+00 0.  1.
         23    2    1    2    0    0 -0.25669241169E+03 -0.55888748967E+02 -0.44103338095E+03  0.52834463812E+03  0.12499226789E+03 0.  0.
         23    2    1    2    0    0  0.25669241169E+03  0.55888748967E+02  0.39903314732E+03  0.48618513796E+03  0.90188631367E+02 0.  0.
          5    1    3    3  502    0 -0.53080649034E+02 -0.67411739707E+02 -0.11092278577E+03  0.14029695205E+03  0.41800000000E+01 0. -1.
         -5    1    3    3    0  502 -0.20361176266E+03  0.11522990740E+02 -0.33011059518E+03  0.38804768607E+03  0.41800000000E+01 0.  1.
        -11    1    4    4    0    0  0.19489181638E+03  0.94109718413E+01  0.23966856067E+03  0.30905081371E+03  0.00000000000E+00 0. -1.
         11    1    4    4    0    0  0.61800595317E+02  0.46477777126E+02  0.15936458665E+03  0.17713432425E+03  0.00000000000E+00 0.  1.
</event>
<event>
 8    1  0.5951278E-006  0.2061675E+03  0.7561462E-02  0.1144637E+00
         -1   -1    0    0    0  501 -0.00000000000E+00  0.00000000000E+00  0.75077163082E+02  0.75077163082E+02  0.00000000000E+00 0.  1.
          1   -1    0    0  501    0  0.00000000000E+00 -0.00000000000E+00 -0.62167064952E+03  0.62167064952E+03  0.00000000000E+00 0. -1.
         23    2    1    2    0    0  0.18210553284E+03 -0.16888187671E+02 -0.34187023505E+03  0.40739560564E+03  0.12509310894E+03 0.  0.
         23    2    1    2    0    0 -0.18210553284E+03  0.16888187671E+02 -0.20472325139E+03  0.28935220697E+03  0.91462856092E+02 0.  0.
          5    1    3    3  502    0  0.11985102838E+03  0.46689025170E+02 -0.16398935431E+03  0.20845650578E+03  0.41800000000E+01 0.  1.
         -5    1    3    3    0  502  0.62254504456E+02 -0.63577212841E+02 -0.17788088074E+03  0.19893909985E+03  0.41800000000E+01 0.  1.
        -11    1    4    4    0    0 -0.47714984413E+02 -0.24906180103E+02 -0.20671710540E+02  0.57657238587E+02  0.00000000000E+00 0.  1.
         11    1    4    4    0    0 -0.13439054843E+03  0.41794367775E+02 -0.18405154085E+03  0.23169496838E+03  0.00000000000E+00 0. -1.
</event>
<event>
 8    1  0.5951278E-006  0.8165991E+02  0.7561462E-02  0.1324406E+00
          4   -1    0    0  501    0  0.00000000000E+00  0.00000000000E+00  0.68092038113E+02  0.68092038113E+02  0.00000000000E+00 0. -1.
         -4   -1    0    0    0  501 -0.00000000000E+00 -0.00000000000E+00 -0.29824654583E+03  0.29824654583E+03  0.00000000000E+00 0.  1.
         23    2    1    2    0    0 -0.18522529360E+02 -0.31186971179E+02 -0.23503794392E+03  0.26871435399E+03  0.12509539437E+03 0.  0.
         23    2    1    2    0    0  0.18522529360E+02  0.31186971179E+02  0.48834362023E+01  0.97624229952E+02  0.90503762681E+02 0.  0.
          5    1    3    3  502    0  0.66225669713E+01  0.31895899210E+02 -0.11099435207E+02  0.34668092558E+02  0.41800000000E+01 0. -1.
         -5    1    3    3    0  502 -0.25145096332E+02 -0.63082870389E+02 -0.22393850871E+03  0.23404626143E+03  0.41800000000E+01 0. -1.
        -11    1    4    4    0    0  0.68197022009E+01  0.44323483941E+02 -0.33117632715E+02  0.55748158386E+02  0.00000000000E+00 0.  1.
         11    1    4    4    0    0  0.11702827159E+02 -0.13136512761E+02  0.38001068917E+02  0.41876071567E+02  0.00000000000E+00 0. -1.
</event>
<event>
 8    1  0.5951278E-006  0.9620365E+02  0.7561462E-02  0.1288488E+00
         -2   -1    0    0    0  501 -0.00000000000E+00  0.00000000000E+00  0.52746837868E+02  0.52746837868E+02  0.00000000000E+00 0.  1.
          2   -1    0    0  501    0  0.00000000000E+00 -0.00000000000E+00 -0.29905521612E+03  0.29905521612E+03  0.00000000000E+00 0. -1.
         23    2    1    2    0    0 -0.22303271731E+02  0.51257986597E+02 -0.11350694741E+03  0.17792066954E+03  0.12508845038E+03 0.  0.
         23    2    1    2    0    0  0.22303271731E+02 -0.51257986597E+02 -0.13280143084E+03  0.17388138445E+03  0.97332927137E+02 0.  0.
          5    1    3    3  502    0  0.38318278408E+02  0.63689704909E+02 -0.54012969094E+02  0.91975769646E+02  0.41800000000E+01 0.  1.
         -5    1    3    3    0  502 -0.60621550139E+02 -0.12431718312E+02 -0.59493978316E+02  0.85944899891E+02  0.41800000000E+01 0.  1.
        -11    1    4    4    0    0  0.66545154659E+01 -0.17723538901E+02  0.13319237776E+02  0.23147537713E+02  0.00000000000E+00 0.  1.
         11    1    4    4    0    0  0.15648756265E+02 -0.33534447696E+02 -0.14612066862E+03  0.15073384674E+03  0.00000000000E+00 0. -1.
</event>
<event>
 8    1  0.5951278E-006  0.9852912E+02  0.7561462E-02  0.1283420E+00
          1   -1    0    0  501    0  0.00000000000E+00  0.00000000000E+00  0.27311860959E+03  0.27311860959E+03  0.00000000000E+00 0. -1.
         -1   -1    0    0    0  501 -0.00000000000E+00 -0.00000000000E+00 -0.46616571103E+02  0.46616571103E+02  0.00000000000E+00 0.  1.
         23    2    1    2    0    0 -0.14877403654E+02  0.15620621464E+02  0.99543987515E+02  0.16132403668E+03  0.12510435007E+03 0.  0.
         23    2    1    2    0    0  0.14877403654E+02 -0.15620621464E+02  0.12695805097E+03  0.15841114401E+03  0.92251844891E+02 0.  0.
          5    1    3    3  502    0  0.94218030898E+01 -0.52293163714E+02  0.30610505841E+02  0.61463979797E+02  0.41800000000E+01 0.  1.
         -5    1    3    3    0  502 -0.24299206744E+02  0.67913785178E+02  0.68933481673E+02  0.99860056885E+02  0.41800000000E+01 0.  1.
        -11    1    4    4    0    0 -0.27303087231E+02 -0.93736228054E+01  0.51082067599E+01  0.29315817457E+02  0.00000000000E+00 0.  1.
         11    1    4    4    0    0  0.42180490885E+02 -0.62469986584E+01  0.12184984421E+03  0.12909532655E+03  0.00000000000E+00 0. -1.
</event>
<event>
 8    1  0.5951278E-006  0.1495231E+03  0.7561462E-02  0.1201060E+00
          2   -1    0    0  501    0  0.00000000000E+00  0.00000000000E+00  0.59474266797E+03  0.59474266797E+03  0.00000000000E+00 0. -1.
         -2   -1    0    0    0  501 -0.00000000000E+00 -0.00000000000E+00 -0.64227043039E+02  0.64227043039E+02  0.00000000000E+00 0.  1.
         23    2    1    2    0    0 -0.13730074434E+03  0.24703982310E+02  0.13085621159E+03  0.22854483874E+03  0.12509042355E+03 0.  0.
         23    2    1    2    0    0  0.13730074434E+03 -0.24703982310E+02  0.39965941334E+03  0.43042487228E+03  0.77949617447E+02 0.  0.
          5    1    3    3  502    0 -0.11683756904E+03  0.47124063389E+01  0.15265309075E+03  0.19233736721E+03  0.41800000000E+01 0.  1.
         -5    1    3    3    0  502 -0.20463175299E+02  0.19991575971E+02 -0.21796879156E+02  0.36207471523E+02  0.41800000000E+01 0.  1.
        -11    1    4    4    0    0  0.11977923273E+03  0.36064056167E+01  0.35527837883E+03  0.37494372540E+03  0.00000000000E+00 0.  1.
         11    1    4    4    0    0  0.17521511612E+02 -0.28310387927E+02  0.44381034512E+02  0.55481146871E+02  0.00000000000E+00 0. -1.
</event>
<event>
 8    1  0.5951278E-006  0.1060706E+03  0.7561462E-02  0.1268025E+00
         -2   -1    0    0    0  501 -0.00000000000E+00  0.00000000000E+00  0.51321094514E+03  0.51321094514E+03  0.00000000000E+00 0.  1.
          2   -1    0    0  501    0  0.00000000000E+00 -0.00000000000E+00 -0.46498742374E+02  0.46498742374E+02  0.00000000000E+00 0. -1.
         23    2    1    2    0    0  0.24727395929E+02 -0.56886693690E+02  0.41440561002E+03  0.43729542359E+03  0.12509091835E+03 0.  0.
         23    2    1    2    0    0 -0.24727395929E+02  0.56886693690E+02  0.52306592751E+02  0.12241426392E+03  0.91660964093E+02 0.  0.
          5    1    3    3  502    0  0.67426245501E+01 -0.90504788005E+02  0.35608950783E+03  0.36749665253E+03  0.41800000000E+01 0.  1.
         -5    1    3    3    0  502  0.17984771378E+02  0.33618094315E+02  0.58316102189E+02  0.69798771060E+02  0.41800000000E+01 0.  1.
        -11    1    4    4    0    0 -0.35325452071E+02  0.12770308425E+02  0.65200008826E+02  0.75246325440E+02  0.00000000000E+00 0.  1.
         11    1    4    4    0    0  0.10598056142E+02  0.44116385265E+02 -0.12893416074E+02  0.47167938485E+02  0.00000000000E+00 0. -1.
</event>
<event>
 8    1  0.5951278E-006  0.1495360E+03  0.7561462E-02  0.1201044E+00
         -1   -1    0    0    0  501 -0.00000000000E+00  0.00000000000E+00  0.57428501384E+02  0.57428501384E+02  0.00000000000E+00 0.  1.
          1   -1    0    0  501    0  0.00000000000E+00 -0.00000000000E+00 -0.65594846674E+03  0.65594846674E+03  0.00000000000E+00 0. -1.
         23    2    1    2    0    0 -0.61306914953E+01 -0.11735056757E+03 -0.11133973731E+03  0.20457867198E+03  0.12508858796E+03 0.  0.
         23    2    1    2    0    0  0.61306914953E+01  0.11735056757E+03 -0.48718022805E+03  0.50879829614E+03  0.87877132798E+02 0.  0.
          5    1    3    3  502    0 -0.27304932337E+02  0.57941162578E+01  0.10397357133E+02  0.30078373434E+02  0.41800000000E+01 0. -1.
         -5    1    3    3    0  502  0.21174240841E+02 -0.12314468383E+03 -0.12173709444E+03  0.17450029855E+03  0.41800000000E+01 0. -1.
        -11    1    4    4    0    0 -0.40182340947E+02  0.51539038213E+02 -0.24676315547E+03  0.25527034274E+03  0.00000000000E+00 0.  1.
         11    1    4    4    0    0  0.46313032443E+02  0.65811529357E+02 -0.24041707258E+03  0.25352795340E+03  0.00000000000E+00 0. -1.
</event>
<event>
 8    1  0.5951278E-006  0.1564862E+03  0.7561462E-02  0.1192722E+00
         -1   -1    0    0    0  501 -0.00000000000E+00  0.00000000000E+00  0.13238309687E+03  0.13238309687E+03  0.00000000000E+00 0.  1.
          1   -1    0    0  501    0  0.00000000000E+00 -0.00000000000E+00 -0.19641795477E+03  0.19641795477E+03  0.00000000000E+00 0. -1.
         23    2    1    2    0    0  0.82426144228E+02 -0.76841923048E+02 -0.25274002171E+02  0.17025051794E+03  0.12509082013E+03 0.  0.
         23    2    1    2    0    0 -0.82426144228E+02  0.76841923048E+02 -0.38760855729E+02  0.15855053370E+03  0.10458067417E+03 0.  0.
          5    1    3    3  502    0 -0.16853181450E+02  0.20774229853E+02  0.54261973666E+01  0.27613662720E+02  0.41800000000E+01 0. -1.
         -5    1    3    3    0  502  0.99279325678E+02 -0.97616152901E+02 -0.30700199538E+02  0.14263685522E+03  0.41800000000E+01 0. -1.
        -11    1    4    4    0    0 -0.78692154124E+02  0.96203137136E+01  0.29830225581E+01  0.79334128723E+02  0.00000000000E+00 0.  1.
         11    1    4    4    0    0 -0.37339901041E+01  0.67221609334E+02 -0.41743878287E+02  0.79216404980E+02  0.00000000000E+00 0. -1.
</event>
<event>
 8    1  0.5951278E-006  0.7714269E+02  0.7561462E-02  0.1337361E+00
         -2   -1    0    0    0  501 -0.00000000000E+00  0.00000000000E+00  0.47310659382E+02  0.47310659382E+02  0.00000000000E+00 0.  1.
          2   -1    0    0  501    0  0.00000000000E+00 -0.00000000000E+00 -0.33296398269E+03  0.33296398269E+03  0.00000000000E+00 0. -1.
         23    2    1    2    0    0  0.54940566532E+02  0.27160235654E+02 -0.16272085945E+03  0.21419908754E+03  0.12508807597E+03 0.  0.
         23    2    1    2    0    0 -0.54940566532E+02 -0.27160235654E+02 -0.12293246386E+03  0.16607555453E+03  0.93341067549E+02 0.  0.
          5    1    3    3  502    0  0.36089288398E+02 -0.15594145339E+02  0.51743095028E+01  0.39873048351E+02  0.41800000000E+01 0.  1.
         -5    1    3    3    0  502  0.18851278133E+02  0.42754380994E+02 -0.16789516895E+03  0.17432603919E+03  0.41800000000E+01 0.  1.
        -11    1    4    4    0    0 -0.34883938843E+02 -0.31852914138E+02 -0.63220989340E+01  0.47659902048E+02  0.00000000000E+00 0.  1.
         11    1    4    4    0    0 -0.20056627689E+02  0.46926784838E+01 -0.11661036492E+03  0.11841565248E+03  0.00000000000E+00 0. -1.
</event>
<event>
 8    1  0.5951278E-006  0.1235509E+03  0.7561462E-02  0.1237352E+00
          1   -1    0    0  501    0  0.00000000000E+00  0.00000000000E+00  0.68459215082E+03  0.68459215082E+03  0.00000000000E+00 0. -1.
         -1   -1    0    0    0  501 -0.00000000000E+00 -0.00000000000E+00 -0.22786964645E+02  0.22786964645E+02  0.00000000000E+00 0.  1.
         23    2    1    2    0    0 -0.35318039423E+02  0.47301461341E+02  0.31854497559E+03  0.34727924113E+03  0.12508867931E+03 0.  0.
         23    2    1    2    0    0  0.35318039423E+02 -0.47301461341E+02  0.34326021058E+03  0.36009987433E+03  0.91430603047E+02 0.  0.
          5    1    3    3  502    0 -0.20164162424E+02 -0.42445024262E+02  0.10533114632E+03  0.11541358809E+03  0.41800000000E+01 0. -1.
         -5    1    3    3    0  502 -0.15153876999E+02  0.89746485603E+02  0.21321382928E+03  0.23186565304E+03  0.41800000000E+01 0. -1.
        -11    1    4    4    0    0  0.62824402851E+02 -0.51181302317E+02  0.25857696779E+03  0.27097689859E+03  0.00000000000E+00 0. -1.
         11    1    4    4    0    0 -0.27506363428E+02  0.38798409764E+01  0.84683242796E+02  0.89122975744E+02  0.00000000000E+00 0.  1.
</event>
<event>
 8    1  0.5951278E-006  0.8419982E+02  0.7561462E-02  0.1317538E+00
          2   -1    0    0  501    0  0.00000000000E+00  0.00000000000E+00  0.49778606150E+03  0.49778606150E+03  0.00000000000E+00 0. -1.
         -2   -1    0    0    0  501 -0.00000000000E+00 -0.00000000000E+00 -0.28168069654E+02  0.28168069654E+02  0.00000000000E+00 0.  1.
         23    2    1    2    0    0 -0.20439281935E+02  0.21230705516E+02  0.18141805594E+03  0.22232215570E+03  0.12508446263E+03 0.  0.
         23    2    1    2    0    0  0.20439281935E+02 -0.21230705516E+02  0.28819993591E+03  0.30363197545E+03  0.90910210423E+02 0.  0.
          5    1    3    3  502    0  0.61778305672E+01  0.39566073504E+02  0.18518810620E+03  0.18951450299E+03  0.41800000000E+01 0.  1.
         -5    1    3    3    0  502 -0.26617112502E+02 -0.18335367988E+02 -0.37700502677E+01  0.32807652708E+02  0.41800000000E+01 0.  1.
        -11    1    4    4    0    0 -0.28672604862E+02 -0.34318918709E+02  0.13809872989E+03  0.14515910460E+03  0.00000000000E+00 0.  1.
         11    1    4    4    0    0  0.49111886798E+02  0.13088213192E+02  0.15010120602E+03  0.15847287086E+03  0.00000000000E+00 0. -1.
</event>
<event>
 8    1  0.5951278E-006  0.1198392E+03  0.7561462E-02  0.1243362E+00
          1   -1    0    0  501    0  0.00000000000E+00  0.00000000000E+00  0.55270255833E+03  0.55270255833E+03  0.00000000000E+00 0. -1.
         -1   -1    0    0    0  501 -0.00000000000E+00 -0.00000000000E+00 -0.30237801189E+02  0.30237801189E+02  0.00000000000E+00 0.  1.
         23    2    1    2    0    0 -0.27496081231E+02 -0.60974085736E+02  0.28953019930E+03  0.32241275650E+03  0.12509346760E+03 0.  0.
         23    2    1    2    0    0  0.27496081231E+02  0.60974085736E+02  0.23293455784E+03  0.26052760301E+03  0.95615114295E+02 0.  0.
          5    1    3    3  502    0 -0.59151687121E+01 -0.98282461021E+02  0.20176376135E+03  0.22454513836E+03  0.41800000000E+01 0. -1.
         -5    1    3    3    0  502 -0.21580912519E+02  0.37308375285E+02  0.87766437948E+02  0.97867618147E+02  0.41800000000E+01 0. -1.
        -11    1    4    4    0    0 -0.17844824741E+02 -0.42950441470E+01  0.48359029654E+01  0.18980809565E+02  0.00000000000E+00 0.  1.
         11    1    4    4    0    0  0.45340905972E+02  0.65269129883E+02  0.22809865487E+03  0.24154679345E+03  0.00000000000E+00 0. -1.
</event>
<event>
 8    1  0.5951278E-006  0.1654538E+03  0.7561462E-02  0.1182673E+00
          2   -1    0    0  501    0  0.00000000000E+00  0.00000000000E+00  0.64073268209E+03  0.64073268209E+03  0.00000000000E+00 0. -1.
         -2   -1    0    0    0  501 -0.00000000000E+00 -0.00000000000E+00 -0.50143251027E+02  0.50143251027E+02  0.00000000000E+00 0.  1.
         23    2    1    2    0    0 -0.14102580533E+03  0.16244646347E+02  0.32758384178E+03  0.37829927413E+03  0.12508797347E+03 0.  0.
         23    2    1    2    0    0  0.14102580533E+03 -0.16244646347E+02  0.26300558928E+03  0.31257665898E+03  0.91542675554E+02 0.  0.
          5    1    3    3  502    0 -0.40563505012E+02  0.65241540468E+02  0.14597859644E+03  0.16501236184E+03  0.41800000000E+01 0. -1.
         -5    1    3    3    0  502 -0.10046230031E+03 -0.48996894121E+02  0.18160524534E+03  0.21328691229E+03  0.41800000000E+01 0. -1.
        -11    1    4    4    0    0  0.11461620909E+03 -0.10539020745E+02  0.11712082349E+03  0.16421094251E+03  0.00000000000E+00 0.  1.
         11    1    4    4    0    0  0.26409596237E+02 -0.57056256024E+01  0.14588476579E+03  0.14836571648E+03  0.00000000000E+00 0. -1.
</event>
<event>
 8    1  0.5951278E-006  0.1209005E+03  0.7561462E-02  0.1241619E+00
         -1   -1    0    0    0  501 -0.00000000000E+00  0.00000000000E+00  0.52609704876E+02  0.52609704876E+02  0.00000000000E+00 0.  1.
          1   -1    0    0  501    0  0.00000000000E+00 -0.00000000000E+00 -0.32019871725E+03  0.32019871725E+03  0.00000000000E+00 0. -1.
         23    2    1    2    0    0 -0.11608210343E+02  0.68655483727E+02 -0.16136534232E+03  0.21572042930E+03  0.12509278127E+03 0.  0.
         23    2    1    2    0    0  0.11608210343E+02 -0.68655483727E+02 -0.10622367006E+03  0.15708799282E+03  0.92438322224E+02 0.  0.
          5    1    3    3  502    0  0.44721350325E+02  0.52657221998E+02 -0.37665690635E+02  0.78796946987E+02  0.41800000000E+01 0. -1.
         -5    1    3    3    0  502 -0.56329560668E+02  0.15998261729E+02 -0.12369965168E+03  0.13692348232E+03  0.41800000000E+01 0. -1.
        -11    1    4    4    0    0  0.37778184647E+02  0.27052920861E+01 -0.49082394038E+02  0.61996703501E+02  0.00000000000E+00 0. -1.
         11    1    4    4    0    0 -0.26169974305E+02 -0.71360775813E+02 -0.57141276019E+02  0.95091289322E+02  0.00000000000E+00 0.  1.
</event>
<event>
 8    1  0.5951278E-006  0.9503002E+02  0.7561462E-02  0.1291108E+00
         -1   -1    0    0    0  501 -0.00000000000E+00  0.00000000000E+00  0.15778104557E+03  0.15778104557E+03  0.00000000000E+00 0.  1.
          1   -1    0    0  501    0  0.00000000000E+00 -0.00000000000E+00 -0.10091578839E+03  0.10091578839E+03  0.00000000000E+00 0. -1.
         23    2    1    2    0    0 -0.20814058747E+01  0.60225743757E+02  0.54854703886E+02  0.14928792989E+03  0.12508547082E+03 0.  0.
         23    2    1    2    0    0  0.20814058747E+01 -0.60225743757E+02  0.20105532990E+01  0.10940890407E+03  0.91295090253E+02 0.  0.
          5    1    3    3  502    0  0.14169528105E+02 -0.25375076772E+02 -0.19015503949E+02  0.34981878713E+02  0.41800000000E+01 0. -1.
         -5    1    3    3    0  502 -0.16250933979E+02  0.85600820528E+02  0.73870207835E+02  0.11430605118E+03  0.41800000000E+01 0. -1.
        -11    1    4    4    0    0  0.22059819200E+02 -0.30049321456E+02 -0.39516758234E+02  0.54324686142E+02  0.00000000000E+00 0. -1.
         11    1    4    4    0    0 -0.19978413325E+02 -0.30176422300E+02  0.41527311533E+02  0.55084217930E+02  0.00000000000E+00 0.  1.
</event>
<event>
 8    1  0.5951278E-006  0.1540601E+03  0.7561462E-02  0.1195571E+00
         -1   -1    0    0    0  501 -0.00000000000E+00  0.00000000000E+00  0.54161297687E+02  0.54161297687E+02  0.00000000000E+00 0.  1.
          1   -1    0    0  501    0  0.00000000000E+00 -0.00000000000E+00 -0.46324971034E+03  0.46324971034E+03  0.00000000000E+00 0. -1.
         23    2    1    2    0    0 -0.15077951016E+02 -0.10908067323E+03 -0.16928936667E+03  0.23755534442E+03  0.12509082347E+03 0.  0.
         23    2    1    2    0    0  0.15077951016E+02  0.10908067323E+03 -0.23979904599E+03  0.27985566361E+03  0.93218410836E+02 0.  0.
          5    1    3    3  502    0 -0.68586530249E+02 -0.65637596452E+02 -0.11819179392E+03  0.15165480127E+03  0.41800000000E+01 0.  1.
         -5    1    3    3    0  502  0.53508579234E+02 -0.43443076781E+02 -0.51097572752E+02  0.85900543147E+02  0.41800000000E+01 0.  1.
        -11    1    4    4    0    0 -0.27199878113E+02  0.15361740568E+00 -0.39308323091E+02  0.47801686497E+02  0.00000000000E+00 0.  1.
         11    1    4    4    0    0  0.42277829129E+02  0.10892705583E+03 -0.20049072290E+03  0.23205397712E+03  0.00000000000E+00 0. -1.
</event>
<event>
 8    1  0.5951278E-006  0.1166329E+03  0.7561462E-02  0.1248757E+00
          1   -1    0    0  501    0  0.00000000000E+00  0.00000000000E+00  0.34979254758E+03  0.34979254758E+03  0.00000000000E+00 0. -1.
         -1   -1    0    0    0  501 -0.00000000000E+00 -0.00000000000E+00 -0.51468487667E+02  0.51468487667E+02  0.00000000000E+00 0.  1.
         23    2    1    2    0    0  0.53442677717E+02 -0.56970604286E+02  0.16839503968E+03  0.22384648411E+03  0.12509432245E+03 0.  0.
         23    2    1    2    0    0 -0.53442677717E+02  0.56970604286E+02  0.12992902024E+03  0.17741455114E+03  0.92155320518E+02 0.  0.
          5    1    3    3  502    0  0.62551712946E+01 -0.77461646613E+02  0.15011664039E+03  0.16909143084E+03  0.41800000000E+01 0. -1.
         -5    1    3    3    0  502  0.47187506422E+02  0.20491042328E+02  0.18278399291E+02  0.54755053271E+02  0.41800000000E+01 0. -1.
        -11    1    4    4    0    0 -0.67307864566E+02  0.30399253709E+02  0.12749924062E+03  0.14734490021E+03  0.00000000000E+00 0. -1.
         11    1    4    4    0    0  0.13865186849E+02  0.26571350576E+02  0.24297796171E+01  0.30069650926E+02  0.00000000000E+00 0.  1.
</event>
<event>
 8    1  0.5951278E-006  0.9529351E+02  0.7561462E-02  0.1290516E+00
          3   -1    0    0  501    0  0.00000000000E+00  0.00000000000E+00  0.25483055674E+03  0.25483055674E+03  0.00000000000E+00 0. -1.
         -3   -1    0    0    0  501 -0.00000000000E+00 -0.00000000000E+00 -0.69786320039E+02  0.69786320039E+02  0.00000000000E+00 0.  1.
         23    2    1    2    0    0  0.43890169672E+02  0.60578106660E+02  0.88833652121E+02  0.17069391246E+03  0.12509572335E+03 0.  0.
         23    2    1    2    0    0 -0.43890169672E+02 -0.60578106660E+02  0.96210584576E+02  0.15392296431E+03  0.94019935963E+02 0.  0.
          5    1    3    3  502    0  0.11647573831E+02 -0.20301214320E+02 -0.20130334565E+02  0.31152978168E+02  0.41800000000E+01 0.  1.
         -5    1    3    3    0  502  0.32242595840E+02  0.80879320980E+02  0.10896398669E+03  0.13954093429E+03  0.41800000000E+01 0.  1.
        -11    1    4    4    0    0 -0.37277159648E+02 -0.28592763917E+02 -0.53084823271E+01  0.47279094369E+02  0.00000000000E+00 0.  1.
         11    1    4    4    0    0 -0.66130100241E+01 -0.31985342743E+02  0.10151906690E+03  0.10664386994E+03  0.00000000000E+00 0. -1.
</event>
<event>
 8    1  0.5951278E-006  0.9730275E+02  0.7561462E-02  0.1286072E+00
          2   -1    0    0  501    0  0.00000000000E+00  0.00000000000E+00  0.17605931644E+03  0.17605931644E+03  0.00000000000E+00 0. -1.
         -2   -1    0    0    0  501 -0.00000000000E+00 -0.00000000000E+00 -0.10579451448E+03  0.10579451448E+03  0.00000000000E+00 0.  1.
         23    2    1    2    0    0  0.24503031434E+02  0.27922862078E+02 -0.37868854668E+02  0.13587176483E+03  0.12508797524E+03 0.  0.
         23    2    1    2    0    0 -0.24503031434E+02 -0.27922862078E+02  0.10813365663E+03  0.14598206609E+03  0.90762278216E+02 0.  0.
          5    1    3    3  502    0  0.50317791135E+02  0.57864311606E+02 -0.53028543183E+02  0.93325545562E+02  0.41800000000E+01 0.  1.
         -5    1    3    3    0  502 -0.25814759701E+02 -0.29941449529E+02  0.15159688515E+02  0.42546219270E+02  0.41800000000E+01 0.  1.
        -11    1    4    4    0    0  0.16647137848E+02  0.12156057205E+02 -0.30488903797E+01  0.20837290079E+02  0.00000000000E+00 0.  1.
         11    1    4    4    0    0 -0.41150169281E+02 -0.40078919283E+02  0.11118254701E+03  0.12514477601E+03  0.00000000000E+00 0. -1.
</event>
<event>
 8    1  0.5951278E-006  0.1082431E+03  0.7561462E-02  0.1263858E+00
         -1   -1    0    0    0  501 -0.00000000000E+00  0.00000000000E+00  0.48280071181E+03  0.48280071181E+03  0.00000000000E+00 0.  1.
          1   -1    0    0  501    0  0.00000000000E+00 -0.00000000000E+00 -0.31670800590E+02  0.31670800590E+02  0.00000000000E+00 0. -1.
         23    2    1    2    0    0  0.54616079376E+02 -0.40456622584E+02  0.24111408740E+03  0.28000536702E+03  0.12508935998E+03 0.  0.
         23    2    1    2    0    0 -0.54616079376E+02  0.40456622584E+02  0.21001582382E+03  0.23446614538E+03  0.79044750853E+02 0.  0.
          5    1    3    3  502    0  0.86118322375E+02 -0.49051829910E+02  0.12648749156E+03  0.16074515665E+03  0.41800000000E+01 0.  1.
         -5    1    3    3    0  502 -0.31502242999E+02  0.85952073266E+01  0.11462659584E+03  0.11926021037E+03  0.41800000000E+01 0.  1.
        -11    1    4    4    0    0 -0.44711848598E+02  0.21068705939E+01  0.17798502718E+03  0.18352726830E+03  0.00000000000E+00 0.  1.
         11    1    4    4    0    0 -0.99042307783E+01  0.38349751990E+02  0.32030796640E+02  0.50938877082E+02  0.00000000000E+00 0. -1.
</event>
<event>
 8    1  0.5951278E-006  0.9124170E+02  0.7561462E-02  0.1299872E+00
          2   -1    0    0  501    0  0.00000000000E+00  0.00000000000E+00  0.19902307546E+03  0.19902307546E+03  0.00000000000E+00 0. -1.
         -2   -1    0    0    0  501 -0.00000000000E+00 -0.00000000000E+00 -0.81645437077E+02  0.81645437077E+02  0.00000000000E+00 0.  1.
         23    2    1    2    0    0  0.35521425007E+02  0.71372298578E+02  0.49311515479E+02  0.15631671344E+03  0.12509001839E+03 0.  0.
         23    2    1    2    0    0 -0.35521425007E+02 -0.71372298578E+02  0.68066122903E+02  0.12435179910E+03  0.66892422694E+02 0.  0.
          5    1    3    3  502    0  0.38760354408E+02  0.64149822474E+02  0.88540431789E+02  0.11607947820E+03  0.41800000000E+01 0.  1.
         -5    1    3    3    0  502 -0.32389294017E+01  0.72224761039E+01 -0.39228916310E+02  0.40237235238E+02  0.41800000000E+01 0.  1.
        -11    1    4    4    0    0 -0.50554329277E+02 -0.43050513798E+02  0.25656676511E+02  0.71185335544E+02  0.00000000000E+00 0. -1.
         11    1    4    4    0    0  0.15032904270E+02 -0.28321784780E+02  0.42409446392E+02  0.53166463557E+02  0.00000000000E+00 0.  1.
</event>
<event>
 8    1  0.5951278E-006  0.1478058E+03  0.7561462E-02  0.1203195E+00
          2   -1    0    0  501    0  0.00000000000E+00  0.00000000000E+00  0.82547381358E+03  0.82547381358E+03  0.00000000000E+00 0.  1.
         -2   -1    0    0    0  501 -0.00000000000E+00 -0.00000000000E+00 -0.37154037718E+02  0.37154037718E+02  0.00000000000E+00 0. -1.
         23    2    1    2    0    0  0.92219723137E+02 -0.52295776181E+02  0.20457734421E+03  0.26218102869E+03  0.12509067312E+03 0.  0.
         23    2    1    2    0    0 -0.92219723137E+02  0.52295776181E+02  0.58374243165E+03  0.60044682261E+03  0.92422046726E+02 0.  0.
          5    1    3    3  502    0  0.79537829638E+02 -0.89960666069E+02  0.17579414960E+03  0.21293248511E+03  0.41800000000E+01 0. -1.
         -5    1    3    3    0  502  0.12681893499E+02  0.37664889888E+02  0.28783194612E+02  0.49248543583E+02  0.41800000000E+01 0. -1.
        -11    1    4    4    0    0 -0.29978210129E+02  0.65353123988E+02  0.38881920341E+03  0.39541130085E+03  0.00000000000E+00 0.  1.
         11    1    4    4    0    0 -0.62241513008E+02 -0.13057347806E+02  0.19492322825E+03  0.20503552176E+03  0.00000000000E+00 0. -1.
</event>
<event>
 8    1  0.5951278E-006  0.1043912E+03  0.7561462E-02  0.1271324E+00
         -1   -1    0    0    0  501 -0.00000000000E+00  0.00000000000E+00  0.35831050490E+02  0.35831050490E+02  0.00000000000E+00 0.  1.
          1   -1    0    0  501    0  0.00000000000E+00 -0.00000000000E+00 -0.56646990223E+03  0.56646990223E+03  0.00000000000E+00 0. -1.
         23    2    1    2    0    0  0.69451504585E+02 -0.39970434371E+02 -0.19362398292E+03  0.24404652738E+03  0.12508922276E+03 0.  0.
         23    2    1    2    0    0 -0.69451504585E+02  0.39970434371E+02 -0.33701486882E+03  0.35825442534E+03  0.91356796992E+02 0.  0.
          5    1    3    3  502    0  0.70886149301E+02  0.15540717437E+02 -0.16738583545E+03  0.18248794583E+03  0.41800000000E+01 0. -1.
         -5    1    3    3    0  502 -0.14346447155E+01 -0.55511151808E+02 -0.26238147464E+02  0.61558581553E+02  0.41800000000E+01 0. -1.
        -11    1    4    4    0    0 -0.18854510096E+02  0.75324269227E+01 -0.50896210240E+01  0.20931656611E+02  0.00000000000E+00 0.  1.
         11    1    4    4    0    0 -0.50596994490E+02  0.32438007448E+02 -0.33192524780E+03  0.33732276873E+03  0.00000000000E+00 0. -1.
</event>
<event>
 8    1  0.6127249E-006  0.1006181E+03  0.7561462E-02  0.1279001E+00
         -2   -1    0    0    0  501 -0.00000000000E+00  0.00000000000E+00  0.11834230961E+03  0.11834230961E+03  0.00000000000E+00 0.  1.
          2   -1    0    0  501    0  0.00000000000E+00 -0.00000000000E+00 -0.12919805785E+03  0.12919805785E+03  0.00000000000E+00 0. -1.
         23    2    1    2    0    0 -0.38502511174E+02  0.24590947327E+02  0.13633627310E+02  0.13386723584E+03  0.12508957982E+03 0.  0.
         23    2    1    2    0    0  0.38502511174E+02 -0.24590947327E+02 -0.24489375553E+02  0.11367313162E+03  0.10116666091E+03 0.  0.
          5    1    3    3  502    0 -0.18130488820E+02 -0.29747796256E+02  0.53040481624E+02  0.63595684585E+02  0.41800000000E+01 0. -1.
         -5    1    3    3    0  502 -0.20372022354E+02  0.54338743583E+02 -0.39406854313E+02  0.70271551256E+02  0.41800000000E+01 0. -1.
        -11    1    4    4    0    0  0.71040491659E+02 -0.81371649001E+01 -0.34752547956E+01  0.71589400777E+02  0.00000000000E+00 0.  1.
         11    1    4    4    0    0 -0.32537980485E+02 -0.16453782427E+02 -0.21014120757E+02  0.42083730840E+02  0.00000000000E+00 0. -1.
</event>
<event>
 8    1  0.5951278E-006  0.1033767E+03  0.7561462E-02  0.1273351E+00
         -2   -1    0    0    0  501 -0.00000000000E+00  0.00000000000E+00  0.57153924828E+02  0.57153924828E+02  0.00000000000E+00 0.  1.
          2   -1    0    0  501    0  0.00000000000E+00 -0.00000000000E+00 -0.23747419145E+03  0.23747419145E+03  0.00000000000E+00 0. -1.
         23    2    1    2    0    0 -0.15064679099E+02  0.18191896667E+02 -0.68927005019E+02  0.14476237488E+03  0.12508926212E+03 0.  0.
         23    2    1    2    0    0  0.15064679099E+02 -0.18191896667E+02 -0.11139326160E+03  0.14986574140E+03  0.97434039501E+02 0.  0.
          5    1    3    3  502    0  0.25275300667E+02  0.50546816498E+02 -0.73353254764E+02  0.92693008725E+02  0.41800000000E+01 0.  1.
         -5    1    3    3    0  502 -0.40339979767E+02 -0.32354919831E+02  0.44262497459E+01  0.52069366154E+02  0.41800000000E+01 0.  1.
        -11    1    4    4    0    0 -0.19149483627E+02  0.32099707483E+02 -0.57600854392E+02  0.68665510778E+02  0.00000000000E+00 0. -1.
         11    1    4    4    0    0  0.34214162727E+02 -0.50291604151E+02 -0.53792407207E+02  0.81200230617E+02  0.00000000000E+00 0.  1.
</event>
<event>
 8    1  0.7560813E-006  0.2568773E+03  0.7561462E-02  0.1109034E+00
         -2   -1    0    0    0  501 -0.00000000000E+00  0.00000000000E+00  0.14057005175E+03  0.14057005175E+03  0.00000000000E+00 0.  1.
          2   -1    0    0  501    0  0.00000000000E+00 -0.00000000000E+00 -0.49345738030E+03  0.49345738030E+03  0.00000000000E+00 0. -1.
         23    2    1    2    0    0 -0.23134548185E+03 -0.49344591357E+02 -0.14570542561E+03  0.30468589902E+03  0.12509118813E+03 0.  0.
         23    2    1    2    0    0  0.23134548185E+03  0.49344591357E+02 -0.20718190295E+03  0.32934153303E+03  0.97907526779E+02 0.  0.
          5    1    3    3  502    0 -0.20225708537E+03  0.31870823835E+01 -0.85809249954E+02  0.21976984746E+03  0.41800000000E+01 0. -1.
         -5    1    3    3    0  502 -0.29088396480E+02 -0.52531673740E+02 -0.59896175651E+02  0.84916051565E+02  0.41800000000E+01 0. -1.
        -11    1    4    4    0    0  0.15533699805E+03 -0.87282751820E+01 -0.96613067671E+02  0.18313888335E+03  0.00000000000E+00 0.  1.
         11    1    4    4    0    0  0.76008483796E+02  0.58072866539E+02 -0.11056883528E+03  0.14620264967E+03  0.00000000000E+00 0. -1.
</event>
<event>
 8    1  0.5951278E-006  0.7493460E+02  0.7561462E-02  0.1344074E+00
         -4   -1    0    0    0  501 -0.00000000000E+00  0.00000000000E+00  0.11685519065E+03  0.11685519065E+03  0.00000000000E+00 0.  1.
          4   -1    0    0  501    0  0.00000000000E+00 -0.00000000000E+00 -0.14421641219E+03  0.14421641219E+03  0.00000000000E+00 0. -1.
         23    2    1    2    0    0 -0.35011176580E+01  0.13360027548E+02  0.55015218268E+02  0.13732887391E+03  0.12506717078E+03 0.  0.
         23    2    1    2    0    0  0.35011176580E+01 -0.13360027548E+02 -0.82376439807E+02  0.12374272894E+03  0.91299709573E+02 0.  0.
          5    1    3    3  502    0 -0.19976498346E+02  0.49050522334E+02  0.75879610190E+02  0.92629379086E+02  0.41800000000E+01 0.  1.
         -5    1    3    3    0  502  0.16475380688E+02 -0.35690494785E+02 -0.20864391922E+02  0.44699494819E+02  0.41800000000E+01 0.  1.
        -11    1    4    4    0    0 -0.19759312654E+02 -0.24454787502E+02  0.57184736794E+01  0.31955719512E+02  0.00000000000E+00 0.  1.
         11    1    4    4    0    0  0.23260430312E+02  0.11094759954E+02 -0.88094913486E+02  0.91787009423E+02  0.00000000000E+00 0. -1.
</event>
<event>
 8    1  0.5951278E-006  0.9468756E+02  0.7561462E-02  0.1291881E+00
         -2   -1    0    0    0  501 -0.00000000000E+00  0.00000000000E+00  0.46375031304E+03  0.46375031304E+03  0.00000000000E+00 0. -1.
          2   -1    0    0  501    0  0.00000000000E+00 -0.00000000000E+00 -0.30958642723E+02  0.30958642723E+02  0.00000000000E+00 0.  1.
         23    2    1    2    0    0  0.17852195786E+02  0.23692507700E+02  0.33291606555E+03  0.35687818451E+03  0.12509554774E+03 0.  0.
         23    2    1    2    0    0 -0.17852195786E+02 -0.23692507700E+02  0.99875604765E+02  0.13783077125E+03  0.90233858725E+02 0.  0.
          5    1    3    3  502    0  0.65483265682E+02 -0.99712202913E+01  0.21891123954E+03  0.22875114538E+03  0.41800000000E+01 0. -1.
         -5    1    3    3    0  502 -0.47631069896E+02  0.33663727991E+02  0.11400482601E+03  0.12812703913E+03  0.41800000000E+01 0. -1.
        -11    1    4    4    0    0  0.18516982505E+02  0.38437843662E+01 -0.81311346057E+01  0.20585642310E+02  0.00000000000E+00 0.  1.
         11    1    4    4    0    0 -0.36369178291E+02 -0.27536292066E+02  0.10800673937E+03  0.11724512894E+03  0.00000000000E+00 0. -1.
</event>
<event>
 8    1  0.5951278E-006  0.8699537E+02  0.7561462E-02  0.1310295E+00
          4   -1    0    0  501    0  0.00000000000E+00  0.00000000000E+00  0.14671481920E+03  0.14671481920E+03  0.00000000000E+00 0.  1.
         -4   -1    0    0    0  501 -0.00000000000E+00 -0.00000000000E+00 -0.10340141124E+03  0.10340141124E+03  0.00000000000E+00 0. -1.
         23    2    1    2    0    0  0.57867416387E+02  0.14859081686E+01  0.23066629217E+02  0.13975035053E+03  0.12508894950E+03 0.  0.
         23    2    1    2    0    0 -0.57867416387E+02 -0.14859081686E+01  0.20246778743E+02  0.11036587991E+03  0.91759738425E+02 0.  0.
          5    1    3    3  502    0  0.71667074383E+02 -0.25351026830E+02 -0.27305505409E+02  0.80882056957E+02  0.41800000000E+01 0. -1.
         -5    1    3    3    0  502 -0.13799657997E+02  0.26836934999E+02  0.50372134625E+02  0.58868293568E+02  0.41800000000E+01 0. -1.
        -11    1    4    4    0    0 -0.35683991963E+02  0.16037673027E+02  0.53781212859E+02  0.66505436584E+02  0.00000000000E+00 0.  1.
         11    1    4    4    0    0 -0.22183424423E+02 -0.17523581196E+02 -0.33534434116E+02  0.43860443323E+02  0.00000000000E+00 0. -1.
</event>
<event>
 8    1  0.5951278E-006  0.1571765E+03  0.7561462E-02  0.1191922E+00
         -3   -1    0    0    0  501 -0.00000000000E+00  0.00000000000E+00  0.16402679127E+03  0.16402679127E+03  0.00000000000E+00 0.  1.
          3   -1    0    0  501    0  0.00000000000E+00 -0.00000000000E+00 -0.22488892091E+03  0.22488892091E+03  0.00000000000E+00 0. -1.
         23    2    1    2    0    0 -0.29169704519E+02  0.13819487140E+03  0.41202802438E+02  0.19311628917E+03  0.12509011181E+03 0.  0.
         23    2    1    2    0    0  0.29169704519E+02 -0.13819487140E+03 -0.10206493207E+03  0.19579942301E+03  0.89283086569E+02 0.  0.
          5    1    3    3  502    0  0.35294663683E+02  0.73306540259E+02 -0.18846498729E+02  0.83619525493E+02  0.41800000000E+01 0.  1.
         -5    1    3    3    0  502 -0.64464368202E+02  0.64888331140E+02  0.60049301168E+02  0.10949676368E+03  0.41800000000E+01 0.  1.
        -11    1    4    4    0    0  0.14168146269E+02 -0.55602497030E+02 -0.95740019772E+02  0.11161776485E+03  0.00000000000E+00 0. -1.
         11    1    4    4    0    0  0.15001558251E+02 -0.82592374370E+02 -0.63249123030E+01  0.84181658154E+02  0.00000000000E+00 0.  1.
</event>
<event>
 8    1  0.5951278E-006  0.1119205E+03  0.7561462E-02  0.1257054E+00
          4   -1    0    0  501    0  0.00000000000E+00  0.00000000000E+00  0.38936324021E+02  0.38936324021E+02  0.00000000000E+00 0. -1.
         -4   -1    0    0    0  501 -0.00000000000E+00 -0.00000000000E+00 -0.45663439937E+03  0.45663439937E+03  0.00000000000E+00 0.  1.
         23    2    1    2    0    0 -0.62844112554E+02 -0.61444369016E+02 -0.28167853410E+03  0.32049241942E+03  0.12509117220E+03 0.  0.
         23    2    1    2    0    0  0.62844112554E+02  0.61444369016E+02 -0.13601954125E+03  0.17507830398E+03  0.66530473890E+02 0.  0.
          5    1    3    3  502    0 -0.19386032901E+02  0.19042282349E+02 -0.18614298211E+03  0.18816245368E+03  0.41800000000E+01 0.  1.
         -5    1    3    3    0  502 -0.43458079654E+02 -0.80486651364E+02 -0.95535551997E+02  0.13232996573E+03  0.41800000000E+01 0.  1.
        -11    1    4    4    0    0  0.22790836074E+02  0.60573885977E+02 -0.10896558023E+03  0.12673640182E+03  0.00000000000E+00 0.  1.
         11    1    4    4    0    0  0.40053276481E+02  0.87048303896E+00 -0.27053961019E+02  0.48341902159E+02  0.00000000000E+00 0. -1.
</event>
<event>
 8    1  0.5951278E-006  0.1703785E+03  0.7561462E-02  0.1177454E+00
         -1   -1    0    0    0  501 -0.00000000000E+00  0.00000000000E+00  0.11428730761E+04  0.11428730761E+04  0.00000000000E+00 0.  1.
          1   -1    0    0  501    0  0.00000000000E+00 -0.00000000000E+00 -0.45953391838E+02  0.45953391838E+02  0.00000000000E+00 0. -1.
         23    2    1    2    0    0 -0.81127391897E+02  0.10365102412E+03  0.96197362270E+03  0.97896180225E+03  0.12509105076E+03 0.  0.
         23    2    1    2    0    0  0.81127391897E+02 -0.10365102412E+03  0.13494606156E+03  0.20986466568E+03  0.92236380318E+02 0.  0.
          5    1    3    3  502    0  0.30306516813E+02  0.44843136583E+01  0.21669795112E+03  0.21889282412E+03  0.41800000000E+01 0.  1.
         -5    1    3    3    0  502 -0.11143390871E+03  0.99166710464E+02  0.74527567158E+03  0.76006897813E+03  0.41800000000E+01 0.  1.
        -11    1    4    4    0    0 -0.19434893299E+02 -0.57655901106E+01  0.14444086551E+02  0.24891539590E+02  0.00000000000E+00 0.  1.
         11    1    4    4    0    0  0.10056228520E+03 -0.97885434011E+02  0.12050197501E+03  0.18497312609E+03  0.00000000000E+00 0. -1.
</event>
<event>
 8    1  0.5951278E-006  0.1135080E+03  0.7561462E-02  0.1254208E+00
         -3   -1    0    0    0  501 -0.00000000000E+00  0.00000000000E+00  0.52079327524E+02  0.52079327524E+02  0.00000000000E+00 0.  1.
          3   -1    0    0  501    0  0.00000000000E+00 -0.00000000000E+00 -0.31262207973E+03  0.31262207973E+03  0.00000000000E+00 0. -1.
         23    2    1    2    0    0 -0.63448218794E+02  0.18824267395E+02 -0.13276347818E+03  0.19404493072E+03  0.12508902626E+03 0.  0.
         23    2    1    2    0    0  0.63448218794E+02 -0.18824267395E+02 -0.12777927403E+03  0.17065647653E+03  0.91739089816E+02 0.  0.
          5    1    3    3  502    0 -0.71493156107E+02 -0.31193090376E+02 -0.38814351569E+02  0.87225607164E+02  0.41800000000E+01 0.  1.
         -5    1    3    3    0  502  0.80449373134E+01  0.50017357771E+02 -0.93949126610E+02  0.10681932356E+03  0.41800000000E+01 0.  1.
        -11    1    4    4    0    0  0.50174347617E+02  0.22262938858E+02 -0.27327580986E+02  0.61318025800E+02  0.00000000000E+00 0.  1.
         11    1    4    4    0    0  0.13273871177E+02 -0.41087206254E+02 -0.10045169304E+03  0.10933845073E+03  0.00000000000E+00 0. -1.
</event>
<event>
 8    1  0.5951278E-006  0.1508253E+03  0.7561462E-02  0.1199463E+00
         -1   -1    0    0    0  501 -0.00000000000E+00  0.00000000000E+00  0.28926119769E+02  0.28926119769E+02  0.00000000000E+00 0.  1.
          1   -1    0    0  501    0  0.00000000000E+00 -0.00000000000E+00 -0.89546386665E+03  0.89546386665E+03  0.00000000000E+00 0. -1.
         23    2    1    2    0    0 -0.85540194475E+02 -0.84181543083E+02 -0.39640630026E+03  0.43265423443E+03  0.12509226440E+03 0.  0.
         23    2    1    2    0    0  0.85540194475E+02  0.84181543083E+02 -0.47013144661E+03  0.49173575199E+03  0.79854966167E+02 0.  0.
          5    1    3    3  502    0  0.61694878772E+01  0.21838612011E+02 -0.12545156485E+03  0.12755608601E+03  0.41800000000E+01 0. -1.
         -5    1    3    3    0  502 -0.91709682352E+02 -0.10602015509E+03 -0.27095473541E+03  0.30509814841E+03  0.41800000000E+01 0. -1.
        -11    1    4    4    0    0  0.26730554410E+02  0.73957090387E+02 -0.33328907774E+03  0.34244091914E+03  0.00000000000E+00 0. -1.
         11    1    4    4    0    0  0.58809640064E+02  0.10224452696E+02 -0.13684236887E+03  0.14929483285E+03  0.00000000000E+00 0.  1.
</event>
<event>
 8    1  0.5951278E-006  0.1173454E+03  0.7561462E-02  0.1247542E+00
         -4   -1    0    0    0  501 -0.00000000000E+00  0.00000000000E+00  0.13936438265E+03  0.13936438265E+03  0.00000000000E+00 0.  1.
          4   -1    0    0  501    0  0.00000000000E+00 -0.00000000000E+00 -0.13490629932E+03  0.13490629932E+03  0.00000000000E+00 0. -1.
         23    2    1    2    0    0 -0.16085529230E+01 -0.83044905281E+02 -0.54325113640E+01  0.15025348202E+03  0.12509017925E+03 0.  0.
         23    2    1    2    0    0  0.16085529230E+01  0.83044905281E+02  0.98905946988E+01  0.12401719995E+03  0.91560899315E+02 0.  0.
          5    1    3    3  502    0 -0.61159265524E+02 -0.38841438970E+02 -0.18355191594E+02  0.74856520084E+02  0.41800000000E+01 0. -1.
         -5    1    3    3    0  502  0.59550712601E+02 -0.44203466311E+02  0.12922680230E+02  0.75396961938E+02  0.41800000000E+01 0. -1.
        -11    1    4    4    0    0  0.14020567241E+02  0.26864685274E+02 -0.38389845538E+02  0.48908770799E+02  0.00000000000E+00 0. -1.
         11    1    4    4    0    0 -0.12412014318E+02  0.56180220008E+02  0.48280440237E+02  0.75108429148E+02  0.00000000000E+00 0.  1.
</event>
<event>
 8    1  0.5951278E-006  0.1205577E+03  0.7561462E-02  0.1242180E+00
         -2   -1    0    0    0  501 -0.00000000000E+00  0.00000000000E+00  0.11261502501E+03  0.11261502501E+03  0.00000000000E+00 0.  1.
          2   -1    0    0  501    0  0.00000000000E+00 -0.00000000000E+00 -0.19601034489E+03  0.19601034489E+03  0.00000000000E+00 0. -1.
         23    2    1    2    0    0  0.96184648128E+02 -0.31125631635E+02 -0.37725370286E+02  0.16520156826E+03  0.12509221843E+03 0.  0.
         23    2    1    2    0    0 -0.96184648128E+02  0.31125631635E+02 -0.45669949594E+02  0.14342380163E+03  0.90908476500E+02 0.  0.
          5    1    3    3  502    0  0.19641770364E+02 -0.36306300035E+02 -0.70395262301E+02  0.81712373113E+02  0.41800000000E+01 0. -1.
         -5    1    3    3    0  502  0.76542877764E+02  0.51806684005E+01  0.32669892015E+02  0.83489195143E+02  0.41800000000E+01 0. -1.
        -11    1    4    4    0    0  0.71451868420E+01  0.17078990492E+02  0.14061517137E+02  0.23248051003E+02  0.00000000000E+00 0.  1.
         11    1    4    4    0    0 -0.10332983497E+03  0.14046641143E+02 -0.59731466731E+02  0.12017575063E+03  0.00000000000E+00 0. -1.
</event>
<event>
 8    1  0.5951278E-006  0.1102033E+03  0.7561462E-02  0.1260194E+00
         -2   -1    0    0    0  501 -0.00000000000E+00  0.00000000000E+00  0.50113394257E+02  0.50113394257E+02  0.00000000000E+00 0. -1.
          2   -1    0    0  501    0  0.00000000000E+00 -0.00000000000E+00 -0.34262309779E+03  0.34262309779E+03  0.00000000000E+00 0.  1.
         23    2    1    2    0    0 -0.74101979071E+02 -0.71184555134E+01 -0.16490929482E+03  0.21995861679E+03  0.12507974205E+03 0.  0.
         23    2    1    2    0    0  0.74101979071E+02  0.71184555134E+01 -0.12760040871E+03  0.17277787525E+03  0.89602199541E+02 0.  0.
          5    1    3    3  502    0 -0.61598178439E+02 -0.36922067950E+02 -0.24774599975E+02  0.76084347224E+02  0.41800000000E+01 0.  1.
         -5    1    3    3    0  502 -0.12503800632E+02  0.29803612436E+02 -0.14013469484E+03  0.14387426957E+03  0.41800000000E+01 0.  1.
        -11    1    4    4    0    0  0.90051882772E+02  0.23446110103E+02 -0.95002591224E+02  0.13298328470E+03  0.00000000000E+00 0. -1.
         11    1    4    4    0    0 -0.15949903702E+02 -0.16327654590E+02 -0.32597817488E+02  0.39794590556E+02  0.00000000000E+00 0.  1.
</event>
<event>
 8    1  0.5951278E-006  0.9572227E+02  0.7561462E-02  0.1289558E+00
          2   -1    0    0  501    0  0.00000000000E+00  0.00000000000E+00  0.52368337472E+03  0.52368337472E+03  0.00000000000E+00 0. -1.
         -2   -1    0    0    0  501 -0.00000000000E+00 -0.00000000000E+00 -0.27590184362E+02  0.27590184362E+02  0.00000000000E+00 0.  1.
         23    2    1    2    0    0 -0.52400550510E+01  0.50377760659E+02  0.28213135074E+03  0.31274706961E+03  0.12508898245E+03 0.  0.
         23    2    1    2    0    0  0.52400550510E+01 -0.50377760659E+02  0.21396183961E+03  0.23852648947E+03  0.92465347148E+02 0.  0.
          5    1    3    3  502    0 -0.36669342384E+02  0.71448943266E+02  0.10885689382E+03  0.13533989765E+03  0.41800000000E+01 0. -1.
         -5    1    3    3    0  502  0.31429287334E+02 -0.21071182606E+02  0.17327445693E+03  0.17740717196E+03  0.41800000000E+01 0. -1.
        -11    1    4    4    0    0  0.25444240425E+02 -0.91401723041E+01  0.90172555219E+01  0.28500228380E+02  0.00000000000E+00 0.  1.
         11    1    4    4    0    0 -0.20204185374E+02 -0.41237588355E+02  0.20494458409E+03  0.21002626109E+03  0.00000000000E+00 0. -1.
</event>
<event>
 8    1  0.5951278E-006  0.1837530E+03  0.7561462E-02  0.1164220E+00
         -2   -1    0    0    0  501 -0.00000000000E+00  0.00000000000E+00  0.70418371157E+03  0.70418371157E+03  0.00000000000E+00 0.  1.
          2   -1    0    0  501    0  0.00000000000E+00 -0.00000000000E+00 -0.57042629105E+02  0.57042629105E+02  0.00000000000E+00 0. -1.
         23    2    1    2    0    0  0.15083309264E+03 -0.54711798076E+02  0.24103287183E+03  0.31536561541E+03  0.12495848669E+03 0.  0.
         23    2    1    2    0    0 -0.15083309264E+03  0.54711798076E+02  0.40610821064E+03  0.44586072527E+03  0.90132707182E+02 0.  0.
          5    1    3    3  502    0  0.11437019976E+03  0.68566544280E+01  0.82095365711E+02  0.14101304115E+03  0.41800000000E+01 0.  1.
         -5    1    3    3    0  502  0.36462892884E+02 -0.61568452504E+02  0.15893750612E+03  0.17435257426E+03  0.41800000000E+01 0.  1.
        -11    1    4    4    0    0 -0.12894882057E+03  0.75324190469E+01  0.32238592906E+03  0.34729990342E+03  0.00000000000E+00 0.  1.
         11    1    4    4    0    0 -0.21884272071E+02  0.47179379029E+02  0.83722281582E+02  0.98560821846E+02  0.00000000000E+00 0. -1.
</event>
<event>
 8    1  0.5951278E-006  0.1105683E+03  0.7561462E-02  0.1259521E+00
         -1   -1    0    0    0  501 -0.00000000000E+00  0.00000000000E+00  0.37785359757E+02  0.37785359757E+02  0.00000000000E+00 0.  1.
          1   -1    0    0  501    0  0.00000000000E+00 -0.00000000000E+00 -0.41123730215E+03  0.41123730215E+03  0.00000000000E+00 0. -1.
         23    2    1    2    0    0 -0.53955483004E+02 -0.20051266923E+02 -0.16035330528E+03  0.21141018773E+03  0.12517123275E+03 0.  0.
         23    2    1    2    0    0  0.53955483004E+02  0.20051266923E+02 -0.21309863711E+03  0.23761247418E+03  0.87951187009E+02 0.  0.
          5    1    3    3  502    0 -0.84632376345E+02 -0.17728228116E+02 -0.57384186077E+02  0.10386215100E+03  0.41800000000E+01 0. -1.
         -5    1    3    3    0  502  0.30676893342E+02 -0.23230388074E+01 -0.10296911921E+03  0.10754803673E+03  0.41800000000E+01 0. -1.
        -11    1    4    4    0    0 -0.84961193654E+01  0.37680871622E+02 -0.10028348761E+03  0.10746538986E+03  0.00000000000E+00 0.  1.
         11    1    4    4    0    0  0.62451602369E+02 -0.17629604699E+02 -0.11281514950E+03  0.13014708432E+03  0.00000000000E+00 0. -1.
</event>
<event>
 8    1  0.5951278E-006  0.1734319E+03  0.7561462E-02  0.1174315E+00
         -2   -1    0    0    0  501 -0.00000000000E+00  0.00000000000E+00  0.57711816636E+02  0.57711816636E+02  0.00000000000E+00 0.  1.
          2   -1    0    0  501    0  0.00000000000E+00 -0.00000000000E+00 -0.64895479000E+03  0.64895479000E+03  0.00000000000E+00 0. -1.
         23    2    1    2    0    0 -0.15387045521E+03 -0.45595262259E+02 -0.31287627105E+03  0.37322125983E+03  0.12508997912E+03 0.  0.
         23    2    1    2    0    0  0.15387045521E+03  0.45595262259E+02 -0.27836670231E+03  0.33344534680E+03  0.89122014245E+02 0.  0.
          5    1    3    3  502    0 -0.20693037567E+02  0.23263728631E+02 -0.14387192007E+03  0.14726168768E+03  0.41800000000E+01 0.  1.
         -5    1    3    3    0  502 -0.13317741764E+03 -0.68858990891E+02 -0.16900435098E+03  0.22595957215E+03  0.41800000000E+01 0.  1.
        -11    1    4    4    0    0  0.71807340317E+02  0.46063808991E+00 -0.52567979769E+02  0.88993813312E+02  0.00000000000E+00 0.  1.
         11    1    4    4    0    0  0.82063114890E+02  0.45134624169E+02 -0.22579872254E+03  0.24445153349E+03  0.00000000000E+00 0. -1.
</event>
<event>
 8    1  0.5951278E-006  0.2432188E+03  0.7561462E-02  0.1117667E+00
         -2   -1    0    0    0  501 -0.00000000000E+00  0.00000000000E+00  0.25002308147E+03  0.25002308147E+03  0.00000000000E+00 0.  1.
          2   -1    0    0  501    0  0.00000000000E+00 -0.00000000000E+00 -0.24334502076E+03  0.24334502076E+03  0.00000000000E+00 0. -1.
         23    2    1    2    0    0 -0.13049246731E+03 -0.17599336491E+03  0.34782360875E+02  0.25467290967E+03  0.12508608945E+03 0.  0.
         23    2    1    2    0    0  0.13049246731E+03  0.17599336491E+03 -0.28104300158E+02  0.23869519256E+03  0.90463223167E+02 0.  0.
          5    1    3    3  502    0 -0.11365410188E+03 -0.51723147534E+02  0.18752337024E+01  0.12495410264E+03  0.41800000000E+01 0.  1.
         -5    1    3    3    0  502 -0.16838365426E+02 -0.12427021738E+03  0.32907127172E+02  0.12971880703E+03  0.41800000000E+01 0.  1.
        -11    1    4    4    0    0  0.51878961365E+02  0.14049122090E+03 -0.71827833746E+01  0.14993599354E+03  0.00000000000E+00 0.  1.
         11    1    4    4    0    0  0.78613505944E+02  0.35502144019E+02 -0.20921516783E+02  0.88759199023E+02  0.00000000000E+00 0. -1.
</event>
<event>
 8    1  0.5951278E-006  0.7978273E+02  0.7561462E-02  0.1329669E+00
         -4   -1    0    0    0  501 -0.00000000000E+00  0.00000000000E+00  0.54515399327E+02  0.54515399327E+02  0.00000000000E+00 0.  1.
          4   -1    0    0  501    0  0.00000000000E+00 -0.00000000000E+00 -0.27559214047E+03  0.27559214047E+03  0.00000000000E+00 0. -1.
         23    2    1    2    0    0 -0.87506945527E+01 -0.28969795228E+02 -0.60968614334E+02  0.14240741317E+03  0.12508747219E+03 0.  0.
         23    2    1    2    0    0  0.87506945527E+01  0.28969795228E+02 -0.16010812681E+03  0.18770012663E+03  0.93171355989E+02 0.  0.
          5    1    3    3  502    0 -0.41594546891E+02 -0.35006228517E+02 -0.85048050474E+02  0.10102566830E+03  0.41800000000E+01 0. -1.
         -5    1    3    3    0  502  0.32843852339E+02  0.60364332880E+01  0.24079436140E+02  0.41381744865E+02  0.41800000000E+01 0. -1.
        -11    1    4    4    0    0 -0.13665723056E+02 -0.16058387415E+02 -0.12400530708E+03  0.12578529317E+03  0.00000000000E+00 0. -1.
         11    1    4    4    0    0  0.22416417609E+02  0.45028182643E+02 -0.36102819726E+02  0.61914833463E+02  0.00000000000E+00 0.  1.
</event>
<event>
 8    1  0.5951278E-006  0.2104576E+03  0.7561462E-02  0.1141204E+00
         -1   -1    0    0    0  501 -0.00000000000E+00  0.00000000000E+00  0.82461639803E+02  0.82461639803E+02  0.00000000000E+00 0.  1.
          1   -1    0    0  501    0  0.00000000000E+00 -0.00000000000E+00 -0.73366088498E+03  0.73366088498E+03  0.00000000000E+00 0. -1.
         23    2    1    2    0    0  0.16875613453E+03 -0.70160360211E+02 -0.13120624802E+03  0.25741129851E+03  0.12507752793E+03 0.  0.
         23    2    1    2    0    0 -0.16875613453E+03  0.70160360211E+02 -0.51999299716E+03  0.55871122627E+03  0.91457138508E+02 0.  0.
          5    1    3    3  502    0 -0.15990819521E+02  0.81578518044E+01 -0.16106991883E+01  0.18501989269E+02  0.41800000000E+01 0. -1.
         -5    1    3    3    0  502  0.18474695405E+03 -0.78318212015E+02 -0.12959554884E+03  0.23890930925E+03  0.41800000000E+01 0. -1.
        -11    1    4    4    0    0 -0.85055372333E+02 -0.10299064315E+02 -0.17795610289E+03  0.19750661165E+03  0.00000000000E+00 0.  1.
         11    1    4    4    0    0 -0.83700762201E+02  0.80459424525E+02 -0.34203689426E+03  0.36120461462E+03  0.00000000000E+00 0. -1.
</event>
<event>
 8    1  0.5951278E-006  0.8809654E+02  0.7561462E-02  0.1307528E+00
         -4   -1    0    0    0  501 -0.00000000000E+00  0.00000000000E+00  0.96578550688E+03  0.96578550688E+03  0.00000000000E+00 0.  1.
          4   -1    0    0  501    0  0.00000000000E+00 -0.00000000000E+00 -0.20518819700E+02  0.20518819700E+02  0.00000000000E+00 0. -1.
         23    2    1    2    0    0  0.34125688643E+02 -0.46797458197E+02  0.75136662903E+03  0.76390676890E+03  0.12508867104E+03 0.  0.
         23    2    1    2    0    0 -0.34125688643E+02  0.46797458197E+02  0.19390005815E+03  0.22239755768E+03  0.92243571022E+02 0.  0.
          5    1    3    3  502    0  0.15136722121E+02 -0.78901925909E+02  0.28808216602E+03  0.29910439824E+03  0.41800000000E+01 0.  1.
         -5    1    3    3    0  502  0.18988966522E+02  0.32104467712E+02  0.46328446301E+03  0.46480237066E+03  0.41800000000E+01 0.  1.
        -11    1    4    4    0    0 -0.74939414948E+01  0.14725579517E+02 -0.64643822772E+01  0.17742324804E+02  0.00000000000E+00 0. -1.
         11    1    4    4    0    0 -0.26631747148E+02  0.32071878680E+02  0.20036444042E+03  0.20465523288E+03  0.00000000000E+00 0.  1.
</event>
<event>
 8    1  0.5951278E-006  0.6126528E+02  0.7561462E-02  0.1392597E+00
          3   -1    0    0  501    0  0.00000000000E+00  0.00000000000E+00  0.32705571756E+02  0.32705571756E+02  0.00000000000E+00 0. -1.
         -3   -1    0    0    0  501 -0.00000000000E+00 -0.00000000000E+00 -0.41160168476E+03  0.41160168476E+03  0.00000000000E+00 0.  1.
         23    2    1    2    0    0 -0.32590219191E+01  0.23871258377E+02 -0.27753367355E+03  0.30537450760E+03  0.12509273256E+03 0.  0.
         23    2    1    2    0    0  0.32590219191E+01 -0.23871258377E+02 -0.10136243946E+03  0.13893274892E+03  0.91910317096E+02 0.  0.
          5    1    3    3  502    0 -0.25477005278E+02 -0.17068871241E+02 -0.82098310880E+01  0.32020273108E+02  0.41800000000E+01 0.  1.
         -5    1    3    3    0  502  0.22217983359E+02  0.40940129618E+02 -0.26932384246E+03  0.27335423449E+03  0.41800000000E+01 0.  1.
        -11    1    4    4    0    0  0.20487693144E+02 -0.15299173907E+02  0.88461869378E+01  0.27056705564E+02  0.00000000000E+00 0. -1.
         11    1    4    4    0    0 -0.17228671225E+02 -0.85720844693E+01 -0.11020862640E+03  0.11187604336E+03  0.00000000000E+00 0.  1.
</event>
<event>
 8    1  0.5951278E-006  0.7861838E+02  0.7561462E-02  0.1333019E+00
         -2   -1    0    0    0  501 -0.00000000000E+00  0.00000000000E+00  0.28795217334E+02  0.28795217334E+02  0.00000000000E+00 0.  1.
          2   -1    0    0  501    0  0.00000000000E+00 -0.00000000000E+00 -0.41684755287E+03  0.41684755287E+03  0.00000000000E+00 0. -1.
         23    2    1    2    0    0  0.10243303000E+02  0.15025941761E+02 -0.21145863787E+03  0.24635959996E+03  0.12509033847E+03 0.  0.
         23    2    1    2    0    0 -0.10243303000E+02 -0.15025941761E+02 -0.17659369767E+03  0.19928317025E+03  0.90541392228E+02 0.  0.
          5    1    3    3  502    0 -0.32765982280E+02  0.19785144765E+01 -0.31770417235E+01  0.33242895608E+02  0.41800000000E+01 0. -1.
         -5    1    3    3    0  502  0.43009285280E+02  0.13047427285E+02 -0.20828159615E+03  0.21311670435E+03  0.41800000000E+01 0. -1.
        -11    1    4    4    0    0  0.31490460892E+02  0.63398077309E+01 -0.25293969546E+02  0.40885537597E+02  0.00000000000E+00 0. -1.
         11    1    4    4    0    0 -0.41733763892E+02 -0.21365749492E+02 -0.15129972812E+03  0.15839763265E+03  0.00000000000E+00 0.  1.
</event>
<event>
 8    1  0.5951278E-006  0.1737025E+03  0.7561462E-02  0.1174041E+00
         -2   -1    0    0    0  501 -0.00000000000E+00  0.00000000000E+00  0.50320567023E+02  0.50320567023E+02  0.00000000000E+00 0.  1.
          2   -1    0    0  501    0  0.00000000000E+00 -0.00000000000E+00 -0.71713703756E+03  0.71713703756E+03  0.00000000000E+00 0. -1.
         23    2    1    2    0    0  0.97681047115E+02 -0.12035672855E+03 -0.37656466035E+03  0.42599917991E+03  0.12508808413E+03 0.  0.
         23    2    1    2    0    0 -0.97681047115E+02  0.12035672855E+03 -0.29025181019E+03  0.34145842467E+03  0.91216300020E+02 0.  0.
          5    1    3    3  502    0  0.19094275207E+02 -0.75168571532E+02 -0.29130738663E+03  0.30148361713E+03  0.41800000000E+01 0.  1.
         -5    1    3    3    0  502  0.78586771908E+02 -0.45188157014E+02 -0.85257273714E+02  0.12451556278E+03  0.41800000000E+01 0.  1.
        -11    1    4    4    0    0 -0.92128855197E+02  0.43414474135E+02 -0.14838034859E+03  0.17997019301E+03  0.00000000000E+00 0.  1.
         11    1    4    4    0    0 -0.55521919177E+01  0.76942254410E+02 -0.14187146160E+03  0.16148823166E+03  0.00000000000E+00 0. -1.
</event>
<event>
 8    1  0.5951278E-006  0.1464701E+03  0.7561462E-02  0.1204879E+00
          2   -1    0    0  501    0  0.00000000000E+00  0.00000000000E+00  0.14875380983E+03  0.14875380983E+03  0.00000000000E+00 0. -1.
         -2   -1    0    0    0  501 -0.00000000000E+00 -0.00000000000E+00 -0.16058021195E+03  0.16058021195E+03  0.00000000000E+00 0.  1.
         23    2    1    2    0    0  0.34279482473E+02 -0.92752588257E+02 -0.53869007179E+02  0.16830936930E+03  0.12509215928E+03 0.  0.
         23    2    1    2    0    0 -0.34279482473E+02  0.92752588257E+02  0.42042605064E+02  0.14102465248E+03  0.91335898854E+02 0.  0.
          5    1    3    3  502    0 -0.16119700103E+02 -0.10570142457E+03 -0.40574234529E+02  0.11443940229E+03  0.41800000000E+01 0. -1.
         -5    1    3    3    0  502  0.50399182576E+02  0.12948836316E+02 -0.13294772651E+02  0.53869967014E+02  0.41800000000E+01 0. -1.
        -11    1    4    4    0    0 -0.58777695694E+02  0.29221906290E+02  0.12590830499E+02  0.66837611649E+02  0.00000000000E+00 0.  1.
         11    1    4    4    0    0  0.24498213221E+02  0.63530681967E+02  0.29451774565E+02  0.74187040831E+02  0.00000000000E+00 0. -1.
</event>
<event>
 8    1  0.5951278E-006  0.1799204E+03  0.7561462E-02  0.1167880E+00
          2   -1    0    0  501    0  0.00000000000E+00  0.00000000000E+00  0.28596272036E+03  0.28596272036E+03  0.00000000000E+00 0.  1.
         -2   -1    0    0    0  501 -0.00000000000E+00 -0.00000000000E+00 -0.22343110931E+03  0.22343110931E+03  0.00000000000E+00 0. -1.
         23    2    1    2    0    0 -0.72616908708E+02 -0.16132406550E+03 -0.11208995593E+03  0.24394738673E+03  0.12508996655E+03 0.  0.
         23    2    1    2    0    0  0.72616908708E+02  0.16132406550E+03  0.17462156698E+03  0.26544644294E+03  0.93115266622E+02 0.  0.
          5    1    3    3  502    0 -0.67511666241E+02 -0.10165148617E+03 -0.13283711820E+03  0.18042733189E+03  0.41800000000E+01 0. -1.
         -5    1    3    3    0  502 -0.51052424673E+01 -0.59672579328E+02  0.20747162277E+02  0.63520054840E+02  0.41800000000E+01 0. -1.
        -11    1    4    4    0    0  0.13784574775E+02  0.17245526701E+02  0.80719581332E+02  0.83684368334E+02  0.00000000000E+00 0.  1.
         11    1    4    4    0    0  0.58832333933E+02  0.14407853880E+03  0.93901985644E+02  0.18176207461E+03  0.00000000000E+00 0. -1.
</event>
<event>
 8    1  0.8044319E-006  0.1976295E+03  0.7561462E-02  0.1151755E+00
          2   -1    0    0  501    0  0.00000000000E+00  0.00000000000E+00  0.26080533672E+03  0.26080533672E+03  0.00000000000E+00 0.  1.
         -2   -1    0    0    0  501 -0.00000000000E+00 -0.00000000000E+00 -0.23230560822E+03  0.23230560822E+03  0.00000000000E+00 0. -1.
         23    2    1    2    0    0 -0.72952246174E+02 -0.17640500938E+03 -0.95524288296E+02  0.24741290641E+03  0.12508996380E+03 0.  0.
         23    2    1    2    0    0  0.72952246174E+02  0.17640500938E+03  0.12402401680E+03  0.24569803853E+03  0.92438151430E+02 0.  0.
          5    1    3    3  502    0 -0.64278573428E+02 -0.12793385947E+03 -0.12479731930E+03  0.18997539500E+03  0.41800000000E+01 0. -1.
         -5    1    3    3    0  502 -0.86736727450E+01 -0.48471149915E+02  0.29273031001E+02  0.57437511410E+02  0.41800000000E+01 0. -1.
        -11    1    4    4    0    0  0.35882934182E+01  0.97423341827E+02  0.23565152174E+02  0.10029705768E+03  0.00000000000E+00 0. -1.
         11    1    4    4    0    0  0.69363952755E+02  0.78981667556E+02  0.10045886462E+03  0.14540098085E+03  0.00000000000E+00 0.  1.
</event>
<event>
 8    1  0.5951278E-006  0.9993438E+02  0.7561462E-02  0.1280434E+00
         -2   -1    0    0    0  501 -0.00000000000E+00  0.00000000000E+00  0.38198990001E+02  0.38198990001E+02  0.00000000000E+00 0.  1.
          2   -1    0    0  501    0  0.00000000000E+00 -0.00000000000E+00 -0.38305125485E+03  0.38305125485E+03  0.00000000000E+00 0. -1.
         23    2    1    2    0    0  0.34339821259E+02  0.21763579538E+02 -0.13215433656E+03  0.18645382865E+03  0.12508950727E+03 0.  0.
         23    2    1    2    0    0 -0.34339821259E+02 -0.21763579538E+02 -0.21269792829E+03  0.23479641620E+03  0.90752805157E+02 0.  0.
          5    1    3    3  502    0  0.41685563997E+02  0.70364409121E+02 -0.88576323506E+02  0.12063197670E+03  0.41800000000E+01 0.  1.
         -5    1    3    3    0  502 -0.73457427375E+01 -0.48600829583E+02 -0.43578013057E+02  0.65821851953E+02  0.41800000000E+01 0.  1.
        -11    1    4    4    0    0 -0.37163721109E+02  0.86049484387E+01 -0.19668248711E+03  0.20034766792E+03  0.00000000000E+00 0. -1.
         11    1    4    4    0    0  0.28238998498E+01 -0.30368527977E+02 -0.16015441172E+02  0.34448748276E+02  0.00000000000E+00 0.  1.
</event>
<event>
 8    1  0.5951278E-006  0.1131904E+03  0.7561462E-02  0.1254773E+00
         -2   -1    0    0    0  501 -0.00000000000E+00  0.00000000000E+00  0.12574475961E+03  0.12574475961E+03  0.00000000000E+00 0.  1.
          2   -1    0    0  501    0  0.00000000000E+00 -0.00000000000E+00 -0.12357315559E+03  0.12357315559E+03  0.00000000000E+00 0. -1.
         23    2    1    2    0    0 -0.21708002042E+02  0.40236060362E+02  0.47656384745E+02  0.13708366068E+03  0.12012752021E+03 0.  0.
         23    2    1    2    0    0  0.21708002042E+02 -0.40236060362E+02 -0.45484780726E+02  0.11223425453E+03  0.91855782100E+02 0.  0.
          5    1    3    3  502    0  0.29963656812E+02  0.63004009440E+02  0.38295047589E+02  0.79695100256E+02  0.41800000000E+01 0. -1.
         -5    1    3    3    0  502 -0.51671658854E+02 -0.22767949078E+02  0.93613371562E+01  0.57388560422E+02  0.41800000000E+01 0.  1.
        -11    1    4    4    0    0  0.42846105106E+02  0.11177673577E+02 -0.33093971287E+02  0.55280557567E+02  0.00000000000E+00 0. -1.
         11    1    4    4    0    0 -0.21138103064E+02 -0.51413733939E+02 -0.12390809439E+02  0.56953696959E+02  0.00000000000E+00 0.  1.
</event>
<event>
 8    1  0.5951278E-006  0.1172818E+03  0.7561462E-02  0.1247650E+00
          3   -1    0    0  501    0  0.00000000000E+00  0.00000000000E+00  0.36981743653E+02  0.36981743653E+02  0.00000000000E+00 0. -1.
         -3   -1    0    0    0  501 -0.00000000000E+00 -0.00000000000E+00 -0.39624852096E+03  0.39624852096E+03  0.00000000000E+00 0.  1.
         23    2    1    2    0    0  0.48404380991E+02  0.22631795791E+02 -0.20364795292E+03  0.24489864999E+03  0.12509067815E+03 0.  0.
         23    2    1    2    0    0 -0.48404380991E+02 -0.22631795791E+02 -0.15561882439E+03  0.18833161462E+03  0.91631851895E+02 0.  0.
          5    1    3    3  502    0  0.52894973666E+02 -0.43709662323E+02 -0.11541007609E+03  0.13433305953E+03  0.41800000000E+01 0. -1.
         -5    1    3    3    0  502 -0.44905926746E+01  0.66341458114E+02 -0.88237876832E+02  0.11056559047E+03  0.41800000000E+01 0. -1.
        -11    1    4    4    0    0 -0.44497993575E+02 -0.52642758041E+02 -0.13539737081E+03  0.15193347040E+03  0.00000000000E+00 0. -1.
         11    1    4    4    0    0 -0.39063874162E+01  0.30010962250E+02 -0.20221453583E+02  0.36398144222E+02  0.00000000000E+00 0.  1.
</event>
<event>
 8    1  0.5951278E-006  0.8211150E+02  0.7561462E-02  0.1323164E+00
          1   -1    0    0  501    0  0.00000000000E+00  0.00000000000E+00  0.35427130509E+03  0.35427130509E+03  0.00000000000E+00 0. -1.
         -1   -1    0    0    0  501 -0.00000000000E+00 -0.00000000000E+00 -0.41743834444E+02  0.41743834444E+02  0.00000000000E+00 0.  1.
         23    2    1    2    0    0  0.60719848927E+02 -0.22005027744E+02  0.19067576215E+03  0.23701117099E+03  0.12508368240E+03 0.  0.
         23    2    1    2    0    0 -0.60719848927E+02  0.22005027744E+02  0.12185170850E+03  0.15900396854E+03  0.79141025073E+02 0.  0.
          5    1    3    3  502    0  0.37025057586E+02 -0.17184549927E+02 -0.36018970261E+01  0.41189922404E+02  0.41800000000E+01 0.  1.
         -5    1    3    3    0  502  0.23694791341E+02 -0.48204778172E+01  0.19427765917E+03  0.19582124858E+03  0.41800000000E+01 0.  1.
        -11    1    4    4    0    0 -0.68915065215E+02  0.39428809376E+02  0.11223952485E+03  0.13748319228E+03  0.00000000000E+00 0. -1.
         11    1    4    4    0    0  0.81952162879E+01 -0.17423781632E+02  0.96121836480E+01  0.21520776260E+02  0.00000000000E+00 0.  1.
</event>
<event>
 8    1  0.5951278E-006  0.1945855E+03  0.7561462E-02  0.1154389E+00
         -2   -1    0    0    0  501 -0.00000000000E+00  0.00000000000E+00  0.71909301746E+02  0.71909301746E+02  0.00000000000E+00 0.  1.
          2   -1    0    0  501    0  0.00000000000E+00 -0.00000000000E+00 -0.10441726333E+04  0.10441726333E+04  0.00000000000E+00 0. -1.
         23    2    1    2    0    0  0.16057395955E+03  0.19624590897E+02 -0.10710532799E+03  0.23084346357E+03  0.12509209542E+03 0.  0.
         23    2    1    2    0    0 -0.16057395955E+03 -0.19624590897E+02 -0.86515800356E+03  0.88523847147E+03  0.94761063657E+02 0.  0.
          5    1    3    3  502    0  0.99303343457E+02  0.71123184753E+02 -0.48206086313E+02  0.13138097499E+03  0.41800000000E+01 0.  1.
         -5    1    3    3    0  502  0.61270616094E+02 -0.51498593856E+02 -0.58899241674E+02  0.99462488585E+02  0.41800000000E+01 0.  1.
        -11    1    4    4    0    0  0.67320157618E+01  0.14561801415E+02 -0.55687825592E+02  0.57952566948E+02  0.00000000000E+00 0. -1.
         11    1    4    4    0    0 -0.16730597531E+03 -0.34186392312E+02 -0.80947017797E+03  0.82728590452E+03  0.00000000000E+00 0.  1.
</event>
<event>
 8    1  0.5951278E-006  0.1331714E+03  0.7561462E-02  0.1222824E+00
         -1   -1    0    0    0  501 -0.00000000000E+00  0.00000000000E+00  0.10880053412E+03  0.10880053412E+03  0.00000000000E+00 0.  1.
          1   -1    0    0  501    0  0.00000000000E+00 -0.00000000000E+00 -0.33058105741E+03  0.33058105741E+03  0.00000000000E+00 0. -1.
         23    2    1    2    0    0  0.60448950871E+02 -0.85283339398E+02  0.20073660459E+02  0.16424930007E+03  0.12509019581E+03 0.  0.
         23    2    1    2    0    0 -0.60448950871E+02  0.85283339398E+02 -0.24185418375E+03  0.27513229146E+03  0.79227570748E+02 0.  0.
          5    1    3    3  502    0  0.22250153655E+02 -0.11034820505E+03  0.31501863607E+02  0.11696852357E+03  0.41800000000E+01 0. -1.
         -5    1    3    3    0  502  0.38198797215E+02  0.25064865653E+02 -0.11428203148E+02  0.47280776497E+02  0.41800000000E+01 0. -1.
        -11    1    4    4    0    0 -0.48368578985E+01  0.26338674399E+02 -0.84820376364E+01  0.28090317298E+02  0.00000000000E+00 0.  1.
         11    1    4    4    0    0 -0.55612092972E+02  0.58944664999E+02 -0.23337214611E+03  0.24704197416E+03  0.00000000000E+00 0. -1.
</event>
<event>
 8    1  0.5951278E-006  0.1006810E+03  0.7561462E-02  0.1278870E+00
         -2   -1    0    0    0  501 -0.00000000000E+00  0.00000000000E+00  0.43404405350E+03  0.43404405350E+03  0.00000000000E+00 0.  1.
          2   -1    0    0  501    0  0.00000000000E+00 -0.00000000000E+00 -0.42386207529E+02  0.42386207529E+02  0.00000000000E+00 0. -1.
         23    2    1    2    0    0 -0.47671076121E+02  0.64987019027E+02  0.23524318951E+03  0.27835731886E+03  0.12509034581E+03 0.  0.
         23    2    1    2    0    0  0.47671076121E+02 -0.64987019027E+02  0.15641465646E+03  0.19807294216E+03  0.90947795578E+02 0.  0.
          5    1    3    3  502    0 -0.41019631906E+02  0.87863429825E+01  0.64703364976E+01  0.42651467491E+02  0.41800000000E+01 0. -1.
         -5    1    3    3    0  502 -0.66514442150E+01  0.56200676044E+02  0.22877285301E+03  0.23570585137E+03  0.41800000000E+01 0. -1.
        -11    1    4    4    0    0 -0.15191171726E+02 -0.62591367084E+01 -0.32118206726E+01  0.16741095626E+02  0.00000000000E+00 0. -1.
         11    1    4    4    0    0  0.62862247847E+02 -0.58727882318E+02  0.15962647714E+03  0.18133184654E+03  0.00000000000E+00 0.  1.
</event>
<event>
 8    1  0.5951278E-006  0.9662952E+02  0.7561462E-02  0.1287548E+00
          3   -1    0    0  501    0  0.00000000000E+00  0.00000000000E+00  0.17383320013E+03  0.17383320013E+03  0.00000000000E+00 0. -1.
         -3   -1    0    0    0  501 -0.00000000000E+00 -0.00000000000E+00 -0.77886620264E+02  0.77886620264E+02  0.00000000000E+00 0.  1.
         23    2    1    2    0    0  0.38010046600E+02 -0.93927215105E+01  0.37160027666E+02  0.13623961255E+03  0.12508947802E+03 0.  0.
         23    2    1    2    0    0 -0.38010046600E+02  0.93927215105E+01  0.58786552205E+02  0.11548020785E+03  0.91361002759E+02 0.  0.
          5    1    3    3  502    0 -0.42233224542E+02  0.98277382479E+01 -0.43495194188E+01  0.43779223537E+02  0.41800000000E+01 0.  1.
         -5    1    3    3    0  502  0.80243271142E+02 -0.19220459758E+02  0.41509547085E+02  0.92460389012E+02  0.41800000000E+01 0.  1.
        -11    1    4    4    0    0  0.14183208896E+02  0.29669955315E+01 -0.17565353027E+02  0.22770773022E+02  0.00000000000E+00 0.  1.
         11    1    4    4    0    0 -0.52193255496E+02  0.64257259791E+01  0.76351905232E+02  0.92709434828E+02  0.00000000000E+00 0. -1.
</event>
<event>
 8    1  0.5951278E-006  0.6515373E+02  0.7561462E-02  0.1377394E+00
          2   -1    0    0  501    0  0.00000000000E+00  0.00000000000E+00  0.24051530484E+03  0.24051530484E+03  0.00000000000E+00 0.  1.
         -2   -1    0    0    0  501 -0.00000000000E+00 -0.00000000000E+00 -0.48261360119E+02  0.48261360119E+02  0.00000000000E+00 0. -1.
         23    2    1    2    0    0 -0.34825888462E+01  0.50512283094E+01  0.11150911007E+03  0.16768775113E+03  0.12508899599E+03 0.  0.
         23    2    1    2    0    0  0.34825888462E+01 -0.50512283094E+01  0.80744834654E+02  0.12108891383E+03  0.90028625432E+02 0.  0.
          5    1    3    3  502    0 -0.21175558846E+02  0.45872207834E+02  0.35205364385E+01  0.50818602114E+02  0.41800000000E+01 0. -1.
         -5    1    3    3    0  502  0.17692970000E+02 -0.40820979525E+02  0.10798857363E+03  0.11686914902E+03  0.41800000000E+01 0. -1.
        -11    1    4    4    0    0 -0.13198315927E+02 -0.11034259574E+02 -0.15542437322E+02  0.23184429809E+02  0.00000000000E+00 0. -1.
         11    1    4    4    0    0  0.16680904774E+02  0.59830312648E+01  0.96287271976E+02  0.97904484023E+02  0.00000000000E+00 0.  1.
</event>
<event>
 8    1  0.5951278E-006  0.1203209E+03  0.7561462E-02  0.1242569E+00
         -3   -1    0    0    0  501 -0.00000000000E+00  0.00000000000E+00  0.37534353354E+02  0.37534353354E+02  0.00000000000E+00 0.  1.
          3   -1    0    0  501    0  0.00000000000E+00 -0.00000000000E+00 -0.44192872199E+03  0.44192872199E+03  0.00000000000E+00 0. -1.
         23    2    1    2    0    0 -0.65051016647E+02 -0.96580008161E+01 -0.18484989070E+03  0.23268423794E+03  0.12509021043E+03 0.  0.
         23    2    1    2    0    0  0.65051016647E+02  0.96580008161E+01 -0.21954447794E+03  0.24677883741E+03  0.91515600064E+02 0.  0.
          5    1    3    3  502    0  0.26797228353E+02  0.18568313181E+02 -0.97021392848E+02  0.10243777024E+03  0.41800000000E+01 0.  1.
         -5    1    3    3    0  502 -0.91848245001E+02 -0.28226313997E+02 -0.87828497853E+02  0.13024646769E+03  0.41800000000E+01 0.  1.
        -11    1    4    4    0    0 -0.46195241652E+01 -0.30722522691E+02 -0.77516405781E+02  0.83510517717E+02  0.00000000000E+00 0.  1.
         11    1    4    4    0    0  0.69670540812E+02  0.40380523507E+02 -0.14202807216E+03  0.16326831970E+03  0.00000000000E+00 0. -1.
</event>
<event>
 8    1  0.5951278E-006  0.3019747E+03  0.7561462E-02  0.1084258E+00
          3   -1    0    0  501    0  0.00000000000E+00  0.00000000000E+00  0.39386012434E+03  0.39386012434E+03  0.00000000000E+00 0.  1.
         -3   -1    0    0    0  501 -0.00000000000E+00 -0.00000000000E+00 -0.28209281438E+03  0.28209281438E+03  0.00000000000E+00 0. -1.
         23    2    1    2    0    0 -0.31377075477E+02  0.27739253798E+03 -0.81772552433E+02  0.31665054925E+03  0.12509867711E+03 0.  0.
         23    2    1    2    0    0  0.31377075477E+02 -0.27739253798E+03  0.19353986239E+03  0.35930238948E+03  0.11708709476E+03 0.  0.
          5    1    3    3  502    0  0.42451199544E+02  0.75844773641E+02 -0.47838988448E+02  0.99300429240E+02  0.41800000000E+01 0. -1.
         -5    1    3    3    0  502 -0.73828275021E+02  0.20154776434E+03 -0.33933563985E+02  0.21735012001E+03  0.41800000000E+01 0. -1.
        -11    1    4    4    0    0  0.74599354518E+02 -0.14644387204E+03  0.95195998187E+02  0.18992932745E+03  0.00000000000E+00 0.  1.
         11    1    4    4    0    0 -0.43222279040E+02 -0.13094866594E+03  0.98343864204E+02  0.16937306203E+03  0.00000000000E+00 0. -1.
</event>
<event>
 8    1  0.5951278E-006  0.1139386E+03  0.7561462E-02  0.1253445E+00
         -2   -1    0    0    0  501 -0.00000000000E+00  0.00000000000E+00  0.27665544618E+02  0.27665544618E+02  0.00000000000E+00 0.  1.
          2   -1    0    0  501    0  0.00000000000E+00 -0.00000000000E+00 -0.49375924774E+03  0.49375924774E+03  0.00000000000E+00 0. -1.
         23    2    1    2    0    0  0.37875877752E+02  0.62948355416E+01 -0.22841491629E+03  0.26324193368E+03  0.12509490236E+03 0.  0.
         23    2    1    2    0    0 -0.37875877752E+02 -0.62948355416E+01 -0.23767878683E+03  0.25818285868E+03  0.93236128909E+02 0.  0.
          5    1    3    3  502    0  0.52514973338E+02 -0.48128993353E+02 -0.15464120652E+03  0.17031029792E+03  0.41800000000E+01 0. -1.
         -5    1    3    3    0  502 -0.14639095585E+02  0.54423828895E+02 -0.73773709770E+02  0.92931635756E+02  0.41800000000E+01 0. -1.
        -11    1    4    4    0    0 -0.59797084356E+02  0.22437616947E+02 -0.13541351626E+03  0.14971959905E+03  0.00000000000E+00 0.  1.
         11    1    4    4    0    0  0.21921206604E+02 -0.28732452488E+02 -0.10226527057E+03  0.10846325963E+03  0.00000000000E+00 0. -1.
</event>
<event>
 8    1  0.5951278E-006  0.9590798E+02  0.7561462E-02  0.1289144E+00
         -1   -1    0    0    0  501 -0.00000000000E+00  0.00000000000E+00  0.21395747827E+03  0.21395747827E+03  0.00000000000E+00 0.  1.
          1   -1    0    0  501    0  0.00000000000E+00 -0.00000000000E+00 -0.62155946619E+02  0.62155946619E+02  0.00000000000E+00 0. -1.
         23    2    1    2    0    0  0.67696959811E+01  0.41851094215E+02  0.13371817386E+03  0.18795132268E+03  0.12509119395E+03 0.  0.
         23    2    1    2    0    0 -0.67696959811E+01 -0.41851094215E+02  0.18083357781E+02  0.88162102206E+02  0.75154544547E+02 0.  0.
          5    1    3    3  502    0  0.77688628244E+01 -0.33315354964E+02  0.99408485174E+02  0.10521305732E+03  0.41800000000E+01 0.  1.
         -5    1    3    3    0  502 -0.99916684327E+00  0.75166449179E+02  0.34309688691E+02  0.82738265359E+02  0.41800000000E+01 0.  1.
        -11    1    4    4    0    0 -0.14027190700E+02  0.17410854075E+02  0.17601530252E+02  0.28455470226E+02  0.00000000000E+00 0.  1.
         11    1    4    4    0    0  0.72574947193E+01 -0.59261948290E+02  0.48182752896E+00  0.59706631980E+02  0.00000000000E+00 0. -1.
</event>
<event>
 8    1  0.5951278E-006  0.7012234E+02  0.7561462E-02  0.1359678E+00
          2   -1    0    0  501    0  0.00000000000E+00  0.00000000000E+00  0.17655952382E+03  0.17655952382E+03  0.00000000000E+00 0. -1.
         -2   -1    0    0    0  501 -0.00000000000E+00 -0.00000000000E+00 -0.75158358339E+02  0.75158358339E+02  0.00000000000E+00 0.  1.
         23    2    1    2    0    0  0.13146825456E+02  0.35800440763E+02  0.59386507496E+02  0.14362666202E+03  0.12508936882E+03 0.  0.
         23    2    1    2    0    0 -0.13146825456E+02 -0.35800440763E+02  0.42014657989E+02  0.10809122014E+03  0.91999835909E+02 0.  0.
          5    1    3    3  502    0  0.57868091844E+01  0.38001577860E+02 -0.32995916241E+02  0.50831190906E+02  0.41800000000E+01 0.  1.
         -5    1    3    3    0  502  0.73600162718E+01 -0.22011370969E+01  0.92382423737E+02  0.92795471115E+02  0.41800000000E+01 0.  1.
        -11    1    4    4    0    0 -0.49293933546E+02 -0.23857180430E+02  0.43583472829E+02  0.69989828163E+02  0.00000000000E+00 0. -1.
         11    1    4    4    0    0  0.36147108090E+02 -0.11943260334E+02 -0.15688148409E+01  0.38101391978E+02  0.00000000000E+00 0.  1.
</event>
<event>
 8    1  0.5951278E-006  0.1286607E+03  0.7561462E-02  0.1229457E+00
         -2   -1    0    0    0  501 -0.00000000000E+00  0.00000000000E+00  0.57724825532E+02  0.57724825532E+02  0.00000000000E+00 0.  1.
          2   -1    0    0  501    0  0.00000000000E+00 -0.00000000000E+00 -0.33249763648E+03  0.33249763648E+03  0.00000000000E+00 0. -1.
         23    2    1    2    0    0 -0.13176782398E+02 -0.75448519291E+02 -0.97827473816E+02  0.17630664304E+03  0.12509081137E+03 0.  0.
         23    2    1    2    0    0  0.13176782398E+02  0.75448519291E+02 -0.17694533713E+03  0.21391581897E+03  0.92651058358E+02 0.  0.
          5    1    3    3  502    0  0.45806077548E+02 -0.72789322087E+02 -0.69667964232E+02  0.11075910703E+03  0.41800000000E+01 0. -1.
         -5    1    3    3    0  502 -0.58982859946E+02 -0.26591972048E+01 -0.28159509584E+02  0.65547536011E+02  0.41800000000E+01 0. -1.
        -11    1    4    4    0    0 -0.34296428569E+02  0.40534713237E+02 -0.45730475226E+02  0.70075561747E+02  0.00000000000E+00 0.  1.
         11    1    4    4    0    0  0.47473210967E+02  0.34913806055E+02 -0.13121486190E+03  0.14384025722E+03  0.00000000000E+00 0. -1.
</event>
<event>
 8    1  0.5951278E-006  0.7503666E+02  0.7561462E-02  0.1343758E+00
         -1   -1    0    0    0  501 -0.00000000000E+00  0.00000000000E+00  0.10410775343E+03  0.10410775343E+03  0.00000000000E+00 0.  1.
          1   -1    0    0  501    0  0.00000000000E+00 -0.00000000000E+00 -0.12408206144E+03  0.12408206144E+03  0.00000000000E+00 0. -1.
         23    2    1    2    0    0  0.27600688085E+02 -0.41425542040E+02 -0.66668582672E+01  0.13479648044E+03  0.12509104933E+03 0.  0.
         23    2    1    2    0    0 -0.27600688085E+02  0.41425542040E+02 -0.13307449742E+02  0.93393334439E+02  0.77893216540E+02 0.  0.
          5    1    3    3  502    0  0.34768011073E+02 -0.21178754197E+01 -0.59108382291E+02  0.68735531185E+02  0.41800000000E+01 0.  1.
         -5    1    3    3    0  502 -0.71673229887E+01 -0.39307666621E+02  0.52441524024E+02  0.66060949251E+02  0.41800000000E+01 0.  1.
        -11    1    4    4    0    0  0.60481842323E+01 -0.10981886371E+02  0.19360731169E+02  0.23065564640E+02  0.00000000000E+00 0.  1.
         11    1    4    4    0    0 -0.33648872317E+02  0.52407428411E+02 -0.32668180911E+02  0.70327769799E+02  0.00000000000E+00 0. -1.
</event>
<event>
 8    1  0.5951278E-006  0.1152226E+03  0.7561462E-02  0.1251193E+00
          1   -1    0    0  501    0  0.00000000000E+00  0.00000000000E+00  0.29310829986E+03  0.29310829986E+03  0.00000000000E+00 0. -1.
         -1   -1    0    0    0  501 -0.00000000000E+00 -0.00000000000E+00 -0.52726889350E+02  0.52726889350E+02  0.00000000000E+00 0.  1.
         23    2    1    2    0    0  0.15137458827E+02  0.50050839681E+02  0.90303462213E+02  0.16289947782E+03  0.12508914971E+03 0.  0.
         23    2    1    2    0    0 -0.15137458827E+02 -0.50050839681E+02  0.15007794829E+03  0.18293571138E+03  0.90597211447E+02 0.  0.
          5    1    3    3  502    0 -0.20790506943E+02  0.77611628201E+02  0.85126727161E+02  0.11713172964E+03  0.41800000000E+01 0. -1.
         -5    1    3    3    0  502  0.35927965771E+02 -0.27560788520E+02  0.51767350512E+01  0.45767748186E+02  0.41800000000E+01 0. -1.
        -11    1    4    4    0    0  0.36385686008E+02 -0.63109461433E+01  0.49441414129E+02  0.61710611880E+02  0.00000000000E+00 0.  1.
         11    1    4    4    0    0 -0.51523144835E+02 -0.43739893538E+02  0.10063653416E+03  0.12122509950E+03  0.00000000000E+00 0. -1.
</event>
<event>
 8    1  0.5951278E-006  0.1503122E+03  0.7561462E-02  0.1200090E+00
          2   -1    0    0  501    0  0.00000000000E+00  0.00000000000E+00  0.68106048039E+03  0.68106048039E+03  0.00000000000E+00 0. -1.
         -2   -1    0    0    0  501 -0.00000000000E+00 -0.00000000000E+00 -0.35822224970E+02  0.35822224970E+02  0.00000000000E+00 0.  1.
         23    2    1    2    0    0 -0.94148088217E+02 -0.59891577955E+02  0.30133650106E+03  0.34482048886E+03  0.12508644629E+03 0.  0.
         23    2    1    2    0    0  0.94148088217E+02  0.59891577955E+02  0.34390175436E+03  0.37206221650E+03  0.87812371943E+02 0.  0.
          5    1    3    3  502    0 -0.30977732465E+02 -0.88788847019E+02  0.13563203754E+03  0.16509573365E+03  0.41800000000E+01 0.  1.
         -5    1    3    3    0  502 -0.63170355752E+02  0.28897269064E+02  0.16570446352E+03  0.17972475521E+03  0.41800000000E+01 0.  1.
        -11    1    4    4    0    0  0.63865111706E+02 -0.62373628970E+01  0.11267642700E+03  0.12966739910E+03  0.00000000000E+00 0.  1.
         11    1    4    4    0    0  0.30282976511E+02  0.66128940852E+02  0.23122532737E+03  0.24239481740E+03  0.00000000000E+00 0. -1.
</event>
<event>
 8    1  0.5951278E-006  0.1069574E+03  0.7561462E-02  0.1266310E+00
         -1   -1    0    0    0  501 -0.00000000000E+00  0.00000000000E+00  0.10087054008E+03  0.10087054008E+03  0.00000000000E+00 0.  1.
          1   -1    0    0  501    0  0.00000000000E+00 -0.00000000000E+00 -0.19801111303E+03  0.19801111303E+03  0.00000000000E+00 0. -1.
         23    2    1    2    0    0  0.14533889444E+02 -0.52650042514E+02  0.23489903107E+02  0.13850573166E+03  0.12509516871E+03 0.  0.
         23    2    1    2    0    0 -0.14533889444E+02  0.52650042514E+02 -0.12063047606E+03  0.16037592145E+03  0.90473551419E+02 0.  0.
          5    1    3    3  502    0 -0.49299946576E+02 -0.31781348995E+02  0.37540426210E+02  0.69766000863E+02  0.41800000000E+01 0.  1.
         -5    1    3    3    0  502  0.63833836020E+02 -0.20868693519E+02 -0.14050523103E+02  0.68739730794E+02  0.41800000000E+01 0.  1.
        -11    1    4    4    0    0  0.27202347895E+02  0.29368198469E+02 -0.10112128297E+03  0.10875648340E+03  0.00000000000E+00 0. -1.
         11    1    4    4    0    0 -0.41736237339E+02  0.23281844045E+02 -0.19509193094E+02  0.51619438050E+02  0.00000000000E+00 0.  1.
</event>
<event>
 8    1  0.5951278E-006  0.1012735E+03  0.7561462E-02  0.1277641E+00
         -2   -1    0    0    0  501 -0.00000000000E+00  0.00000000000E+00  0.13814520010E+03  0.13814520010E+03  0.00000000000E+00 0. -1.
          2   -1    0    0  501    0  0.00000000000E+00 -0.00000000000E+00 -0.11164455268E+03  0.11164455268E+03  0.00000000000E+00 0.  1.
         23    2    1    2    0    0  0.29194580364E+02 -0.31212247702E+02 -0.29547008784E+02  0.13544779494E+03  0.12508617628E+03 0.  0.
         23    2    1    2    0    0 -0.29194580364E+02  0.31212247702E+02  0.56047656211E+02  0.11434195784E+03  0.90034524641E+02 0.  0.
          5    1    3    3  502    0 -0.30709961004E+02  0.13728972274E+02  0.25493608203E+02  0.42414417876E+02  0.41800000000E+01 0. -1.
         -5    1    3    3    0  502  0.59904541368E+02 -0.44941219976E+02 -0.55040616987E+02  0.93033377063E+02  0.41800000000E+01 0. -1.
        -11    1    4    4    0    0 -0.39004658979E+02  0.55279245234E+02  0.56806918137E+02  0.88341294557E+02  0.00000000000E+00 0.  1.
         11    1    4    4    0    0  0.98100786154E+01 -0.24066997532E+02 -0.75926192616E+00  0.26000663286E+02  0.00000000000E+00 0. -1.
</event>
<event>
 8    1  0.5951278E-006  0.1738132E+03  0.7561462E-02  0.1173929E+00
         -2   -1    0    0    0  501 -0.00000000000E+00  0.00000000000E+00  0.95378040689E+02  0.95378040689E+02  0.00000000000E+00 0.  1.
          2   -1    0    0  501    0  0.00000000000E+00 -0.00000000000E+00 -0.47905435856E+03  0.47905435856E+03  0.00000000000E+00 0. -1.
         23    2    1    2    0    0 -0.16275913383E+03  0.20878954976E+01 -0.83804453963E+02  0.22173625609E+03  0.12509550674E+03 0.  0.
         23    2    1    2    0    0  0.16275913383E+03 -0.20878954976E+01 -0.29987186391E+03  0.35269614316E+03  0.89311475645E+02 0.  0.
          5    1    3    3  502    0 -0.15179610489E+02 -0.41476226687E+01  0.30729306610E+02  0.34776227989E+02  0.41800000000E+01 0.  1.
         -5    1    3    3    0  502 -0.14757952334E+03  0.62355181662E+01 -0.11453376057E+03  0.18696002810E+03  0.41800000000E+01 0.  1.
        -11    1    4    4    0    0  0.50196197094E+02  0.39188458150E+02 -0.79902652656E+02  0.10217547336E+03  0.00000000000E+00 0.  1.
         11    1    4    4    0    0  0.11256293674E+03 -0.41276353647E+02 -0.21996921125E+03  0.25052066980E+03  0.00000000000E+00 0. -1.
</event>
<event>
 8    1  0.5951278E-006  0.7399598E+02  0.7561462E-02  0.1347009E+00
          2   -1    0    0  501    0  0.00000000000E+00  0.00000000000E+00  0.71662357295E+02  0.71662357295E+02  0.00000000000E+00 0. -1.
         -2   -1    0    0    0  501 -0.00000000000E+00 -0.00000000000E+00 -0.39602983445E+03  0.39602983445E+03  0.00000000000E+00 0.  1.
         23    2    1    2    0    0 -0.19522690317E+02  0.32387222384E+02 -0.34471396115E+03  0.36865408541E+03  0.12509217428E+03 0.  0.
         23    2    1    2    0    0  0.19522690317E+02 -0.32387222384E+02  0.20346483992E+02  0.99038106341E+02  0.89244044540E+02 0.  0.
          5    1    3    3  502    0  0.87045772713E+01  0.54568872694E+02 -0.60081405750E+02  0.81736033973E+02  0.41800000000E+01 0.  1.
         -5    1    3    3    0  502 -0.28227267588E+02 -0.22181650311E+02 -0.28463255540E+03  0.28691805144E+03  0.41800000000E+01 0.  1.
        -11    1    4    4    0    0 -0.36741928022E+01 -0.33023491956E+02 -0.29258775987E+02  0.44273317992E+02  0.00000000000E+00 0.  1.
         11    1    4    4    0    0  0.23196883119E+02  0.63626957243E+00  0.49605259979E+02  0.54764788350E+02  0.00000000000E+00 0. -1.
</event>
<event>
 8    1  0.5951278E-006  0.2050896E+03  0.7561462E-02  0.1145515E+00
          2   -1    0    0  501    0  0.00000000000E+00  0.00000000000E+00  0.50262351854E+03  0.50262351854E+03  0.00000000000E+00 0. -1.
         -2   -1    0    0    0  501 -0.00000000000E+00 -0.00000000000E+00 -0.10613984209E+03  0.10613984209E+03  0.00000000000E+00 0.  1.
         23    2    1    2    0    0 -0.15466565755E+03 -0.11185158647E+03  0.29751775213E+03  0.37496640930E+03  0.12510296661E+03 0.  0.
         23    2    1    2    0    0  0.15466565755E+03  0.11185158647E+03  0.98965924326E+02  0.23379695132E+03  0.91839627883E+02 0.  0.
          5    1    3    3  502    0 -0.79744381242E+02 -0.90016409901E+02  0.81729011834E+02  0.14546210560E+03  0.41800000000E+01 0. -1.
         -5    1    3    3    0  502 -0.74921276308E+02 -0.21835176567E+02  0.21578874029E+03  0.22950430370E+03  0.41800000000E+01 0. -1.
        -11    1    4    4    0    0 -0.11890518075E+02  0.16979805583E+01  0.74881632882E+01  0.14154156545E+02  0.00000000000E+00 0. -1.
         11    1    4    4    0    0  0.16655617562E+03  0.11015360591E+03  0.91477761037E+02  0.21964279478E+03  0.00000000000E+00 0.  1.
</event>
<event>
 8    1  0.5951278E-006  0.1087596E+03  0.7561462E-02  0.1262884E+00
         -2   -1    0    0    0  501 -0.00000000000E+00  0.00000000000E+00  0.42215361109E+02  0.42215361109E+02  0.00000000000E+00 0.  1.
          2   -1    0    0  501    0  0.00000000000E+00 -0.00000000000E+00 -0.31776557999E+03  0.31776557999E+03  0.00000000000E+00 0. -1.
         23    2    1    2    0    0 -0.19666259381E+02 -0.32880915111E+02 -0.17402799746E+03  0.21771592048E+03  0.12508621745E+03 0.  0.
         23    2    1    2    0    0  0.19666259381E+02  0.32880915111E+02 -0.10152222142E+03  0.14226502062E+03  0.92003577714E+02 0.  0.
          5    1    3    3  502    0 -0.71435108893E+02 -0.86509723961E+01 -0.80764432008E+02  0.10825054265E+03  0.41800000000E+01 0. -1.
         -5    1    3    3    0  502  0.51768849511E+02 -0.24229942715E+02 -0.93263565455E+02  0.10946537784E+03  0.41800000000E+01 0. -1.
        -11    1    4    4    0    0 -0.15820407345E+02  0.47262049535E+02 -0.22971200433E+02  0.54878617549E+02  0.00000000000E+00 0.  1.
         11    1    4    4    0    0  0.35486666726E+02 -0.14381134424E+02 -0.78551020988E+02  0.87386403067E+02  0.00000000000E+00 0. -1.
</event>
<event>
 8    1  0.5951278E-006  0.8708083E+02  0.7561462E-02  0.1310079E+00
          1   -1    0    0  501    0  0.00000000000E+00  0.00000000000E+00  0.10835419001E+03  0.10835419001E+03  0.00000000000E+00 0. -1.
         -1   -1    0    0    0  501 -0.00000000000E+00 -0.00000000000E+00 -0.14221564852E+03  0.14221564852E+03  0.00000000000E+00 0.  1.
         23    2    1    2    0    0  0.46380638705E+02  0.32141844104E+02 -0.42758326719E+02  0.14373167849E+03  0.12508500753E+03 0.  0.
         23    2    1    2    0    0 -0.46380638705E+02 -0.32141844104E+02  0.88968682052E+01  0.10683816005E+03  0.90282757983E+02 0.  0.
          5    1    3    3  502    0  0.38271786399E+01 -0.10716493947E+02  0.39657984934E+02  0.41469491291E+02  0.41800000000E+01 0.  1.
         -5    1    3    3    0  502  0.42553460065E+02  0.42858338051E+02 -0.82416311653E+02  0.10226218720E+03  0.41800000000E+01 0.  1.
        -11    1    4    4    0    0 -0.22790327192E+02 -0.60477121539E+02  0.21124424842E+02  0.67993547988E+02  0.00000000000E+00 0. -1.
         11    1    4    4    0    0 -0.23590311513E+02  0.28335277435E+02 -0.12227556637E+02  0.38844612057E+02  0.00000000000E+00 0.  1.
</event>
<event>
 8    1  0.5951278E-006  0.1069427E+03  0.7561462E-02  0.1266339E+00
         -2   -1    0    0    0  501 -0.00000000000E+00  0.00000000000E+00  0.11510127548E+03  0.11510127548E+03  0.00000000000E+00 0.  1.
          2   -1    0    0  501    0  0.00000000000E+00 -0.00000000000E+00 -0.15008141786E+03  0.15008141786E+03  0.00000000000E+00 0. -1.
         23    2    1    2    0    0  0.36832020280E+02  0.29182047150E+02  0.35718803617E+02  0.13831402174E+03  0.12508695409E+03 0.  0.
         23    2    1    2    0    0 -0.36832020280E+02 -0.29182047150E+02 -0.70698946005E+02  0.12686867160E+03  0.94282178980E+02 0.  0.
          5    1    3    3  502    0  0.15580989584E+02 -0.48936017547E+02  0.22304410457E+02  0.56146773511E+02  0.41800000000E+01 0.  1.
         -5    1    3    3    0  502  0.21251030696E+02  0.78118064698E+02  0.13414393160E+02  0.82167248230E+02  0.41800000000E+01 0.  1.
        -11    1    4    4    0    0 -0.56350252541E+02 -0.22168358874E+02 -0.83085881574E+01  0.61121352519E+02  0.00000000000E+00 0.  1.
         11    1    4    4    0    0  0.19518232261E+02 -0.70136882761E+01 -0.62390357847E+02  0.65747319079E+02  0.00000000000E+00 0. -1.
</event>
<event>
 8    1  0.5951278E-006  0.1129064E+03  0.7561462E-02  0.1255280E+00
          3   -1    0    0  501    0  0.00000000000E+00  0.00000000000E+00  0.11290242704E+03  0.11290242704E+03  0.00000000000E+00 0. -1.
         -3   -1    0    0    0  501 -0.00000000000E+00 -0.00000000000E+00 -0.17451036691E+03  0.17451036691E+03  0.00000000000E+00 0.  1.
         23    2    1    2    0    0 -0.44356733605E+02  0.44920997976E+02 -0.98042291385E+02  0.17101272458E+03  0.12509054798E+03 0.  0.
         23    2    1    2    0    0  0.44356733605E+02 -0.44920997976E+02  0.36434351516E+02  0.11640006936E+03  0.90752952032E+02 0.  0.
          5    1    3    3  502    0 -0.82897988923E+02  0.39604032019E+02 -0.38361169835E+02  0.99647416779E+02  0.41800000000E+01 0.  1.
         -5    1    3    3    0  502  0.38541255318E+02  0.53169659566E+01 -0.59681121550E+02  0.71365307804E+02  0.41800000000E+01 0.  1.
        -11    1    4    4    0    0  0.50000830421E+02 -0.56772841923E+00 -0.11016328547E+02  0.51203172294E+02  0.00000000000E+00 0.  1.
         11    1    4    4    0    0 -0.56440968156E+01 -0.44353269557E+02  0.47450680063E+02  0.65196897071E+02  0.00000000000E+00 0. -1.
</event>
<event>
 8    1  0.5951278E-006  0.1821416E+03  0.7561462E-02  0.1165746E+00
         -2   -1    0    0    0  501 -0.00000000000E+00  0.00000000000E+00  0.43281765222E+02  0.43281765222E+02  0.00000000000E+00 0.  1.
          2   -1    0    0  501    0  0.00000000000E+00 -0.00000000000E+00 -0.86966455217E+03  0.86966455217E+03  0.00000000000E+00 0. -1.
         23    2    1    2    0    0 -0.14953828645E+03 -0.66696584764E+01 -0.30370822422E+03  0.36096015928E+03  0.12508943870E+03 0.  0.
         23    2    1    2    0    0  0.14953828645E+03  0.66696584764E+01 -0.52267456273E+03  0.55198615811E+03  0.95361610502E+02 0.  0.
          5    1    3    3  502    0 -0.19794479664E+02 -0.51223876998E+02 -0.11620295086E+03  0.12859356589E+03  0.41800000000E+01 0.  1.
         -5    1    3    3    0  502 -0.12974380679E+03  0.44554218522E+02 -0.18750527336E+03  0.23236659339E+03  0.41800000000E+01 0.  1.
        -11    1    4    4    0    0  0.12526198860E+03  0.39310797605E+02 -0.44932015488E+03  0.46810736608E+03  0.00000000000E+00 0.  1.
         11    1    4    4    0    0  0.24276297852E+02 -0.32641139129E+02 -0.73354407855E+02  0.83878792032E+02  0.00000000000E+00 0. -1.
</event>
<event>
 8    1  0.5951278E-006  0.1334120E+03  0.7561462E-02  0.1222479E+00
          1   -1    0    0  501    0  0.00000000000E+00  0.00000000000E+00  0.89274552268E+02  0.89274552268E+02  0.00000000000E+00 0. -1.
         -1   -1    0    0    0  501 -0.00000000000E+00 -0.00000000000E+00 -0.27913551035E+03  0.27913551035E+03  0.00000000000E+00 0.  1.
         23    2    1    2    0    0 -0.80366619688E+02  0.67042444820E+02 -0.15058071661E+03  0.22198538582E+03  0.12509786702E+03 0.  0.
         23    2    1    2    0    0  0.80366619688E+02 -0.67042444820E+02 -0.39280241472E+02  0.14642467680E+03  0.94571484279E+02 0.  0.
          5    1    3    3  502    0  0.88038960771E+00  0.43528059315E+02 -0.12664271963E+03  0.13398252822E+03  0.41800000000E+01 0.  1.
         -5    1    3    3    0  502 -0.81247009296E+02  0.23514385505E+02 -0.23937996978E+02  0.88002857593E+02  0.41800000000E+01 0.  1.
        -11    1    4    4    0    0  0.58766194202E+02  0.89102387210E+01 -0.29701528572E+01  0.59512013435E+02  0.00000000000E+00 0. -1.
         11    1    4    4    0    0  0.21600425486E+02 -0.75952683541E+02 -0.36310088615E+02  0.86912663366E+02  0.00000000000E+00 0.  1.
</event>
<event>
 8    1  0.5951278E-006  0.1202779E+03  0.7561462E-02  0.1242639E+00
         -2   -1    0    0    0  501 -0.00000000000E+00  0.00000000000E+00  0.47222553636E+02  0.47222553636E+02  0.00000000000E+00 0.  1.
          2   -1    0    0  501    0  0.00000000000E+00 -0.00000000000E+00 -0.47186902918E+03  0.47186902918E+03  0.00000000000E+00 0. -1.
         23    2    1    2    0    0 -0.10152591973E+03 -0.13270614494E+02 -0.22510850760E+03  0.27713706437E+03  0.12508993031E+03 0.  0.
         23    2    1    2    0    0  0.10152591973E+03  0.13270614494E+02 -0.19953796794E+03  0.24195451845E+03  0.90790785651E+02 0.  0.
          5    1    3    3  502    0 -0.70464829660E+02  0.14186678041E+02 -0.22418096893E+03  0.23545940899E+03  0.41800000000E+01 0. -1.
         -5    1    3    3    0  502 -0.31061090074E+02 -0.27457292534E+02 -0.92753867438E+00  0.41677655379E+02  0.41800000000E+01 0. -1.
        -11    1    4    4    0    0  0.33694961040E+02  0.41466463569E+02 -0.13104447262E+03  0.14151845040E+03  0.00000000000E+00 0.  1.
         11    1    4    4    0    0  0.67830958694E+02 -0.28195849076E+02 -0.68493495323E+02  0.10043606804E+03  0.00000000000E+00 0. -1.
</event>
<event>
 8    1  0.5951278E-006  0.1060393E+03  0.7561462E-02  0.1268085E+00
         -2   -1    0    0    0  501 -0.00000000000E+00  0.00000000000E+00  0.29676704662E+02  0.29676704662E+02  0.00000000000E+00 0.  1.
          2   -1    0    0  501    0  0.00000000000E+00 -0.00000000000E+00 -0.55850936548E+03  0.55850936548E+03  0.00000000000E+00 0. -1.
         23    2    1    2    0    0  0.14291065149E+01  0.32510319004E+02 -0.15533962013E+03  0.20208333489E+03  0.12509321913E+03 0.  0.
         23    2    1    2    0    0 -0.14291065149E+01 -0.32510319004E+02 -0.37349304069E+03  0.38610273525E+03  0.92300094985E+02 0.  0.
          5    1    3    3  502    0  0.47242839401E+02 -0.16085758156E+02 -0.11109530904E+03  0.12186171499E+03  0.41800000000E+01 0. -1.
         -5    1    3    3    0  502 -0.45813732886E+02  0.48596077160E+02 -0.44244311092E+02  0.80221619905E+02  0.41800000000E+01 0. -1.
        -11    1    4    4    0    0  0.34574625254E+02 -0.45198365880E+02 -0.17656178677E+03  0.18550569139E+03  0.00000000000E+00 0.  1.
         11    1    4    4    0    0 -0.36003731768E+02  0.12688046877E+02 -0.19693125391E+03  0.20059704385E+03  0.00000000000E+00 0. -1.
</event>
<event>
 7    1  0.5951278E-006  0.1077769E+03  0.7561462E-02  0.1264743E+00
          2   -1    0    0  501    0  0.00000000000E+00  0.00000000000E+00  0.18187135242E+03  0.18187135242E+03  0.00000000000E+00 0. -1.
         -2   -1    0    0    0  501 -0.00000000000E+00 -0.00000000000E+00 -0.12884730671E+03  0.12884730671E+03  0.00000000000E+00 0.  1.
         23    2    1    2    0    0 -0.42164216111E+02  0.55995800890E+02  0.89031450965E+02  0.14543698614E+03  0.91169988699E+02 0.  0.
          5    1    1    2  502    0 -0.21726432100E+02 -0.56565818810E+02  0.34650758780E+02  0.69927656857E+02  0.41800000000E+01 0. -1.
         -5    1    1    2    0  502  0.63890648211E+02  0.57001792081E+00 -0.70658164028E+02  0.95354016135E+02  0.41800000000E+01 0.  1.
        -11    1    3    3    0    0 -0.56392434332E+02  0.38725812806E+02  0.99488118543E+02  0.12073806756E+03  0.00000000000E+00 0. -1.
         11    1    3    3    0    0  0.14228218221E+02  0.17269988084E+02 -0.10456667578E+02  0.24698918579E+02  0.00000000000E+00 0.  1.
</event>
<event>
 8    1  0.5951278E-006  0.1290753E+03  0.7561462E-02  0.1228834E+00
          2   -1    0    0  501    0  0.00000000000E+00  0.00000000000E+00  0.21564030112E+03  0.21564030112E+03  0.00000000000E+00 0. -1.
         -2   -1    0    0    0  501 -0.00000000000E+00 -0.00000000000E+00 -0.20538400465E+03  0.20538400465E+03  0.00000000000E+00 0.  1.
         23    2    1    2    0    0  0.65925383551E+02  0.81815022350E+02 -0.14207588361E+03  0.21650577049E+03  0.12509731362E+03 0.  0.
         23    2    1    2    0    0 -0.65925383551E+02 -0.81815022350E+02  0.15233218008E+03  0.20451853528E+03  0.87079757166E+02 0.  0.
          5    1    3    3  502    0  0.24343006529E+02 -0.93646429918E+01 -0.10705641709E+03  0.11026707281E+03  0.41800000000E+01 0. -1.
         -5    1    3    3    0  502  0.41582377023E+02  0.91179665341E+02 -0.35019466513E+02  0.10623869768E+03  0.41800000000E+01 0. -1.
        -11    1    4    4    0    0 -0.12494587217E+02 -0.76754422156E+02  0.11619519827E+03  0.13981659462E+03  0.00000000000E+00 0. -1.
         11    1    4    4    0    0 -0.53430796335E+02 -0.50606001934E+01  0.36136981812E+02  0.64701940664E+02  0.00000000000E+00 0.  1.
</event>
<event>
 8    1  0.5951278E-006  0.2179062E+03  0.7561462E-02  0.1135454E+00
          1   -1    0    0  501    0  0.00000000000E+00  0.00000000000E+00  0.11666434407E+04  0.11666434407E+04  0.00000000000E+00 0. -1.
         -1   -1    0    0    0  501 -0.00000000000E+00 -0.00000000000E+00 -0.44887415061E+02  0.44887415061E+02  0.00000000000E+00 0.  1.
         23    2    1    2    0    0 -0.18526130772E+03 -0.69017473760E+02  0.49594746674E+03  0.54835275115E+03  0.12506672659E+03 0.  0.
         23    2    1    2    0    0  0.18526130772E+03  0.69017473760E+02  0.62580855894E+03  0.66317810465E+03  0.95308353402E+02 0.  0.
          5    1    3    3  502    0 -0.35804640572E+02 -0.70619549322E+02  0.12070674614E+03  0.14441843371E+03  0.41800000000E+01 0.  1.
         -5    1    3    3    0  502 -0.14945666715E+03  0.16020755625E+01  0.37524072060E+03  0.40393431743E+03  0.41800000000E+01 0.  1.
        -11    1    4    4    0    0  0.93746622086E+02  0.23473075041E+01  0.39651137710E+03  0.40744964250E+03  0.00000000000E+00 0. -1.
         11    1    4    4    0    0  0.91514685636E+02  0.66670166255E+02  0.22929718184E+03  0.25572846216E+03  0.00000000000E+00 0.  1.
</event>
<event>
 8    1  0.5951278E-006  0.1026444E+03  0.7561462E-02  0.1274832E+00
         -2   -1    0    0    0  501 -0.00000000000E+00  0.00000000000E+00  0.33938115404E+03  0.33938115404E+03  0.00000000000E+00 0.  1.
          2   -1    0    0  501    0  0.00000000000E+00 -0.00000000000E+00 -0.53369758720E+02  0.53369758720E+02  0.00000000000E+00 0. -1.
         23    2    1    2    0    0 -0.59036553586E+02 -0.27666653722E+02  0.22551278117E+03  0.26599561301E+03  0.12508754248E+03 0.  0.
         23    2    1    2    0    0  0.59036553586E+02  0.27666653722E+02  0.60498614149E+02  0.12675529974E+03  0.90310936835E+02 0.  0.
          5    1    3    3  502    0  0.18920800550E+02  0.34642393709E+02  0.82520875193E+02  0.91571061902E+02  0.41800000000E+01 0.  1.
         -5    1    3    3    0  502 -0.77957354136E+02 -0.62309047431E+02  0.14299190598E+03  0.17442455111E+03  0.41800000000E+01 0.  1.
        -11    1    4    4    0    0  0.34098479874E+02  0.20395842410E+02  0.83236254690E+02  0.92233241362E+02  0.00000000000E+00 0.  1.
         11    1    4    4    0    0  0.24938073712E+02  0.72708113121E+01 -0.22737640541E+02  0.34522058383E+02  0.00000000000E+00 0. -1.
</event>
<event>
 8    1  0.5951278E-006  0.1245277E+03  0.7561462E-02  0.1235809E+00
          2   -1    0    0  501    0  0.00000000000E+00  0.00000000000E+00  0.56491104821E+02  0.56491104821E+02  0.00000000000E+00 0. -1.
         -2   -1    0    0    0  501 -0.00000000000E+00 -0.00000000000E+00 -0.36303685137E+03  0.36303685137E+03  0.00000000000E+00 0.  1.
         23    2    1    2    0    0 -0.30992417708E+00 -0.92644821381E+02 -0.17565820518E+03  0.23470330164E+03  0.12508667305E+03 0.  0.
         23    2    1    2    0    0  0.30992417708E+00  0.92644821381E+02 -0.13088754138E+03  0.18482465455E+03  0.91899104785E+02 0.  0.
          5    1    3    3  502    0  0.29945889985E+02  0.63689616655E+01 -0.16144162116E+00  0.30900136943E+02  0.41800000000E+01 0. -1.
         -5    1    3    3    0  502 -0.30255814162E+02 -0.99013783047E+02 -0.17549676355E+03  0.20380316470E+03  0.41800000000E+01 0. -1.
        -11    1    4    4    0    0  0.17554213264E+01  0.10353626870E+03 -0.13740110836E+03  0.17205204160E+03  0.00000000000E+00 0.  1.
         11    1    4    4    0    0 -0.14454971493E+01 -0.10891447321E+02  0.65135669809E+01  0.12772612950E+02  0.00000000000E+00 0. -1.
</event>
<event>
 8    1  0.5951278E-006  0.1360904E+03  0.7561462E-02  0.1218689E+00
          2   -1    0    0  501    0  0.00000000000E+00  0.00000000000E+00  0.73359579201E+03  0.73359579201E+03  0.00000000000E+00 0. -1.
         -2   -1    0    0    0  501 -0.00000000000E+00 -0.00000000000E+00 -0.33967217916E+02  0.33967217916E+02  0.00000000000E+00 0.  1.
         23    2    1    2    0    0 -0.62451811630E+02 -0.93530744484E+02  0.33156289565E+03  0.37179198246E+03  0.12508835082E+03 0.  0.
         23    2    1    2    0    0  0.62451811630E+02  0.93530744484E+02  0.36806567844E+03  0.39577102746E+03  0.92272062907E+02 0.  0.
          5    1    3    3  502    0 -0.50704101456E+02 -0.12396804913E+02  0.32413848437E+02  0.61585035901E+02  0.41800000000E+01 0.  1.
         -5    1    3    3    0  502 -0.11747710175E+02 -0.81133939571E+02  0.29914904722E+03  0.31020694656E+03  0.41800000000E+01 0.  1.
        -11    1    4    4    0    0  0.78066067396E+02  0.93897814131E+02  0.35497841419E+03  0.37539417273E+03  0.00000000000E+00 0.  1.
         11    1    4    4    0    0 -0.15614255766E+02 -0.36706964673E+00  0.13087264245E+02  0.20376854729E+02  0.00000000000E+00 0. -1.
</event>
<event>
 8    1  0.5951278E-006  0.9238149E+02  0.7561462E-02  0.1297185E+00
         -1   -1    0    0    0  501 -0.00000000000E+00  0.00000000000E+00  0.10333913843E+03  0.10333913843E+03  0.00000000000E+00 0.  1.
          1   -1    0    0  501    0  0.00000000000E+00 -0.00000000000E+00 -0.12818180966E+03  0.12818180966E+03  0.00000000000E+00 0. -1.
         23    2    1    2    0    0 -0.16998979958E+02 -0.33038124779E+02 -0.78106308586E+01  0.13072347063E+03  0.12508851591E+03 0.  0.
         23    2    1    2    0    0  0.16998979958E+02  0.33038124779E+02 -0.17032040373E+02  0.10079747745E+03  0.92138797760E+02 0.  0.
          5    1    3    3  502    0  0.22739410182E+01 -0.67187356615E+02 -0.41281215278E+02  0.78999511590E+02  0.41800000000E+01 0. -1.
         -5    1    3    3    0  502 -0.19272920976E+02  0.34149231835E+02  0.33470584419E+02  0.51723959044E+02  0.41800000000E+01 0. -1.
        -11    1    4    4    0    0  0.43784145436E+02  0.22025937600E+02 -0.40454047653E+02  0.63550950349E+02  0.00000000000E+00 0. -1.
         11    1    4    4    0    0 -0.26785165478E+02  0.11012187179E+02  0.23422007279E+02  0.37246527102E+02  0.00000000000E+00 0.  1.
</event>
<event>
 8    1  0.5951278E-006  0.8401451E+02  0.7561462E-02  0.1318030E+00
         -2   -1    0    0    0  501 -0.00000000000E+00  0.00000000000E+00  0.17102143081E+02  0.17102143081E+02  0.00000000000E+00 0.  1.
          2   -1    0    0  501    0  0.00000000000E+00 -0.00000000000E+00 -0.57876866973E+03  0.57876866973E+03  0.00000000000E+00 0. -1.
         23    2    1    2    0    0  0.51242793237E+01  0.22379544031E+02 -0.37801411478E+03  0.39883562653E+03  0.12509230108E+03 0.  0.
         23    2    1    2    0    0 -0.51242793237E+01 -0.22379544031E+02 -0.18365241187E+03  0.19703518628E+03  0.67583681582E+02 0.  0.
          5    1    3    3  502    0 -0.40002120656E+02 -0.10052651595E+02 -0.44980425012E+02  0.61171369899E+02  0.41800000000E+01 0. -1.
         -5    1    3    3    0  502  0.45126399979E+02  0.32432195626E+02 -0.33303368976E+03  0.33766425663E+03  0.41800000000E+01 0. -1.
        -11    1    4    4    0    0 -0.14233168489E+02  0.21634269912E+02 -0.55910247844E+02  0.61616398255E+02  0.00000000000E+00 0.  1.
         11    1    4    4    0    0  0.91088891650E+01 -0.44013813943E+02 -0.12774216403E+03  0.13541878802E+03  0.00000000000E+00 0. -1.
</event>
<event>
 8    1  0.5951278E-006  0.6266549E+02  0.7561462E-02  0.1386975E+00
          2   -1    0    0  501    0  0.00000000000E+00  0.00000000000E+00  0.75530240951E+02  0.75530240951E+02  0.00000000000E+00 0. -1.
         -2   -1    0    0    0  501 -0.00000000000E+00 -0.00000000000E+00 -0.15662358933E+03  0.15662358933E+03  0.00000000000E+00 0.  1.
         23    2    1    2    0    0  0.69022826196E+01  0.87954970500E+01 -0.42708794936E+02  0.13264790209E+03  0.12508566061E+03 0.  0.
         23    2    1    2    0    0 -0.69022826196E+01 -0.87954970500E+01 -0.38384553447E+02  0.99505928194E+02  0.91121092667E+02 0.  0.
          5    1    3    3  502    0 -0.23974787571E+02  0.36451383933E+02 -0.70181734211E+02  0.82743229612E+02  0.41800000000E+01 0. -1.
         -5    1    3    3    0  502  0.30877070191E+02 -0.27655886883E+02  0.27472939275E+02  0.49904672479E+02  0.41800000000E+01 0. -1.
        -11    1    4    4    0    0 -0.22850960504E+02 -0.41107952991E+01  0.24917390202E+02  0.34057911979E+02  0.00000000000E+00 0. -1.
         11    1    4    4    0    0  0.15948677884E+02 -0.46847017509E+01 -0.63301943649E+02  0.65448016215E+02  0.00000000000E+00 0.  1.
</event>
<event>
 8    1  0.5951278E-006  0.8332695E+02  0.7561462E-02  0.1319867E+00
         -1   -1    0    0    0  501 -0.00000000000E+00  0.00000000000E+00  0.50737970805E+02  0.50737970805E+02  0.00000000000E+00 0.  1.
          1   -1    0    0  501    0  0.00000000000E+00 -0.00000000000E+00 -0.25048778169E+03  0.25048778169E+03  0.00000000000E+00 0. -1.
         23    2    1    2    0    0  0.28620391852E+02  0.12654456669E+02 -0.11948588593E+03  0.17660408189E+03  0.12622544395E+03 0.  0.
         23    2    1    2    0    0 -0.28620391852E+02 -0.12654456669E+02 -0.80263924952E+02  0.12462167060E+03  0.90049991845E+02 0.  0.
          5    1    3    3  502    0  0.64829450588E+00 -0.25205855734E+02 -0.12629761757E+03  0.12885773572E+03  0.41800000000E+01 0. -1.
         -5    1    3    3    0  502  0.27972097346E+02  0.37860312403E+02  0.68117316427E+01  0.47746346176E+02  0.41800000000E+01 0.  1.
        -11    1    4    4    0    0 -0.78698009233E+01  0.38152934661E+02 -0.22696496634E+02  0.45085598025E+02  0.00000000000E+00 0.  1.
         11    1    4    4    0    0 -0.20750590929E+02 -0.50807391330E+02 -0.57567428318E+02  0.79536072576E+02  0.00000000000E+00 0. -1.
</event>
<event>
 8    1  0.5951278E-006  0.1127994E+03  0.7561462E-02  0.1255472E+00
         -2   -1    0    0    0  501 -0.00000000000E+00  0.00000000000E+00  0.64792870062E+02  0.64792870062E+02  0.00000000000E+00 0.  1.
          2   -1    0    0  501    0  0.00000000000E+00 -0.00000000000E+00 -0.22337249803E+03  0.22337249803E+03  0.00000000000E+00 0. -1.
         23    2    1    2    0    0 -0.45305926949E+02  0.12742944071E+02 -0.64384036971E+02  0.14834959008E+03  0.12508911631E+03 0.  0.
         23    2    1    2    0    0  0.45305926949E+02 -0.12742944071E+02 -0.94195590995E+02  0.13981577801E+03  0.91981698063E+02 0.  0.
          5    1    3    3  502    0 -0.84742012518E+02  0.29643282698E+02 -0.50336421005E+02  0.10301048769E+03  0.41800000000E+01 0. -1.
         -5    1    3    3    0  502  0.39436085569E+02 -0.16900338627E+02 -0.14047615966E+02  0.45339102385E+02  0.41800000000E+01 0. -1.
        -11    1    4    4    0    0  0.53141082111E+02  0.21620539588E+02 -0.86409022343E+02  0.10372049692E+03  0.00000000000E+00 0.  1.
         11    1    4    4    0    0 -0.78351551622E+01 -0.34363483659E+02 -0.77865686521E+01  0.36095281090E+02  0.00000000000E+00 0. -1.
</event>
<event>
 8    1  0.5951278E-006  0.1083000E+03  0.7561462E-02  0.1263751E+00
         -2   -1    0    0    0  501 -0.00000000000E+00  0.00000000000E+00  0.60018709024E+02  0.60018709024E+02  0.00000000000E+00 0.  1.
          2   -1    0    0  501    0  0.00000000000E+00 -0.00000000000E+00 -0.29928395794E+03  0.29928395794E+03  0.00000000000E+00 0. -1.
         23    2    1    2    0    0 -0.58821705921E+02  0.39873420491E+01 -0.50199241327E+02  0.13936328342E+03  0.11587177807E+03 0.  0.
         23    2    1    2    0    0  0.58821705921E+02 -0.39873420491E+01 -0.18906600759E+03  0.21993938354E+03  0.95663395423E+02 0.  0.
          5    1    3    3  502    0  0.23521122262E+02 -0.71326829489E+01 -0.50331228604E+02  0.56167814015E+02  0.41800000000E+01 0. -1.
         -5    1    3    3    0  502 -0.82342828183E+02  0.11120024998E+02  0.13198727646E+00  0.83195469406E+02  0.41800000000E+01 0.  1.
        -11    1    4    4    0    0 -0.18385380730E+02 -0.22520826472E+02 -0.27988701539E+02  0.40355634841E+02  0.00000000000E+00 0.  1.
         11    1    4    4    0    0  0.77207086651E+02  0.18533484422E+02 -0.16107730605E+03  0.17958374870E+03  0.00000000000E+00 0. -1.
</event>
<event>
 7    1  0.5951278E-006  0.1229900E+03  0.7561462E-02  0.1238244E+00
          1   -1    0    0  501    0  0.00000000000E+00  0.00000000000E+00  0.26490224457E+03  0.26490224457E+03  0.00000000000E+00 0. -1.
         -1   -1    0    0    0  501 -0.00000000000E+00 -0.00000000000E+00 -0.28459350050E+03  0.28459350050E+03  0.00000000000E+00 0.  1.
         23    2    1    2    0    0 -0.14834278118E+02 -0.21749606065E+02  0.20576358616E+03  0.22642383832E+03  0.90752410417E+02 0.  0.
          5    1    1    2  502    0 -0.54456457961E+02 -0.41316891238E+02  0.10385835332E+02  0.69267086634E+02  0.41800000000E+01 0. -1.
         -5    1    1    2    0  502  0.69290736079E+02  0.63066497303E+02 -0.23584067742E+03  0.25380482012E+03  0.41800000000E+01 0.  1.
        -11    1    3    3    0    0  0.26957395620E+02 -0.30817947755E+02  0.48612020803E+02  0.63557656101E+02  0.00000000000E+00 0.  1.
         11    1    3    3    0    0 -0.41791673738E+02  0.90683416902E+01  0.15715156536E+03  0.16286618222E+03  0.00000000000E+00 0. -1.
</event>
<event>
 8    1  0.5951278E-006  0.1958878E+03  0.7561462E-02  0.1153256E+00
          2   -1    0    0  501    0  0.00000000000E+00  0.00000000000E+00  0.18318401412E+03  0.18318401412E+03  0.00000000000E+00 0. -1.
         -2   -1    0    0    0  501 -0.00000000000E+00 -0.00000000000E+00 -0.41962564747E+03  0.41962564747E+03  0.00000000000E+00 0.  1.
         23    2    1    2    0    0  0.16283539095E+03 -0.71483445847E+02 -0.31912598287E+03  0.38615546389E+03  0.12509756900E+03 0.  0.
         23    2    1    2    0    0 -0.16283539095E+03  0.71483445847E+02  0.82684349527E+02  0.21665419770E+03  0.92071125488E+02 0.  0.
          5    1    3    3  502    0  0.11169416036E+03 -0.89630137884E+02 -0.14549664348E+03  0.20419572165E+03  0.41800000000E+01 0.  1.
         -5    1    3    3    0  502  0.51141230589E+02  0.18146692037E+02 -0.17362933939E+03  0.18195974224E+03  0.41800000000E+01 0.  1.
        -11    1    4    4    0    0 -0.20223896811E+02 -0.16852203029E+02  0.31946980470E+02  0.41395800637E+02  0.00000000000E+00 0. -1.
         11    1    4    4    0    0 -0.14261149414E+03  0.88335648875E+02  0.50737369057E+02  0.17525839707E+03  0.00000000000E+00 0.  1.
</event>
<event>
 8    1  0.5951278E-006  0.1351945E+03  0.7561462E-02  0.1219945E+00
          2   -1    0    0  501    0  0.00000000000E+00  0.00000000000E+00  0.34689169968E+03  0.34689169968E+03  0.00000000000E+00 0. -1.
         -2   -1    0    0    0  501 -0.00000000000E+00 -0.00000000000E+00 -0.72129920458E+02  0.72129920458E+02  0.00000000000E+00 0.  1.
         23    2    1    2    0    0  0.31842388023E+02 -0.10578446722E+03  0.10813702387E+03  0.19885906249E+03  0.12508804748E+03 0.  0.
         23    2    1    2    0    0 -0.31842388023E+02  0.10578446722E+03  0.16662475534E+03  0.22016255764E+03  0.92214161127E+02 0.  0.
          5    1    3    3  502    0 -0.91514800383E+01  0.22381794146E+02  0.42517943882E+02  0.49091162627E+02  0.41800000000E+01 0.  1.
         -5    1    3    3    0  502  0.40993868062E+02 -0.12816626137E+03  0.65619079992E+02  0.14976789987E+03  0.41800000000E+01 0.  1.
        -11    1    4    4    0    0 -0.83642531692E+01  0.50060698246E+02  0.92763263642E+01  0.51595391953E+02  0.00000000000E+00 0.  1.
         11    1    4    4    0    0 -0.23478134854E+02  0.55723768976E+02  0.15734842898E+03  0.16856716569E+03  0.00000000000E+00 0. -1.
</event>
<event>
 8    1  0.5951278E-006  0.1551917E+03  0.7561462E-02  0.1194235E+00
          2   -1    0    0  501    0  0.00000000000E+00  0.00000000000E+00  0.70427356984E+03  0.70427356984E+03  0.00000000000E+00 0. -1.
         -2   -1    0    0    0  501 -0.00000000000E+00 -0.00000000000E+00 -0.49933188673E+02  0.49933188673E+02  0.00000000000E+00 0.  1.
         23    2    1    2    0    0  0.45364427339E+02 -0.12342347255E+03  0.18867215679E+03  0.26179357771E+03  0.12508960684E+03 0.  0.
         23    2    1    2    0    0 -0.45364427339E+02  0.12342347255E+03  0.46566822439E+03  0.49241318081E+03  0.91282860321E+02 0.  0.
          5    1    3    3  502    0  0.53015336873E+02 -0.15212307621E+02  0.15565021385E+02  0.57461139370E+02  0.41800000000E+01 0.  1.
         -5    1    3    3    0  502 -0.76509095342E+01 -0.10821116493E+03  0.17310713540E+03  0.20433243834E+03  0.41800000000E+01 0.  1.
        -11    1    4    4    0    0  0.11972216268E+02  0.59269975270E+02  0.29670490844E+03  0.30280367670E+03  0.00000000000E+00 0.  1.
         11    1    4    4    0    0 -0.57336643607E+02  0.64153497277E+02  0.16896331595E+03  0.18960950411E+03  0.00000000000E+00 0. -1.
</event>
<event>
 8    1  0.5951278E-006  0.9500329E+02  0.7561462E-02  0.1291169E+00
         -2   -1    0    0    0  501 -0.00000000000E+00  0.00000000000E+00  0.83589480188E+02  0.83589480188E+02  0.00000000000E+00 0.  1.
          2   -1    0    0  501    0  0.00000000000E+00 -0.00000000000E+00 -0.17264645942E+03  0.17264645942E+03  0.00000000000E+00 0. -1.
         23    2    1    2    0    0 -0.10520050468E+02 -0.27395710117E+02 -0.13799953729E+01  0.12849438469E+03  0.12509079149E+03 0.  0.
         23    2    1    2    0    0  0.10520050468E+02  0.27395710117E+02 -0.87676983859E+02  0.12774155492E+03  0.88144511794E+02 0.  0.
          5    1    3    3  502    0 -0.48914209059E+02 -0.31513325106E+02  0.40775165110E+02  0.71174264990E+02  0.41800000000E+01 0.  1.
         -5    1    3    3    0  502  0.38394158591E+02  0.41176149892E+01 -0.42155160483E+02  0.57320119700E+02  0.41800000000E+01 0.  1.
        -11    1    4    4    0    0 -0.32876948393E+02  0.35822484446E+02 -0.48418469860E+02  0.68618454887E+02  0.00000000000E+00 0.  1.
         11    1    4    4    0    0  0.43396998861E+02 -0.84267743295E+01 -0.39258513999E+02  0.59123100030E+02  0.00000000000E+00 0. -1.
</event>
<event>
 8    1  0.5951278E-006  0.1124136E+03  0.7561462E-02  0.1256164E+00
          3   -1    0    0  501    0  0.00000000000E+00  0.00000000000E+00  0.17531151372E+02  0.17531151372E+02  0.00000000000E+00 0. -1.
         -3   -1    0    0    0  501 -0.00000000000E+00 -0.00000000000E+00 -0.76766644373E+03  0.76766644373E+03  0.00000000000E+00 0.  1.
         23    2    1    2    0    0 -0.15434074326E+01 -0.34849855153E+02 -0.42637226164E+03  0.44570989688E+03  0.12508841742E+03 0.  0.
         23    2    1    2    0    0  0.15434074326E+01  0.34849855153E+02 -0.32376303072E+03  0.33948769822E+03  0.95981783027E+02 0.  0.
          5    1    3    3  502    0  0.47712690205E+02 -0.57531097895E+02 -0.26802032316E+03  0.27827808764E+03  0.41800000000E+01 0.  1.
         -5    1    3    3    0  502 -0.49256097638E+02  0.22681242743E+02 -0.15835193847E+03  0.16743180924E+03  0.41800000000E+01 0.  1.
        -11    1    4    4    0    0  0.43498863318E+02  0.43609201003E+01 -0.20938960898E+03  0.21390459809E+03  0.00000000000E+00 0.  1.
         11    1    4    4    0    0 -0.41955455885E+02  0.30488935052E+02 -0.11437342174E+03  0.12558310013E+03  0.00000000000E+00 0. -1.
</event>
<event>
 8    1  0.5951278E-006  0.9610930E+02  0.7561462E-02  0.1288697E+00
         -1   -1    0    0    0  501 -0.00000000000E+00  0.00000000000E+00  0.73140670929E+03  0.73140670929E+03  0.00000000000E+00 0.  1.
          1   -1    0    0  501    0  0.00000000000E+00 -0.00000000000E+00 -0.20720874009E+02  0.20720874009E+02  0.00000000000E+00 0. -1.
         23    2    1    2    0    0  0.56252657656E+02 -0.17665804761E+02  0.39839718270E+03  0.42171613584E+03  0.12509093449E+03 0.  0.
         23    2    1    2    0    0 -0.56252657656E+02  0.17665804761E+02  0.31228865258E+03  0.33041144746E+03  0.90394025969E+02 0.  0.
          5    1    3    3  502    0  0.14201192123E+02 -0.48636581565E+02  0.57233155078E+02  0.76552579082E+02  0.41800000000E+01 0.  1.
         -5    1    3    3    0  502  0.42051465533E+02  0.30970776803E+02  0.34116402762E+03  0.34516355676E+03  0.41800000000E+01 0.  1.
        -11    1    4    4    0    0  0.50006255286E+01  0.26616874317E+02  0.26127765081E+02  0.37631427853E+02  0.00000000000E+00 0. -1.
         11    1    4    4    0    0 -0.61253283185E+02 -0.89510695555E+01  0.28616088749E+03  0.29278001960E+03  0.00000000000E+00 0.  1.
</event>
<event>
 8    1  0.1078564E-005  0.2665534E+03  0.7561462E-02  0.1103269E+00
          2   -1    0    0  501    0  0.00000000000E+00  0.00000000000E+00  0.91093730155E+03  0.91093730155E+03  0.00000000000E+00 0. -1.
         -2   -1    0    0    0  501 -0.00000000000E+00 -0.00000000000E+00 -0.12694750906E+03  0.12694750906E+03  0.00000000000E+00 0.  1.
         23    2    1    2    0    0 -0.21931595495E+03 -0.12987451262E+03  0.97873725119E+02  0.30032218001E+03  0.12508904274E+03 0.  0.
         23    2    1    2    0    0  0.21931595495E+03  0.12987451262E+03  0.68611606737E+03  0.73756263060E+03  0.90975266028E+02 0.  0.
          5    1    3    3  502    0 -0.51153375565E+02 -0.70532495933E+02 -0.16018423429E+02  0.88688009919E+02  0.41800000000E+01 0. -1.
         -5    1    3    3    0  502 -0.16816257938E+03 -0.59342016686E+02  0.11389214855E+03  0.21163417009E+03  0.41800000000E+01 0. -1.
        -11    1    4    4    0    0  0.16793882828E+03  0.55038361843E+02  0.50380307308E+03  0.53390093441E+03  0.00000000000E+00 0. -1.
         11    1    4    4    0    0  0.51377126672E+02  0.74836150776E+02  0.18231299429E+03  0.20366169619E+03  0.00000000000E+00 0.  1.
</event>
<event>
 8    1  0.5951278E-006  0.2248475E+03  0.7561462E-02  0.1130320E+00
          1   -1    0    0  501    0  0.00000000000E+00  0.00000000000E+00  0.14342832309E+04  0.14342832309E+04  0.00000000000E+00 0. -1.
         -1   -1    0    0    0  501 -0.00000000000E+00 -0.00000000000E+00 -0.44999018067E+02  0.44999018067E+02  0.00000000000E+00 0.  1.
         23    2    1    2    0    0  0.40645800232E+02 -0.21104312689E+03  0.47853100518E+03  0.53928718532E+03  0.12508981914E+03 0.  0.
         23    2    1    2    0    0 -0.40645800232E+02  0.21104312689E+03  0.91075320770E+03  0.93999506369E+03  0.89039496521E+02 0.  0.
          5    1    3    3  502    0  0.58083142363E+02 -0.20297506845E+03  0.47428829728E+03  0.51917183204E+03  0.41800000000E+01 0. -1.
         -5    1    3    3    0  502 -0.17437342131E+02 -0.80680584391E+01  0.42427078933E+01  0.20115353286E+02  0.41800000000E+01 0. -1.
        -11    1    4    4    0    0 -0.11780396217E+02  0.91340846579E+01  0.14388421814E+02  0.20718009554E+02  0.00000000000E+00 0.  1.
         11    1    4    4    0    0 -0.28865404015E+02  0.20190904223E+03  0.89636478588E+03  0.91927705413E+03  0.00000000000E+00 0. -1.
</event>
<event>
 8    1  0.5951278E-006  0.1370754E+03  0.7561462E-02  0.1217319E+00
          2   -1    0    0  501    0  0.00000000000E+00  0.00000000000E+00  0.22714140467E+03  0.22714140467E+03  0.00000000000E+00 0. -1.
         -2   -1    0    0    0  501 -0.00000000000E+00 -0.00000000000E+00 -0.99426353205E+02  0.99426353205E+02  0.00000000000E+00 0.  1.
         23    2    1    2    0    0 -0.98029848222E+02 -0.16558624060E+02  0.38692485950E+02  0.16440474434E+03  0.12509105611E+03 0.  0.
         23    2    1    2    0    0  0.98029848222E+02  0.16558624060E+02  0.89022565518E+02  0.16216301354E+03  0.92129184386E+02 0.  0.
          5    1    3    3  502    0 -0.12010841707E+03 -0.31211000440E+02  0.91565999677E+01  0.12450491606E+03  0.41800000000E+01 0.  1.
         -5    1    3    3    0  502  0.22078568850E+02  0.14652376380E+02  0.29535885982E+02  0.39899828280E+02  0.41800000000E+01 0.  1.
        -11    1    4    4    0    0  0.10589958086E+03  0.27750729434E+02  0.49138717144E+02  0.11999765720E+03  0.00000000000E+00 0.  1.
         11    1    4    4    0    0 -0.78697326352E+01 -0.11192105374E+02  0.39883848375E+02  0.42165356344E+02  0.00000000000E+00 0. -1.
</event>
<event>
 8    1  0.5951278E-006  0.1175540E+03  0.7561462E-02  0.1247188E+00
         -1   -1    0    0    0  501 -0.00000000000E+00  0.00000000000E+00  0.19766478962E+02  0.19766478962E+02  0.00000000000E+00 0.  1.
          1   -1    0    0  501    0  0.00000000000E+00 -0.00000000000E+00 -0.72213765960E+03  0.72213765960E+03  0.00000000000E+00 0. -1.
         23    2    1    2    0    0 -0.11532412252E+02 -0.48490262216E+02 -0.36329927063E+03  0.38745056591E+03  0.12508908392E+03 0.  0.
         23    2    1    2    0    0  0.11532412252E+02  0.48490262216E+02 -0.33907191000E+03  0.35445357265E+03  0.90461444557E+02 0.  0.
          5    1    3    3  502    0 -0.15571553820E+02  0.41476109866E+02 -0.12015542902E+03  0.12813095060E+03  0.41800000000E+01 0. -1.
         -5    1    3    3    0  502  0.40391415680E+01 -0.89966372082E+02 -0.24314384161E+03  0.25931961531E+03  0.41800000000E+01 0. -1.
        -11    1    4    4    0    0 -0.25051539177E+02 -0.13512396725E+02 -0.13740621435E+03  0.14032331319E+03  0.00000000000E+00 0.  1.
         11    1    4    4    0    0  0.36583951429E+02  0.62002658941E+02 -0.20166569565E+03  0.21413025947E+03  0.00000000000E+00 0. -1.
</event>
<event>
 8    1  0.5951278E-006  0.9349432E+02  0.7561462E-02  0.1294604E+00
          2   -1    0    0  501    0  0.00000000000E+00  0.00000000000E+00  0.32182358207E+03  0.32182358207E+03  0.00000000000E+00 0. -1.
         -2   -1    0    0    0  501 -0.00000000000E+00 -0.00000000000E+00 -0.37959366048E+02  0.37959366048E+02  0.00000000000E+00 0.  1.
         23    2    1    2    0    0 -0.67262768219E+01 -0.25574452323E+02  0.13833359314E+03  0.18831953083E+03  0.12501506825E+03 0.  0.
         23    2    1    2    0    0  0.67262768219E+01  0.25574452323E+02  0.14553062289E+03  0.17146341730E+03  0.86725116662E+02 0.  0.
          5    1    3    3  502    0  0.36566976049E+02 -0.58893065914E+02  0.55005028532E+02  0.88592113159E+02  0.41800000000E+01 0. -1.
         -5    1    3    3    0  502 -0.43293252871E+02  0.33318613592E+02  0.83328564604E+02  0.99727417669E+02  0.41800000000E+01 0. -1.
        -11    1    4    4    0    0  0.30668851788E+02  0.23655137203E+02  0.19876374225E+02  0.43534058372E+02  0.00000000000E+00 0.  1.
         11    1    4    4    0    0 -0.23942574966E+02  0.19193151199E+01  0.12565424867E+03  0.12792935892E+03  0.00000000000E+00 0. -1.
</event>
<event>
 7    1  0.5951278E-006  0.8140613E+02  0.7561462E-02  0.1325108E+00
         -2   -1    0    0    0  501 -0.00000000000E+00  0.00000000000E+00  0.54938820631E+02  0.54938820631E+02  0.00000000000E+00 0.  1.
          2   -1    0    0  501    0  0.00000000000E+00 -0.00000000000E+00 -0.45505993429E+03  0.45505993429E+03  0.00000000000E+00 0. -1.
         23    2    1    2    0    0  0.27969842176E+02 -0.27300855882E+02 -0.34941829215E+03  0.36302033256E+03  0.90349156938E+02 0.  0.
          5    1    1    2  502    0  0.15459665205E+02  0.22217729648E+01 -0.84711142170E+02  0.86240289489E+02  0.41800000000E+01 0. -1.
         -5    1    1    2    0  502 -0.43429507381E+02  0.25079082917E+02  0.34008320657E+02  0.60738132876E+02  0.41800000000E+01 0.  1.
        -11    1    3    3    0    0 -0.22743484083E+02  0.17464308306E+02 -0.14145541127E+03  0.14433260723E+03  0.00000000000E+00 0.  1.
         11    1    3    3    0    0  0.50713326259E+02 -0.44765164188E+02 -0.20796288088E+03  0.21868772533E+03  0.00000000000E+00 0. -1.
</event>
<event>
 8    1  0.5951278E-006  0.1074204E+03  0.7561462E-02  0.1265423E+00
          3   -1    0    0  501    0  0.00000000000E+00  0.00000000000E+00  0.17263253680E+03  0.17263253680E+03  0.00000000000E+00 0. -1.
         -3   -1    0    0    0  501 -0.00000000000E+00 -0.00000000000E+00 -0.10085937483E+03  0.10085937483E+03  0.00000000000E+00 0.  1.
         23    2    1    2    0    0  0.30395517053E+02 -0.52871894841E+02  0.49743872095E+00  0.13916419993E+03  0.12508837826E+03 0.  0.
         23    2    1    2    0    0 -0.30395517053E+02  0.52871894841E+02  0.71275723250E+02  0.13432771170E+03  0.96147702440E+02 0.  0.
          5    1    3    3  502    0 -0.21407863075E+02  0.16930676105E+02  0.35833837593E+02  0.45238044956E+02  0.41800000000E+01 0. -1.
         -5    1    3    3    0  502  0.51803380129E+02 -0.69802570946E+02 -0.35336398872E+02  0.93926154976E+02  0.41800000000E+01 0. -1.
        -11    1    4    4    0    0  0.24530997228E+02  0.34406293892E+02  0.62903386285E+02  0.75778617634E+02  0.00000000000E+00 0. -1.
         11    1    4    4    0    0 -0.54926514282E+02  0.18465600949E+02  0.83723369649E+01  0.58549094065E+02  0.00000000000E+00 0.  1.
</event>
<event>
 8    1  0.5951278E-006  0.8182302E+02  0.7561462E-02  0.1323956E+00
         -2   -1    0    0    0  501 -0.00000000000E+00  0.00000000000E+00  0.43706048239E+02  0.43706048239E+02  0.00000000000E+00 0.  1.
          2   -1    0    0  501    0  0.00000000000E+00 -0.00000000000E+00 -0.26939033494E+03  0.26939033494E+03  0.00000000000E+00 0. -1.
         23    2    1    2    0    0 -0.55991533656E+01 -0.84997117651E+01 -0.12970536257E+03  0.18048508534E+03  0.12509112413E+03 0.  0.
         23    2    1    2    0    0  0.55991533656E+01  0.84997117651E+01 -0.95978924141E+02  0.13261129784E+03  0.90940677459E+02 0.  0.
          5    1    3    3  502    0 -0.46105607116E+02  0.60939500273E+01 -0.12903338361E+03  0.13722226394E+03  0.41800000000E+01 0.  1.
         -5    1    3    3    0  502  0.40506453751E+02 -0.14593661792E+02 -0.67197895053E+00  0.43262821402E+02  0.41800000000E+01 0.  1.
        -11    1    4    4    0    0  0.33120216580E+02 -0.16059664288E+02 -0.86488371960E+01  0.37810897215E+02  0.00000000000E+00 0.  1.
         11    1    4    4    0    0 -0.27521063215E+02  0.24559376053E+02 -0.87330086945E+02  0.94800400623E+02  0.00000000000E+00 0. -1.
</event>
<event>
 7    1  0.5951278E-006  0.5502255E+02  0.7561462E-02  0.1419992E+00
          1   -1    0    0  501    0  0.00000000000E+00  0.00000000000E+00  0.26084593176E+03  0.26084593176E+03  0.00000000000E+00 0. -1.
         -1   -1    0    0    0  501 -0.00000000000E+00 -0.00000000000E+00 -0.29983364092E+02  0.29983364092E+02  0.00000000000E+00 0.  1.
         23    2    1    2    0    0  0.53373736992E+01  0.31780795132E+01  0.14635317399E+03  0.19262961744E+03  0.12509328611E+03 0.  0.
          5    1    3    3  502    0 -0.30002906159E+02 -0.17251954338E+02 -0.55338283564E+01  0.35297308151E+02  0.41800000000E+01 0. -1.
         -5    1    3    3    0  502  0.35340279858E+02  0.20430033851E+02  0.15188700235E+03  0.15733230929E+03  0.41800000000E+01 0. -1.
        -11    1    1    2    0    0 -0.19251054186E+02  0.18869342121E+01  0.80595456222E+02  0.82884203390E+02  0.00000000000E+00 0. -1.
         11    1    1    2    0    0  0.13913680486E+02 -0.50650137253E+01  0.39139374520E+01  0.15315475020E+02  0.00000000000E+00 0.  1.
</event>
<event>
 8    1  0.5951278E-006  0.1247873E+03  0.7561462E-02  0.1235402E+00
          2   -1    0    0  501    0  0.00000000000E+00  0.00000000000E+00  0.55078315234E+03  0.55078315234E+03  0.00000000000E+00 0. -1.
         -2   -1    0    0    0  501 -0.00000000000E+00 -0.00000000000E+00 -0.37006241751E+02  0.37006241751E+02  0.00000000000E+00 0.  1.
         23    2    1    2    0    0 -0.40203853709E+02 -0.58312488087E+02  0.13935355723E+03  0.19490220348E+03  0.11640772692E+03 0.  0.
         23    2    1    2    0    0  0.40203853709E+02  0.58312488087E+02  0.37442335336E+03  0.39288719062E+03  0.95659818587E+02 0.  0.
          5    1    3    3  502    0 -0.19195392023E+02 -0.91232449759E+02  0.11717494877E+03  0.14979740980E+03  0.41800000000E+01 0. -1.
         -5    1    3    3    0  502 -0.21008461685E+02  0.32919961672E+02  0.22178608459E+02  0.45104793671E+02  0.41800000000E+01 0.  1.
        -11    1    4    4    0    0 -0.17916325653E+00 -0.24679557997E+02  0.52809214598E+02  0.58291730364E+02  0.00000000000E+00 0.  1.
         11    1    4    4    0    0  0.40383016965E+02  0.82992046084E+02  0.32161413876E+03  0.33459546025E+03  0.00000000000E+00 0. -1.
</event>
<event>
 8    1  0.5951278E-006  0.1446707E+03  0.7561462E-02  0.1207179E+00
         -2   -1    0    0    0  501 -0.00000000000E+00  0.00000000000E+00  0.40349276855E+02  0.40349276855E+02  0.00000000000E+00 0.  1.
          2   -1    0    0  501    0  0.00000000000E+00 -0.00000000000E+00 -0.54473094551E+03  0.54473094551E+03  0.00000000000E+00 0. -1.
         23    2    1    2    0    0 -0.76500757614E+02 -0.64969001202E+02 -0.27915263309E+03  0.32194961892E+03  0.12510806340E+03 0.  0.
         23    2    1    2    0    0  0.76500757614E+02  0.64969001202E+02 -0.22522903556E+03  0.26313060344E+03  0.91849109831E+02 0.  0.
          5    1    3    3  502    0 -0.10892699641E+03 -0.31191385181E+02 -0.19711272205E+03  0.22739588970E+03  0.41800000000E+01 0.  1.
         -5    1    3    3    0  502  0.32426238794E+02 -0.33777616021E+02 -0.82039911042E+02  0.94553729224E+02  0.41800000000E+01 0.  1.
        -11    1    4    4    0    0  0.40516787776E+02 -0.13432497388E+02 -0.38688957000E+02  0.57609699457E+02  0.00000000000E+00 0.  1.
         11    1    4    4    0    0  0.35983969838E+02  0.78401498590E+02 -0.18654007856E+03  0.20552090399E+03  0.00000000000E+00 0. -1.
</event>
<event>
 8    1  0.1489283E-005  0.3861199E+03  0.7561462E-02  0.1048695E+00
         -2   -1    0    0    0  501 -0.00000000000E+00  0.00000000000E+00  0.12271465393E+03  0.12271465393E+03  0.00000000000E+00 0.  1.
          2   -1    0    0  501    0  0.00000000000E+00 -0.00000000000E+00 -0.13031376654E+04  0.13031376654E+04  0.00000000000E+00 0. -1.
         23    2    1    2    0    0 -0.17813407804E+01 -0.37602987931E+03 -0.45176043800E+03  0.60094633814E+03  0.12508942669E+03 0.  0.
         23    2    1    2    0    0  0.17813407804E+01  0.37602987931E+03 -0.72866257343E+03  0.82490598115E+03  0.90105984933E+02 0.  0.
          5    1    3    3  502    0 -0.44879878607E+02 -0.63272690177E+02 -0.62328816793E+02  0.99599149739E+02  0.41800000000E+01 0.  1.
         -5    1    3    3    0  502  0.43098537827E+02 -0.31275718914E+03 -0.38943162121E+03  0.50134718840E+03  0.41800000000E+01 0.  1.
        -11    1    4    4    0    0 -0.21039167354E+02  0.12602590837E+03 -0.32899477289E+03  0.35293446521E+03  0.00000000000E+00 0.  1.
         11    1    4    4    0    0  0.22820508135E+02  0.25000397094E+03 -0.39966780054E+03  0.47197151595E+03  0.00000000000E+00 0. -1.
</event>
<event>
 8    1  0.5951278E-006  0.1512286E+03  0.7561462E-02  0.1198971E+00
         -2   -1    0    0    0  501 -0.00000000000E+00  0.00000000000E+00  0.38329395521E+03  0.38329395521E+03  0.00000000000E+00 0. -1.
          2   -1    0    0  501    0  0.00000000000E+00 -0.00000000000E+00 -0.94839789085E+02  0.94839789085E+02  0.00000000000E+00 0.  1.
         23    2    1    2    0    0  0.10384618323E+03 -0.97911845151E+02  0.23261992451E+03  0.30021270618E+03  0.12507949664E+03 0.  0.
         23    2    1    2    0    0 -0.10384618323E+03  0.97911845151E+02  0.55834241613E+02  0.17792103812E+03  0.90375185060E+02 0.  0.
          5    1    3    3  502    0  0.52859820027E+02 -0.89996901384E+02  0.61016688419E+02  0.12097153177E+03  0.41800000000E+01 0. -1.
         -5    1    3    3    0  502  0.50986363207E+02 -0.79149437674E+01  0.17160323609E+03  0.17924117442E+03  0.41800000000E+01 0. -1.
        -11    1    4    4    0    0 -0.69527430874E+02  0.84405281495E+02 -0.19484845588E+01  0.10937143951E+03  0.00000000000E+00 0.  1.
         11    1    4    4    0    0 -0.34318752361E+02  0.13506563657E+02  0.57782726172E+02  0.68549598608E+02  0.00000000000E+00 0. -1.
</event>
<event>
 8    1  0.5951278E-006  0.1212638E+03  0.7561462E-02  0.1241027E+00
         -1   -1    0    0    0  501 -0.00000000000E+00  0.00000000000E+00  0.18340697362E+03  0.18340697362E+03  0.00000000000E+00 0.  1.
          1   -1    0    0  501    0  0.00000000000E+00 -0.00000000000E+00 -0.10028032530E+03  0.10028032530E+03  0.00000000000E+00 0. -1.
         23    2    1    2    0    0  0.50649771889E+02 -0.61079215769E+02  0.61086434828E+02  0.16021071883E+03  0.12505939355E+03 0.  0.
         23    2    1    2    0    0 -0.50649771889E+02  0.61079215769E+02  0.22040213483E+02  0.12347658009E+03  0.92003395750E+02 0.  0.
          5    1    3    3  502    0  0.49492457126E+02 -0.88954844208E+02  0.10671469820E+02  0.10243934932E+03  0.41800000000E+01 0. -1.
         -5    1    3    3    0  502  0.11573147626E+01  0.27875628440E+02  0.50414965007E+02  0.57771369510E+02  0.41800000000E+01 0. -1.
        -11    1    4    4    0    0  0.86909950506E+01 -0.14157517712E+02 -0.13366547214E+02  0.21322131393E+02  0.00000000000E+00 0. -1.
         11    1    4    4    0    0 -0.59340766939E+02  0.75236733481E+02  0.35406760697E+02  0.10215444870E+03  0.00000000000E+00 0.  1.
</event>
<event>
 8    1  0.5951278E-006  0.1669473E+03  0.7561462E-02  0.1181069E+00
         -1   -1    0    0    0  501 -0.00000000000E+00  0.00000000000E+00  0.41016048827E+02  0.41016048827E+02  0.00000000000E+00 0. -1.
          1   -1    0    0  501    0  0.00000000000E+00 -0.00000000000E+00 -0.88276682060E+03  0.88276682060E+03  0.00000000000E+00 0.  1.
         23    2    1    2    0    0  0.19825932301E+02 -0.15446629058E+03 -0.37052620203E+03  0.42094112521E+03  0.12509541154E+03 0.  0.
         23    2    1    2    0    0 -0.19825932301E+02  0.15446629058E+03 -0.47122456974E+03  0.50284174421E+03  0.80896984366E+02 0.  0.
          5    1    3    3  502    0  0.19150650133E+02 -0.47297883900E+02 -0.26703693797E+03  0.27190078312E+03  0.41800000000E+01 0.  1.
         -5    1    3    3    0  502  0.67528216814E+00 -0.10716840668E+03 -0.10348926407E+03  0.14904034210E+03  0.41800000000E+01 0.  1.
        -11    1    4    4    0    0  0.21881592309E+02  0.11809500513E+03 -0.31711029418E+03  0.33909316270E+03  0.00000000000E+00 0.  1.
         11    1    4    4    0    0 -0.41707524610E+02  0.36371285449E+02 -0.15411427556E+03  0.16374858151E+03  0.00000000000E+00 0. -1.
</event>
<event>
 8    1  0.5951278E-006  0.1370409E+03  0.7561462E-02  0.1217367E+00
          2   -1    0    0  501    0  0.00000000000E+00  0.00000000000E+00  0.37404510701E+02  0.37404510701E+02  0.00000000000E+00 0.  1.
         -2   -1    0    0    0  501 -0.00000000000E+00 -0.00000000000E+00 -0.65509024007E+03  0.65509024007E+03  0.00000000000E+00 0. -1.
         23    2    1    2    0    0  0.60089738649E+02  0.61876125326E+02 -0.49168606821E+03  0.51462831080E+03  0.12509067525E+03 0.  0.
         23    2    1    2    0    0 -0.60089738649E+02 -0.61876125326E+02 -0.12599966116E+03  0.17786643996E+03  0.91220196653E+02 0.  0.
          5    1    3    3  502    0 -0.25266613177E+02 -0.19106086245E+02 -0.14559585831E+03  0.14906062737E+03  0.41800000000E+01 0.  1.
         -5    1    3    3    0  502  0.85356351825E+02  0.80982211572E+02 -0.34609020990E+03  0.36556768344E+03  0.41800000000E+01 0.  1.
        -11    1    4    4    0    0 -0.28032759482E+02 -0.81923246237E+02 -0.98297409612E+02  0.13099478850E+03  0.00000000000E+00 0. -1.
         11    1    4    4    0    0 -0.32056979166E+02  0.20047120911E+02 -0.27702251546E+02  0.46871651463E+02  0.00000000000E+00 0.  1.
</event>
<event>
 8    1  0.5951278E-006  0.1378796E+03  0.7561462E-02  0.1216211E+00
          1   -1    0    0  501    0  0.00000000000E+00  0.00000000000E+00  0.39329151161E+03  0.39329151161E+03  0.00000000000E+00 0. -1.
         -1   -1    0    0    0  501 -0.00000000000E+00 -0.00000000000E+00 -0.62351544466E+02  0.62351544466E+02  0.00000000000E+00 0.  1.
         23    2    1    2    0    0  0.31361389814E+02 -0.92621654911E+02  0.96326510025E+02  0.18571060091E+03  0.12508926023E+03 0.  0.
         23    2    1    2    0    0 -0.31361389814E+02  0.92621654911E+02  0.23461345712E+03  0.26993245517E+03  0.90872153944E+02 0.  0.
          5    1    3    3  502    0  0.11510767435E+02  0.22371081852E+02 -0.10375103978E+02  0.27533220893E+02  0.41800000000E+01 0.  1.
         -5    1    3    3    0  502  0.19850622379E+02 -0.11499273676E+03  0.10670161400E+03  0.15817738001E+03  0.41800000000E+01 0.  1.
        -11    1    4    4    0    0  0.22745218623E+02  0.72128328287E+02  0.13402879944E+03  0.15389463860E+03  0.00000000000E+00 0.  1.
         11    1    4    4    0    0 -0.54106608437E+02  0.20493326624E+02  0.10058465768E+03  0.11603781657E+03  0.00000000000E+00 0. -1.
</event>
<event>
 7    1  0.5951278E-006  0.1473265E+03  0.7561462E-02  0.1203797E+00
         -4   -1    0    0    0  501 -0.00000000000E+00  0.00000000000E+00  0.19483392211E+03  0.19483392211E+03  0.00000000000E+00 0.  1.
          4   -1    0    0  501    0  0.00000000000E+00 -0.00000000000E+00 -0.13834529587E+03  0.13834529587E+03  0.00000000000E+00 0. -1.
         23    2    1    2    0    0  0.77567620916E+02  0.81519488394E+02  0.36378199030E+02  0.14889172785E+03  0.90461099125E+02 0.  0.
          5    1    1    2  502    0  0.27164240827E+01 -0.97872236067E+02  0.27862390955E+02  0.10188296610E+03  0.41800000000E+01 0. -1.
         -5    1    1    2    0  502 -0.80284044999E+02  0.16352747673E+02 -0.77519637458E+01  0.82404524025E+02  0.41800000000E+01 0. -1.
        -11    1    3    3    0    0  0.72049105962E+02  0.64427459522E+02  0.64015603215E+02  0.11593087883E+03  0.00000000000E+00 0.  1.
         11    1    3    3    0    0  0.55185149539E+01  0.17092028871E+02 -0.27637404185E+02  0.32960849023E+02  0.00000000000E+00 0. -1.
</event>
<event>
 8    1  0.5951278E-006  0.1091333E+03  0.7561462E-02  0.1262183E+00
         -1   -1    0    0    0  501 -0.00000000000E+00  0.00000000000E+00  0.22031329615E+03  0.22031329615E+03  0.00000000000E+00 0.  1.
          1   -1    0    0  501    0  0.00000000000E+00 -0.00000000000E+00 -0.89524639627E+02  0.89524639627E+02  0.00000000000E+00 0. -1.
         23    2    1    2    0    0  0.36426105189E+02 -0.24099773789E+02  0.15829366440E+03  0.20642590019E+03  0.12508840013E+03 0.  0.
         23    2    1    2    0    0 -0.36426105189E+02  0.24099773789E+02 -0.27505007877E+02  0.10341203558E+03  0.89609505121E+02 0.  0.
          5    1    3    3  502    0 -0.92181599478E+01 -0.68116213567E+02  0.78681030816E+02  0.10456084369E+03  0.41800000000E+01 0. -1.
         -5    1    3    3    0  502  0.45644265137E+02  0.44016439778E+02  0.79612633580E+02  0.10186505650E+03  0.41800000000E+01 0. -1.
        -11    1    4    4    0    0 -0.55550698934E+02  0.33157237720E+02  0.47140038552E+01  0.64865278829E+02  0.00000000000E+00 0.  1.
         11    1    4    4    0    0  0.19124593745E+02 -0.90574639304E+01 -0.32219011733E+02  0.38546756748E+02  0.00000000000E+00 0. -1.
</event>
<event>
 8    1  0.5951278E-006  0.1618338E+03  0.7561462E-02  0.1186642E+00
          3   -1    0    0  501    0  0.00000000000E+00  0.00000000000E+00  0.28223414658E+02  0.28223414658E+02  0.00000000000E+00 0. -1.
         -3   -1    0    0    0  501 -0.00000000000E+00 -0.00000000000E+00 -0.12614168481E+04  0.12614168481E+04  0.00000000000E+00 0.  1.
         23    2    1    2    0    0  0.18565752869E+02 -0.14989638446E+03 -0.53759710715E+03  0.57225234982E+03  0.12509392073E+03 0.  0.
         23    2    1    2    0    0 -0.18565752869E+02  0.14989638446E+03 -0.69559632629E+03  0.71738791294E+03  0.89317160883E+02 0.  0.
          5    1    3    3  502    0 -0.59688767403E+01 -0.72359134613E+02 -0.43611328828E+03  0.44213543679E+03  0.41800000000E+01 0.  1.
         -5    1    3    3    0  502  0.24534629609E+02 -0.77537249845E+02 -0.10148381888E+03  0.13011691303E+03  0.41800000000E+01 0.  1.
        -11    1    4    4    0    0 -0.47449552776E+02  0.70129889627E+02 -0.25475834338E+03  0.26846131006E+03  0.00000000000E+00 0. -1.
         11    1    4    4    0    0  0.28883799907E+02  0.79766494831E+02 -0.44083798292E+03  0.44892660288E+03  0.00000000000E+00 0.  1.
</event>
<event>
 8    1  0.5951278E-006  0.1042843E+03  0.7561462E-02  0.1271536E+00
          2   -1    0    0  501    0  0.00000000000E+00  0.00000000000E+00  0.27431885246E+02  0.27431885246E+02  0.00000000000E+00 0. -1.
         -2   -1    0    0    0  501 -0.00000000000E+00 -0.00000000000E+00 -0.67929891651E+03  0.67929891651E+03  0.00000000000E+00 0.  1.
         23    2    1    2    0    0 -0.39013690852E+02 -0.66259936345E+02 -0.42975986592E+03  0.45415217610E+03  0.12509280340E+03 0.  0.
         23    2    1    2    0    0  0.39013690852E+02  0.66259936345E+02 -0.22210716535E+03  0.25257862566E+03  0.92476602456E+02 0.  0.
          5    1    3    3  502    0 -0.41735046668E+02 -0.25695821831E+02 -0.40140964586E+03  0.40441224706E+03  0.41800000000E+01 0.  1.
         -5    1    3    3    0  502  0.27213558165E+01 -0.40564114514E+02 -0.28350220058E+02  0.49739929043E+02  0.41800000000E+01 0.  1.
        -11    1    4    4    0    0 -0.29616708034E+02  0.19248434527E+02 -0.47764499265E+02  0.59406220353E+02  0.00000000000E+00 0. -1.
         11    1    4    4    0    0  0.68630398886E+02  0.47011501818E+02 -0.17434266608E+03  0.19317240530E+03  0.00000000000E+00 0.  1.
</event>
<event>
 8    1  0.5951278E-006  0.1117762E+03  0.7561462E-02  0.1257316E+00
          1   -1    0    0  501    0  0.00000000000E+00  0.00000000000E+00  0.69831774889E+03  0.69831774889E+03  0.00000000000E+00 0. -1.
         -1   -1    0    0    0  501 -0.00000000000E+00 -0.00000000000E+00 -0.27507024736E+02  0.27507024736E+02  0.00000000000E+00 0.  1.
         23    2    1    2    0    0 -0.84185064408E+01 -0.86299108873E+02  0.39582065287E+03  0.42406923472E+03  0.12506925744E+03 0.  0.
         23    2    1    2    0    0  0.84185064408E+01  0.86299108873E+02  0.27499007129E+03  0.30175553891E+03  0.88985720829E+02 0.  0.
          5    1    3    3  502    0 -0.46721123671E+02 -0.79261946131E+02  0.35786994935E+03  0.36953172063E+03  0.41800000000E+01 0. -1.
         -5    1    3    3    0  502  0.38302617230E+02 -0.70371627426E+01  0.37950703520E+02  0.54537514096E+02  0.41800000000E+01 0. -1.
        -11    1    4    4    0    0 -0.11122238136E+02  0.17271972544E+02  0.33656980644E+01  0.20817135734E+02  0.00000000000E+00 0.  1.
         11    1    4    4    0    0  0.19540744577E+02  0.69027136329E+02  0.27162437322E+03  0.28093840317E+03  0.00000000000E+00 0. -1.
</event>
<event>
 8    1  0.5951278E-006  0.1453734E+03  0.7561462E-02  0.1206276E+00
          1   -1    0    0  501    0  0.00000000000E+00  0.00000000000E+00  0.31988315066E+02  0.31988315066E+02  0.00000000000E+00 0. -1.
         -1   -1    0    0    0  501 -0.00000000000E+00 -0.00000000000E+00 -0.88152610769E+03  0.88152610769E+03  0.00000000000E+00 0.  1.
         23    2    1    2    0    0  0.61081531502E+02 -0.11238336706E+03 -0.48518545925E+03  0.51713378988E+03  0.12514572340E+03 0.  0.
         23    2    1    2    0    0 -0.61081531502E+02  0.11238336706E+03 -0.36435233338E+03  0.39638063288E+03  0.89465125053E+02 0.  0.
          5    1    3    3  502    0  0.23183866667E+02 -0.10191727630E+03 -0.45638264599E+03  0.46821705954E+03  0.41800000000E+01 0. -1.
         -5    1    3    3    0  502  0.37897664835E+02 -0.10466090762E+02 -0.28802813263E+02  0.48916730345E+02  0.41800000000E+01 0. -1.
        -11    1    4    4    0    0 -0.14364868362E+02 -0.87188634594E+01 -0.11369417109E+02  0.20288707906E+02  0.00000000000E+00 0.  1.
         11    1    4    4    0    0 -0.46716663140E+02  0.12110223052E+03 -0.35298291627E+03  0.37609192497E+03  0.00000000000E+00 0. -1.
</event>
<event>
 8    1  0.5951278E-006  0.1118449E+03  0.7561462E-02  0.1257191E+00
          4   -1    0    0  501    0  0.00000000000E+00  0.00000000000E+00  0.13484160110E+03  0.13484160110E+03  0.00000000000E+00 0.  1.
         -4   -1    0    0    0  501 -0.00000000000E+00 -0.00000000000E+00 -0.14611151769E+03  0.14611151769E+03  0.00000000000E+00 0. -1.
         23    2    1    2    0    0 -0.28223600413E+02 -0.19073060312E+02 -0.88288253265E+02  0.15685223388E+03  0.12508978519E+03 0.  0.
         23    2    1    2    0    0  0.28223600413E+02  0.19073060312E+02  0.77018336675E+02  0.12410088491E+03  0.91152905615E+02 0.  0.
          5    1    3    3  502    0 -0.46327346566E+02 -0.64438698292E+02 -0.44296730279E+02  0.90984842643E+02  0.41800000000E+01 0. -1.
         -5    1    3    3    0  502  0.18103746153E+02  0.45365637980E+02 -0.43991522986E+02  0.65867391239E+02  0.41800000000E+01 0. -1.
        -11    1    4    4    0    0  0.43504979827E+02 -0.23862368609E+02  0.52935452737E+02  0.72555206993E+02  0.00000000000E+00 0.  1.
         11    1    4    4    0    0 -0.15281379414E+02  0.42935428921E+02  0.24082883938E+02  0.51545677920E+02  0.00000000000E+00 0. -1.
</event>
<event>
 8    1  0.5951278E-006  0.8756175E+02  0.7561462E-02  0.1308866E+00
         -1   -1    0    0    0  501 -0.00000000000E+00  0.00000000000E+00  0.63239145253E+02  0.63239145253E+02  0.00000000000E+00 0.  1.
          1   -1    0    0  501    0  0.00000000000E+00 -0.00000000000E+00 -0.23772474721E+03  0.23772474721E+03  0.00000000000E+00 0. -1.
         23    2    1    2    0    0  0.15664490805E+02 -0.13239872566E+02 -0.33417478139E+02  0.13109887360E+03  0.12509802683E+03 0.  0.
         23    2    1    2    0    0 -0.15664490805E+02  0.13239872566E+02 -0.14106812381E+03  0.16986501886E+03  0.92375530192E+02 0.  0.
          5    1    3    3  502    0 -0.32086660979E+02 -0.13532875772E+02  0.33687806528E+02  0.48631607501E+02  0.41800000000E+01 0. -1.
         -5    1    3    3    0  502  0.47751151784E+02  0.29300320608E+00 -0.67105284667E+02  0.82467266099E+02  0.41800000000E+01 0. -1.
        -11    1    4    4    0    0 -0.13939664844E+02  0.51735666002E+02 -0.10063705205E+03  0.11401188375E+03  0.00000000000E+00 0.  1.
         11    1    4    4    0    0 -0.17248259604E+01 -0.38495793436E+02 -0.40431071768E+02  0.55853135106E+02  0.00000000000E+00 0. -1.
</event>
<event>
 8    1  0.5951278E-006  0.1516681E+03  0.7561462E-02  0.1198438E+00
          3   -1    0    0  501    0  0.00000000000E+00  0.00000000000E+00  0.11562558023E+03  0.11562558023E+03  0.00000000000E+00 0. -1.
         -3   -1    0    0    0  501 -0.00000000000E+00 -0.00000000000E+00 -0.24013248215E+03  0.24013248215E+03  0.00000000000E+00 0.  1.
         23    2    1    2    0    0  0.17002132967E+02  0.12727476174E+03 -0.58060844386E+02  0.18843180294E+03  0.12509014832E+03 0.  0.
         23    2    1    2    0    0 -0.17002132967E+02 -0.12727476174E+03 -0.66446057539E+02  0.16732625945E+03  0.84232185280E+02 0.  0.
          5    1    3    3  502    0 -0.23941647204E+02 -0.10593605502E+02  0.11161147236E+02  0.28765787943E+02  0.41800000000E+01 0. -1.
         -5    1    3    3    0  502  0.40943780171E+02  0.13786836724E+03 -0.69221991622E+02  0.15966601499E+03  0.41800000000E+01 0. -1.
        -11    1    4    4    0    0  0.36828158043E+01 -0.91835971391E+02 -0.82264984075E+02  0.12334884020E+03  0.00000000000E+00 0.  1.
         11    1    4    4    0    0 -0.20684948772E+02 -0.35438790347E+02  0.15818926536E+02  0.43977419248E+02  0.00000000000E+00 0. -1.
</event>
<event>
 7    1  0.5951278E-006  0.8837019E+02  0.7561462E-02  0.1306847E+00
         -2   -1    0    0    0  501 -0.00000000000E+00  0.00000000000E+00  0.74074670325E+02  0.74074670325E+02  0.00000000000E+00 0.  1.
          2   -1    0    0  501    0  0.00000000000E+00 -0.00000000000E+00 -0.20295037255E+03  0.20295037255E+03  0.00000000000E+00 0. -1.
         23    2    1    2    0    0  0.38421605851E+02 -0.30778236692E+01 -0.32528725849E+02  0.10275683199E+03  0.89527402061E+02 0.  0.
          5    1    1    2  502    0 -0.61472658320E+02 -0.95933202742E+01 -0.12217449621E+03  0.13716777843E+03  0.41800000000E+01 0. -1.
         -5    1    1    2    0  502  0.23051052469E+02  0.12671143943E+02  0.25827519827E+02  0.37100432466E+02  0.41800000000E+01 0.  1.
        -11    1    3    3    0    0 -0.32784697182E+01  0.32663729387E+02 -0.34732399397E+02  0.47791287375E+02  0.00000000000E+00 0.  1.
         11    1    3    3    0    0  0.41700075569E+02 -0.35741553056E+02  0.22036735478E+01  0.54965544611E+02  0.00000000000E+00 0. -1.
</event>
<event>
 8    1  0.5951278E-006  0.1197481E+03  0.7561462E-02  0.1243513E+00
          1   -1    0    0  501    0  0.00000000000E+00  0.00000000000E+00  0.55049684345E+03  0.55049684345E+03  0.00000000000E+00 0. -1.
         -1   -1    0    0    0  501 -0.00000000000E+00 -0.00000000000E+00 -0.30671489869E+02  0.30671489869E+02  0.00000000000E+00 0.  1.
         23    2    1    2    0    0 -0.39360256062E+02 -0.60058932176E+02  0.28429253207E+03  0.31879277905E+03  0.12510110749E+03 0.  0.
         23    2    1    2    0    0  0.39360256062E+02  0.60058932176E+02  0.23553282151E+03  0.26237555426E+03  0.90603070443E+02 0.  0.
          5    1    3    3  502    0  0.32779133729E+02 -0.33636353658E+02  0.37383265322E+02  0.60173555833E+02  0.41800000000E+01 0.  1.
         -5    1    3    3    0  502 -0.72139389791E+02 -0.26422578518E+02  0.24690926675E+03  0.25861922322E+03  0.41800000000E+01 0.  1.
        -11    1    4    4    0    0 -0.25321744980E+02 -0.24668942728E+01  0.45693250789E+02  0.52298656807E+02  0.00000000000E+00 0.  1.
         11    1    4    4    0    0  0.64682001043E+02  0.62525826449E+02  0.18983957072E+03  0.21007689745E+03  0.00000000000E+00 0. -1.
</event>
<event>
 8    1  0.5951278E-006  0.1247222E+03  0.7561462E-02  0.1235504E+00
          1   -1    0    0  501    0  0.00000000000E+00  0.00000000000E+00  0.31219011402E+02  0.31219011402E+02  0.00000000000E+00 0. -1.
         -1   -1    0    0    0  501 -0.00000000000E+00 -0.00000000000E+00 -0.61249531932E+03  0.61249531932E+03  0.00000000000E+00 0.  1.
         23    2    1    2    0    0  0.82842908337E+02 -0.48009529003E+01 -0.36847859976E+03  0.39788466578E+03  0.12509888958E+03 0.  0.
         23    2    1    2    0    0 -0.82842908337E+02  0.48009529003E+01 -0.21279770816E+03  0.24582966494E+03  0.90903041509E+02 0.  0.
          5    1    3    3  502    0  0.55908595851E+02  0.49460204355E+02 -0.28508975753E+03  0.29472991900E+03  0.41800000000E+01 0.  1.
         -5    1    3    3    0  502  0.26934312486E+02 -0.54261157256E+02 -0.83388842230E+02  0.10315474678E+03  0.41800000000E+01 0.  1.
        -11    1    4    4    0    0  0.19455498570E+00  0.27795626674E+02 -0.18796120466E+02  0.33554863409E+02  0.00000000000E+00 0.  1.
         11    1    4    4    0    0 -0.83037463323E+02 -0.22994673773E+02 -0.19400158770E+03  0.21227480153E+03  0.00000000000E+00 0. -1.
</event>
<event>
 8    1  0.5951278E-006  0.2380261E+03  0.7561462E-02  0.1121115E+00
          2   -1    0    0  501    0  0.00000000000E+00  0.00000000000E+00  0.62613752630E+02  0.62613752630E+02  0.00000000000E+00 0. -1.
         -2   -1    0    0    0  501 -0.00000000000E+00 -0.00000000000E+00 -0.92237435962E+03  0.92237435962E+03  0.00000000000E+00 0.  1.
         23    2    1    2    0    0  0.14482785091E+03 -0.15481218449E+03 -0.45586827036E+03  0.51807712737E+03  0.12508441598E+03 0.  0.
         23    2    1    2    0    0 -0.14482785091E+03  0.15481218449E+03 -0.40389233663E+03  0.46691098488E+03  0.99674115696E+02 0.  0.
          5    1    3    3  502    0  0.97866805234E+01  0.21211634391E+02 -0.34849579394E+02  0.42162520480E+02  0.41800000000E+01 0.  1.
         -5    1    3    3    0  502  0.13504117039E+03 -0.17602381888E+03 -0.42101869096E+03  0.47591460690E+03  0.41800000000E+01 0.  1.
        -11    1    4    4    0    0 -0.12489284030E+03  0.16586666981E+03 -0.33283604467E+03  0.39228791257E+03  0.00000000000E+00 0.  1.
         11    1    4    4    0    0 -0.19935010616E+02 -0.11054485318E+02 -0.71056291961E+02  0.74623072312E+02  0.00000000000E+00 0. -1.
</event>
<event>
 8    1  0.5951278E-006  0.1159999E+03  0.7561462E-02  0.1249846E+00
         -1   -1    0    0    0  501 -0.00000000000E+00  0.00000000000E+00  0.19697180669E+03  0.19697180669E+03  0.00000000000E+00 0.  1.
          1   -1    0    0  501    0  0.00000000000E+00 -0.00000000000E+00 -0.12888696632E+03  0.12888696632E+03  0.00000000000E+00 0. -1.
         23    2    1    2    0    0  0.66120370287E+02  0.84757304699E+02  0.85137654966E+02  0.18561158934E+03  0.12509011847E+03 0.  0.
         23    2    1    2    0    0 -0.66120370287E+02 -0.84757304699E+02 -0.17052814600E+02  0.14024718367E+03  0.88446424317E+02 0.  0.
          5    1    3    3  502    0  0.11231745100E+02  0.62180403962E+02 -0.18620020535E+02  0.66005547491E+02  0.41800000000E+01 0. -1.
         -5    1    3    3    0  502  0.54888625187E+02  0.22576900737E+02  0.10375767550E+03  0.11960604185E+03  0.41800000000E+01 0. -1.
        -11    1    4    4    0    0 -0.10225533698E+02 -0.40361023382E+01 -0.38252073968E+02  0.39800412364E+02  0.00000000000E+00 0. -1.
         11    1    4    4    0    0 -0.55894836589E+02 -0.80721202361E+02  0.21199259368E+02  0.10044677130E+03  0.00000000000E+00 0.  1.
</event>
<event>
 8    1  0.5951278E-006  0.9786053E+02  0.7561462E-02  0.1284860E+00
         -1   -1    0    0    0  501 -0.00000000000E+00  0.00000000000E+00  0.96765372480E+02  0.96765372480E+02  0.00000000000E+00 0.  1.
          1   -1    0    0  501    0  0.00000000000E+00 -0.00000000000E+00 -0.16336595490E+03  0.16336595490E+03  0.00000000000E+00 0. -1.
         23    2    1    2    0    0 -0.14346570699E+02  0.56701239958E+02 -0.47837774057E+02  0.14614074675E+03  0.12509120885E+03 0.  0.
         23    2    1    2    0    0  0.14346570699E+02 -0.56701239958E+02 -0.18762808364E+02  0.11399058063E+03  0.96025802736E+02 0.  0.
          5    1    3    3  502    0  0.43707134552E+02 -0.13464011241E+02 -0.24436419543E+02  0.52021190005E+02  0.41800000000E+01 0. -1.
         -5    1    3    3    0  502 -0.58053705251E+02  0.70165251198E+02 -0.23401354514E+02  0.94119556746E+02  0.41800000000E+01 0. -1.
        -11    1    4    4    0    0  0.49880879664E+01 -0.12644638972E+02  0.38678190906E+02  0.40997199515E+02  0.00000000000E+00 0.  1.
         11    1    4    4    0    0  0.93584827323E+01 -0.44056600986E+02 -0.57440999270E+02  0.72993381115E+02  0.00000000000E+00 0. -1.
</event>
<event>
 8    1  0.5951278E-006  0.1068616E+03  0.7561462E-02  0.1266495E+00
         -2   -1    0    0    0  501 -0.00000000000E+00  0.00000000000E+00  0.15979814386E+03  0.15979814386E+03  0.00000000000E+00 0. -1.
          2   -1    0    0  501    0  0.00000000000E+00 -0.00000000000E+00 -0.12701696534E+03  0.12701696534E+03  0.00000000000E+00 0.  1.
         23    2    1    2    0    0 -0.66930802601E+02 -0.50606049758E+02  0.63904866095E+02  0.16362242474E+03  0.12509101230E+03 0.  0.
         23    2    1    2    0    0  0.66930802601E+02  0.50606049758E+02 -0.31123687577E+02  0.12319268446E+03  0.84658425258E+02 0.  0.
          5    1    3    3  502    0 -0.75531155579E+02 -0.43197807779E+02 -0.10949199549E+02  0.87797286010E+02  0.41800000000E+01 0. -1.
         -5    1    3    3    0  502  0.86003529780E+01 -0.74082419787E+01  0.74854065644E+02  0.75825138733E+02  0.41800000000E+01 0. -1.
        -11    1    4    4    0    0  0.66942886776E+02  0.31058389232E+01 -0.11475302853E+01  0.67024720448E+02  0.00000000000E+00 0. -1.
         11    1    4    4    0    0 -0.12084175208E-01  0.47500210834E+02 -0.29976157291E+02  0.56167964012E+02  0.00000000000E+00 0.  1.
</event>
<event>
 8    1  0.5951278E-006  0.7245696E+02  0.7561462E-02  0.1351932E+00
         -1   -1    0    0    0  501 -0.00000000000E+00  0.00000000000E+00  0.13832267292E+03  0.13832267292E+03  0.00000000000E+00 0.  1.
          1   -1    0    0  501    0  0.00000000000E+00 -0.00000000000E+00 -0.10511616696E+03  0.10511616696E+03  0.00000000000E+00 0. -1.
         23    2    1    2    0    0 -0.42899927128E+02  0.21586075079E+02  0.42478629328E+02  0.14056545808E+03  0.12509137329E+03 0.  0.
         23    2    1    2    0    0  0.42899927128E+02 -0.21586075079E+02 -0.92721233680E+01  0.10287338180E+03  0.90501922779E+02 0.  0.
          5    1    3    3  502    0 -0.60818005717E+02 -0.54186724970E+01 -0.24592251715E+02  0.65957888652E+02  0.41800000000E+01 0.  1.
         -5    1    3    3    0  502  0.17918078590E+02  0.27004747576E+02  0.67070881043E+02  0.74607569427E+02  0.41800000000E+01 0.  1.
        -11    1    4    4    0    0  0.16898727516E+02 -0.18164729470E+02  0.39992652145E+02  0.47063113092E+02  0.00000000000E+00 0.  1.
         11    1    4    4    0    0  0.26001199612E+02 -0.34213456096E+01 -0.49264775513E+02  0.55810268709E+02  0.00000000000E+00 0. -1.
</event>
<event>
 8    1  0.5951278E-006  0.1257669E+03  0.7561462E-02  0.1233876E+00
         -2   -1    0    0    0  501 -0.00000000000E+00  0.00000000000E+00  0.24602195675E+03  0.24602195675E+03  0.00000000000E+00 0.  1.
          2   -1    0    0  501    0  0.00000000000E+00 -0.00000000000E+00 -0.84982804788E+02  0.84982804788E+02  0.00000000000E+00 0. -1.
         23    2    1    2    0    0  0.57962974357E+02 -0.16538484467E+02  0.14831149130E+03  0.20316760114E+03  0.12509015883E+03 0.  0.
         23    2    1    2    0    0 -0.57962974357E+02  0.16538484467E+02  0.12727660662E+02  0.12783716040E+03  0.11201392042E+03 0.  0.
          5    1    3    3  502    0 -0.28218936016E+02  0.25597561766E+02  0.67690224403E+02  0.77788060768E+02  0.41800000000E+01 0. -1.
         -5    1    3    3    0  502  0.86181910373E+02 -0.42136046233E+02  0.80621266897E+02  0.12537954037E+03  0.41800000000E+01 0. -1.
        -11    1    4    4    0    0 -0.55420030395E+02  0.55328291507E+02 -0.15456797545E+02  0.79821752677E+02  0.00000000000E+00 0.  1.
         11    1    4    4    0    0 -0.25429439620E+01 -0.38789807040E+02  0.28184458206E+02  0.48015407721E+02  0.00000000000E+00 0. -1.
</event>
<event>
 8    1  0.5951278E-006  0.8127194E+02  0.7561462E-02  0.1325480E+00
         -1   -1    0    0    0  501 -0.00000000000E+00  0.00000000000E+00  0.10982756990E+03  0.10982756990E+03  0.00000000000E+00 0.  1.
          1   -1    0    0  501    0  0.00000000000E+00 -0.00000000000E+00 -0.14885475337E+03  0.14885475337E+03  0.00000000000E+00 0. -1.
         23    2    1    2    0    0  0.51664583332E+02  0.33452678301E+02  0.55148909539E+01  0.13951775880E+03  0.12508589106E+03 0.  0.
         23    2    1    2    0    0 -0.51664583332E+02 -0.33452678301E+02 -0.44542074421E+02  0.11916456447E+03  0.91803519407E+02 0.  0.
          5    1    3    3  502    0 -0.13667038008E+02 -0.12682143500E+02  0.45976538182E+02  0.49788946111E+02  0.41800000000E+01 0.  1.
         -5    1    3    3    0  502  0.65331621340E+02  0.46134821801E+02 -0.40461647228E+02  0.89728812686E+02  0.41800000000E+01 0.  1.
        -11    1    4    4    0    0 -0.35178244491E+02 -0.30583730671E+02 -0.72728659687E+02  0.86384786897E+02  0.00000000000E+00 0. -1.
         11    1    4    4    0    0 -0.16486338841E+02 -0.28689476298E+01  0.28186585266E+02  0.32779777575E+02  0.00000000000E+00 0.  1.
</event>
<event>
 8    1  0.5951278E-006  0.1049737E+03  0.7561462E-02  0.1270171E+00
         -2   -1    0    0    0  501 -0.00000000000E+00  0.00000000000E+00  0.33695448836E+02  0.33695448836E+02  0.00000000000E+00 0.  1.
          2   -1    0    0  501    0  0.00000000000E+00 -0.00000000000E+00 -0.33416879941E+03  0.33416879941E+03  0.00000000000E+00 0. -1.
         23    2    1    2    0    0  0.19924303482E+02 -0.25135258289E+01 -0.15115407332E+03  0.19116338388E+03  0.11529349406E+03 0.  0.
         23    2    1    2    0    0 -0.19924303482E+02  0.25135258289E+01 -0.14931927726E+03  0.17670086437E+03  0.92323633095E+02 0.  0.
          5    1    3    3  502    0  0.60196818279E+02  0.27812252877E+02 -0.85766268591E+02  0.10849195163E+03  0.41800000000E+01 0. -1.
         -5    1    3    3    0  502 -0.40272514797E+02 -0.30325778706E+02 -0.65387804730E+02  0.82671432246E+02  0.41800000000E+01 0.  1.
        -11    1    4    4    0    0 -0.56327126057E+02  0.41380307611E+01 -0.10588026335E+03  0.12000207746E+03  0.00000000000E+00 0.  1.
         11    1    4    4    0    0  0.36402822574E+02 -0.16245049322E+01 -0.43439013904E+02  0.56698786906E+02  0.00000000000E+00 0. -1.
</event>
<event>
 8    1  0.5951278E-006  0.1069202E+03  0.7561462E-02  0.1266382E+00
          3   -1    0    0  501    0  0.00000000000E+00  0.00000000000E+00  0.10861796589E+03  0.10861796589E+03  0.00000000000E+00 0. -1.
         -3   -1    0    0    0  501 -0.00000000000E+00 -0.00000000000E+00 -0.14605125252E+03  0.14605125252E+03  0.00000000000E+00 0.  1.
         23    2    1    2    0    0  0.33153780039E+02  0.52318684324E+02 -0.39802489251E+02  0.14514835706E+03  0.12508952613E+03 0.  0.
         23    2    1    2    0    0 -0.33153780039E+02 -0.52318684324E+02  0.23692026185E+01  0.10952086135E+03  0.90292790900E+02 0.  0.
          5    1    3    3  502    0 -0.18025946755E+02 -0.33334438597E+02 -0.21001496364E+02  0.43527632631E+02  0.41800000000E+01 0. -1.
         -5    1    3    3    0  502  0.51179726793E+02  0.85653122921E+02 -0.18800992888E+02  0.10162072443E+03  0.41800000000E+01 0. -1.
        -11    1    4    4    0    0 -0.37335453875E+02 -0.18310710818E+02  0.40645447273E+02  0.58148694145E+02  0.00000000000E+00 0. -1.
         11    1    4    4    0    0  0.41816738362E+01 -0.34007973506E+02 -0.38276244654E+02  0.51372167200E+02  0.00000000000E+00 0.  1.
</event>
<event>
 8    1  0.5951278E-006  0.2735517E+03  0.7561462E-02  0.1099264E+00
         -2   -1    0    0    0  501 -0.00000000000E+00  0.00000000000E+00  0.25671298169E+03  0.25671298169E+03  0.00000000000E+00 0.  1.
          2   -1    0    0  501    0  0.00000000000E+00 -0.00000000000E+00 -0.40887725658E+03  0.40887725658E+03  0.00000000000E+00 0. -1.
         23    2    1    2    0    0  0.20384265781E+03 -0.18146413999E+03  0.63056751964E+02  0.30676465678E+03  0.12508931782E+03 0.  0.
         23    2    1    2    0    0 -0.20384265781E+03  0.18146413999E+03 -0.21522102685E+03  0.35882558149E+03  0.89188812591E+02 0.  0.
          5    1    3    3  502    0  0.11209369712E+02 -0.70864550924E+01 -0.28114680830E+02  0.31365195572E+02  0.41800000000E+01 0. -1.
         -5    1    3    3    0  502  0.19263328810E+03 -0.17437768490E+03  0.91171432794E+02  0.27539946120E+03  0.41800000000E+01 0. -1.
        -11    1    4    4    0    0 -0.11545898955E+03  0.11270891064E+03 -0.71114897338E+02  0.17632755153E+03  0.00000000000E+00 0. -1.
         11    1    4    4    0    0 -0.88383668262E+02  0.68755229351E+02 -0.14410612951E+03  0.18249802996E+03  0.00000000000E+00 0.  1.
</event>
<event>
 8    1  0.5951278E-006  0.1447686E+03  0.7561462E-02  0.1207053E+00
         -1   -1    0    0    0  501 -0.00000000000E+00  0.00000000000E+00  0.14748450376E+03  0.14748450376E+03  0.00000000000E+00 0.  1.
          1   -1    0    0  501    0  0.00000000000E+00 -0.00000000000E+00 -0.22014289792E+03  0.22014289792E+03  0.00000000000E+00 0. -1.
         23    2    1    2    0    0  0.47657925320E+02 -0.11144018001E+03  0.39333846865E+02  0.17856457164E+03  0.12509181895E+03 0.  0.
         23    2    1    2    0    0 -0.47657925320E+02  0.11144018001E+03 -0.11199224103E+03  0.18906283004E+03  0.92262127035E+02 0.  0.
          5    1    3    3  502    0  0.66033098213E+02 -0.10698940662E+03  0.68743052667E+02  0.14335334973E+03  0.41800000000E+01 0. -1.
         -5    1    3    3    0  502 -0.18375172893E+02 -0.44507733969E+01 -0.29409205801E+02  0.35211221912E+02  0.41800000000E+01 0. -1.
        -11    1    4    4    0    0  0.16795419571E+02  0.58826870559E+02 -0.18507343499E+02  0.63915636441E+02  0.00000000000E+00 0.  1.
         11    1    4    4    0    0 -0.64453344891E+02  0.52613309456E+02 -0.93484897534E+02  0.12514719360E+03  0.00000000000E+00 0. -1.
</event>
<event>
 8    1  0.5951278E-006  0.5650868E+02  0.7561462E-02  0.1413096E+00
          1   -1    0    0  501    0  0.00000000000E+00  0.00000000000E+00  0.31567448288E+02  0.31567448288E+02  0.00000000000E+00 0. -1.
         -1   -1    0    0    0  501 -0.00000000000E+00 -0.00000000000E+00 -0.44473700589E+03  0.44473700589E+03  0.00000000000E+00 0.  1.
         23    2    1    2    0    0  0.19407035540E+02  0.23482436325E+02 -0.30647859233E+03  0.33242206637E+03  0.12508894760E+03 0.  0.
         23    2    1    2    0    0 -0.19407035540E+02 -0.23482436325E+02 -0.10669096528E+03  0.14388238781E+03  0.91603065483E+02 0.  0.
          5    1    3    3  502    0  0.26982581628E+02  0.15610227721E+02 -0.31586323028E+03  0.31742525350E+03  0.41800000000E+01 0.  1.
         -5    1    3    3    0  502 -0.75755460884E+01  0.78722086043E+01  0.93846379473E+01  0.14996812870E+02  0.41800000000E+01 0.  1.
        -11    1    4    4    0    0 -0.27384670940E+02  0.14548558380E+02 -0.72683306183E+00  0.31017882580E+02  0.00000000000E+00 0. -1.
         11    1    4    4    0    0  0.79776354003E+01 -0.38030994705E+02 -0.10596413221E+03  0.11286450523E+03  0.00000000000E+00 0.  1.
</event>
<event>
 8    1  0.5951278E-006  0.1283116E+03  0.7561462E-02  0.1229983E+00
          1   -1    0    0  501    0  0.00000000000E+00  0.00000000000E+00  0.57888224594E+02  0.57888224594E+02  0.00000000000E+00 0. -1.
         -1   -1    0    0    0  501 -0.00000000000E+00 -0.00000000000E+00 -0.37619419757E+03  0.37619419757E+03  0.00000000000E+00 0.  1.
         23    2    1    2    0    0  0.93378427577E+02  0.18506999209E+02 -0.20375223292E+03  0.25828169682E+03  0.12701347462E+03 0.  0.
         23    2    1    2    0    0 -0.93378427577E+02 -0.18506999209E+02 -0.11455374006E+03  0.17580072534E+03  0.93387878838E+02 0.  0.
          5    1    3    3  502    0 -0.19203637258E+02  0.19377379289E+02 -0.25924226244E+01  0.27721031133E+02  0.41800000000E+01 0. -1.
         -5    1    3    3    0  502  0.11258206483E+03 -0.87038008007E+00 -0.20115981029E+03  0.23056066568E+03  0.41800000000E+01 0.  1.
        -11    1    4    4    0    0  0.77130333013E+01 -0.13004199151E+02 -0.57784047687E+02  0.59729358320E+02  0.00000000000E+00 0.  1.
         11    1    4    4    0    0 -0.10109146088E+03 -0.55028000576E+01 -0.56769692371E+02  0.11607136702E+03  0.00000000000E+00 0. -1.
</event>
<event>
 8    1  0.5951278E-006  0.1835229E+03  0.7561462E-02  0.1164436E+00
          1   -1    0    0  501    0  0.00000000000E+00  0.00000000000E+00  0.63485119744E+03  0.63485119744E+03  0.00000000000E+00 0. -1.
         -1   -1    0    0    0  501 -0.00000000000E+00 -0.00000000000E+00 -0.66740388865E+02  0.66740388865E+02  0.00000000000E+00 0.  1.
         23    2    1    2    0    0  0.82220434998E+02  0.15345503066E+03  0.27368707975E+03  0.34765009329E+03  0.12508926164E+03 0.  0.
         23    2    1    2    0    0 -0.82220434998E+02 -0.15345503066E+03  0.29442372883E+03  0.35394149301E+03  0.90997813249E+02 0.  0.
          5    1    3    3  502    0  0.72820636512E+02  0.91225995987E+02  0.25716705547E+03  0.28244892329E+03  0.41800000000E+01 0. -1.
         -5    1    3    3    0  502  0.93997984854E+01  0.62229034670E+02  0.16520024274E+02  0.65201170001E+02  0.41800000000E+01 0. -1.
        -11    1    4    4    0    0 -0.21690285064E+02 -0.11133519340E+03  0.22816439155E+03  0.25480381341E+03  0.00000000000E+00 0.  1.
         11    1    4    4    0    0 -0.60530149934E+02 -0.42119837257E+02  0.66259337275E+02  0.99137679606E+02  0.00000000000E+00 0. -1.
</event>
<event>
 8    1  0.5951278E-006  0.1812976E+03  0.7561462E-02  0.1166553E+00
         -1   -1    0    0    0  501 -0.00000000000E+00  0.00000000000E+00  0.61896039625E+02  0.61896039625E+02  0.00000000000E+00 0.  1.
          1   -1    0    0  501    0  0.00000000000E+00 -0.00000000000E+00 -0.69579034230E+03  0.69579034230E+03  0.00000000000E+00 0. -1.
         23    2    1    2    0    0 -0.74666831347E+02  0.15426709656E+03 -0.27352157831E+03  0.34617163741E+03  0.12508907212E+03 0.  0.
         23    2    1    2    0    0  0.74666831347E+02 -0.15426709656E+03 -0.36037272436E+03  0.41151474451E+03  0.10051075416E+03 0.  0.
          5    1    3    3  502    0  0.27783269275E+01  0.95769376079E+01 -0.12290801811E+03  0.12338269793E+03  0.41800000000E+01 0. -1.
         -5    1    3    3    0  502 -0.77445158275E+02  0.14469015895E+03 -0.15061356020E+03  0.22278893948E+03  0.41800000000E+01 0. -1.
        -11    1    4    4    0    0 -0.13278138784E+02 -0.47351746946E+02 -0.43247396714E+02  0.65489191711E+02  0.00000000000E+00 0.  1.
         11    1    4    4    0    0  0.87944970131E+02 -0.10691534961E+03 -0.31712532765E+03  0.34602555280E+03  0.00000000000E+00 0. -1.
</event>
<event>
 8    1  0.5951278E-006  0.9622041E+02  0.7561462E-02  0.1288451E+00
          4   -1    0    0  501    0  0.00000000000E+00  0.00000000000E+00  0.11112005754E+03  0.11112005754E+03  0.00000000000E+00 0. -1.
         -4   -1    0    0    0  501 -0.00000000000E+00 -0.00000000000E+00 -0.15704089136E+03  0.15704089136E+03  0.00000000000E+00 0.  1.
         23    2    1    2    0    0 -0.69509026872E+02 -0.18736061050E+02 -0.55585062716E+02  0.15466010948E+03  0.12508998948E+03 0.  0.
         23    2    1    2    0    0  0.69509026872E+02  0.18736061050E+02  0.96642288986E+01  0.11350083942E+03  0.87215241952E+02 0.  0.
          5    1    3    3  502    0  0.88549573434E+01 -0.23435511162E+02 -0.70238891525E+02  0.74690077893E+02  0.41800000000E+01 0. -1.
         -5    1    3    3    0  502 -0.78363984215E+02  0.46994501125E+01  0.14653828810E+02  0.79970031589E+02  0.41800000000E+01 0. -1.
        -11    1    4    4    0    0  0.64133869107E+02  0.33754697580E+02 -0.23920924918E+02  0.76320006711E+02  0.00000000000E+00 0.  1.
         11    1    4    4    0    0  0.53751577647E+01 -0.15018636530E+02  0.33585153816E+02  0.37180832711E+02  0.00000000000E+00 0. -1.
</event>
<event>
 7    1  0.5951278E-006  0.1246744E+03  0.7561462E-02  0.1235579E+00
          2   -1    0    0  501    0  0.00000000000E+00  0.00000000000E+00  0.49530555207E+03  0.49530555207E+03  0.00000000000E+00 0. -1.
         -2   -1    0    0    0  501 -0.00000000000E+00 -0.00000000000E+00 -0.68787218901E+02  0.68787218901E+02  0.00000000000E+00 0.  1.
         23    2    1    2    0    0  0.70707852458E+02 -0.20967749813E+02  0.15699883419E+03  0.19686025146E+03  0.93091770521E+02 0.  0.
          5    1    1    2  502    0  0.22454640461E+02  0.30505991453E+02  0.27081263755E+03  0.27348086487E+03  0.41800000000E+01 0. -1.
         -5    1    1    2    0  502 -0.93162492918E+02 -0.95382416395E+01 -0.12931385674E+01  0.93751654640E+02  0.41800000000E+01 0.  1.
        -11    1    3    3    0    0  0.12351972293E+02 -0.50573933893E+02  0.84011214512E+02  0.98834094182E+02  0.00000000000E+00 0.  1.
         11    1    3    3    0    0  0.58355880165E+02  0.29606184079E+02  0.72987619673E+02  0.98026157280E+02  0.00000000000E+00 0. -1.
</event>
<event>
 8    1  0.5951278E-006  0.8823487E+02  0.7561462E-02  0.1307183E+00
          4   -1    0    0  501    0  0.00000000000E+00  0.00000000000E+00  0.20386468127E+03  0.20386468127E+03  0.00000000000E+00 0.  1.
         -4   -1    0    0    0  501 -0.00000000000E+00 -0.00000000000E+00 -0.59584461442E+02  0.59584461442E+02  0.00000000000E+00 0. -1.
         23    2    1    2    0    0  0.30377867830E+02 -0.87611244879E+01  0.83175702441E+02  0.15351309433E+03  0.12509396667E+03 0.  0.
         23    2    1    2    0    0 -0.30377867830E+02  0.87611244879E+01  0.61104517385E+02  0.10993604838E+03  0.85747306275E+02 0.  0.
          5    1    3    3  502    0 -0.22536873023E+02 -0.28158989868E+02  0.89560515729E+02  0.96640559465E+02  0.41800000000E+01 0.  1.
         -5    1    3    3    0  502  0.52914740853E+02  0.19397865380E+02 -0.63848132873E+01  0.56872534862E+02  0.41800000000E+01 0.  1.
        -11    1    4    4    0    0  0.11649596426E+02 -0.26397430608E+02  0.13840646665E+01  0.28886901436E+02  0.00000000000E+00 0.  1.
         11    1    4    4    0    0 -0.42027464256E+02  0.35158555096E+02  0.59720452718E+02  0.81049146948E+02  0.00000000000E+00 0. -1.
</event>
<event>
 8    1  0.5951278E-006  0.1201839E+03  0.7561462E-02  0.1242794E+00
         -1   -1    0    0    0  501 -0.00000000000E+00  0.00000000000E+00  0.14014389001E+03  0.14014389001E+03  0.00000000000E+00 0.  1.
          1   -1    0    0  501    0  0.00000000000E+00 -0.00000000000E+00 -0.24075960928E+03  0.24075960928E+03  0.00000000000E+00 0. -1.
         23    2    1    2    0    0 -0.73307507049E+02 -0.22057085712E+02  0.79096050661E+02  0.16662891938E+03  0.12509398836E+03 0.  0.
         23    2    1    2    0    0  0.73307507049E+02  0.22057085712E+02 -0.17971176993E+03  0.21427457991E+03  0.88072525379E+02 0.  0.
          5    1    3    3  502    0 -0.79066889031E+02 -0.61648112685E+02  0.33421705333E+02  0.10576646693E+03  0.41800000000E+01 0.  1.
         -5    1    3    3    0  502  0.57593819816E+01  0.39591026973E+02  0.45674345329E+02  0.60862452454E+02  0.41800000000E+01 0.  1.
        -11    1    4    4    0    0  0.56590737565E+02  0.44372576288E+02 -0.67424816082E+02  0.98577598511E+02  0.00000000000E+00 0.  1.
         11    1    4    4    0    0  0.16716769484E+02 -0.22315490576E+02 -0.11228695385E+03  0.11569698140E+03  0.00000000000E+00 0. -1.
</event>
<event>
 8    1  0.5951278E-006  0.1118335E+03  0.7561462E-02  0.1257212E+00
          2   -1    0    0  501    0  0.00000000000E+00  0.00000000000E+00  0.11709094770E+03  0.11709094770E+03  0.00000000000E+00 0. -1.
         -2   -1    0    0    0  501 -0.00000000000E+00 -0.00000000000E+00 -0.14153551352E+03  0.14153551352E+03  0.00000000000E+00 0.  1.
         23    2    1    2    0    0 -0.48929701181E+02  0.41683370399E+02 -0.30796338511E+02  0.14398867279E+03  0.12511076852E+03 0.  0.
         23    2    1    2    0    0  0.48929701181E+02 -0.41683370399E+02  0.63517726879E+01  0.11463778844E+03  0.94709336898E+02 0.  0.
          5    1    3    3  502    0 -0.49687397417E+02  0.71385408956E+02 -0.57066246566E+02  0.10410928379E+03  0.41800000000E+01 0. -1.
         -5    1    3    3    0  502  0.75769623576E+00 -0.29702038556E+02  0.26269908055E+02  0.39879389002E+02  0.41800000000E+01 0. -1.
        -11    1    4    4    0    0  0.65766140383E+02 -0.46789059428E+01  0.24206073350E+02  0.70235399684E+02  0.00000000000E+00 0. -1.
         11    1    4    4    0    0 -0.16836439202E+02 -0.37004464457E+02 -0.17854300662E+02  0.44402388752E+02  0.00000000000E+00 0.  1.
</event>
<event>
 8    1  0.5951278E-006  0.1614608E+03  0.7561462E-02  0.1187057E+00
          1   -1    0    0  501    0  0.00000000000E+00  0.00000000000E+00  0.26696995801E+02  0.26696995801E+02  0.00000000000E+00 0. -1.
         -1   -1    0    0    0  501 -0.00000000000E+00 -0.00000000000E+00 -0.13989711648E+04  0.13989711648E+04  0.00000000000E+00 0.  1.
         23    2    1    2    0    0 -0.10567586469E+03 -0.72645769775E+02 -0.10655140966E+04  0.10804683830E+04  0.12508733097E+03 0.  0.
         23    2    1    2    0    0  0.10567586469E+03  0.72645769775E+02 -0.30676007240E+03  0.34519977760E+03  0.92824286647E+02 0.  0.
          5    1    3    3  502    0 -0.10634465348E+03 -0.10251991567E+03 -0.83316203694E+03  0.84616545110E+03  0.41800000000E+01 0.  1.
         -5    1    3    3    0  502  0.66878878356E+00  0.29874145893E+02 -0.23235205967E+03  0.23430293192E+03  0.41800000000E+01 0.  1.
        -11    1    4    4    0    0  0.43126149375E+02  0.70186859597E+02 -0.23971410619E+03  0.25347369238E+03  0.00000000000E+00 0.  1.
         11    1    4    4    0    0  0.62549715318E+02  0.24589101772E+01 -0.67045966213E+02  0.91726085227E+02  0.00000000000E+00 0. -1.
</event>
<event>
 8    1  0.5951278E-006  0.3168993E+03  0.7561462E-02  0.1077085E+00
          1   -1    0    0  501    0  0.00000000000E+00  0.00000000000E+00  0.12827037417E+03  0.12827037417E+03  0.00000000000E+00 0. -1.
         -1   -1    0    0    0  501 -0.00000000000E+00 -0.00000000000E+00 -0.11557881654E+04  0.11557881654E+04  0.00000000000E+00 0.  1.
         23    2    1    2    0    0 -0.30675856874E+03  0.23803686871E+02 -0.86199466646E+03  0.92376988064E+03  0.12509417397E+03 0.  0.
         23    2    1    2    0    0  0.30675856874E+03 -0.23803686871E+02 -0.16552312480E+03  0.36028865897E+03  0.87991919724E+02 0.  0.
          5    1    3    3  502    0 -0.17219419143E+03 -0.17173284732E+02 -0.32015979228E+03  0.36395813807E+03  0.41800000000E+01 0. -1.
         -5    1    3    3    0  502 -0.13456437730E+03  0.40976971602E+02 -0.54183487418E+03  0.55981174257E+03  0.41800000000E+01 0. -1.
        -11    1    4    4    0    0  0.20256548387E+03  0.26465008173E+02 -0.10851442175E+03  0.23131915537E+03  0.00000000000E+00 0.  1.
         11    1    4    4    0    0  0.10419308487E+03 -0.50268695044E+02 -0.57008703045E+02  0.12896950360E+03  0.00000000000E+00 0. -1.
</event>
<event>
 8    1  0.5951278E-006  0.9884133E+02  0.7561462E-02  0.1282751E+00
          3   -1    0    0  501    0  0.00000000000E+00  0.00000000000E+00  0.39286662997E+03  0.39286662997E+03  0.00000000000E+00 0. -1.
         -3   -1    0    0    0  501 -0.00000000000E+00 -0.00000000000E+00 -0.36263397608E+02  0.36263397608E+02  0.00000000000E+00 0.  1.
         23    2    1    2    0    0  0.23609255175E+02 -0.37708450335E+02  0.17132140787E+03  0.21673869542E+03  0.12508122618E+03 0.  0.
         23    2    1    2    0    0 -0.23609255175E+02  0.37708450335E+02  0.18528182449E+03  0.21239133216E+03  0.93815773362E+02 0.  0.
          5    1    3    3  502    0 -0.42078079939E+02  0.39880411708E+01  0.20902767691E+02  0.47337800761E+02  0.41800000000E+01 0.  1.
         -5    1    3    3    0  502  0.65687335114E+02 -0.41696491506E+02  0.15041864018E+03  0.16940089466E+03  0.41800000000E+01 0.  1.
        -11    1    4    4    0    0 -0.34123850875E+02 -0.39290341896E+01  0.16267840130E+02  0.38006803742E+02  0.00000000000E+00 0.  1.
         11    1    4    4    0    0  0.10514595700E+02  0.41637484525E+02  0.16901398436E+03  0.17438452841E+03  0.00000000000E+00 0. -1.
</event>
<event>
 8    1  0.5951278E-006  0.9092581E+02  0.7561462E-02  0.1300625E+00
          1   -1    0    0  501    0  0.00000000000E+00  0.00000000000E+00  0.49529086833E+02  0.49529086833E+02  0.00000000000E+00 0. -1.
         -1   -1    0    0    0  501 -0.00000000000E+00 -0.00000000000E+00 -0.43305838831E+03  0.43305838831E+03  0.00000000000E+00 0.  1.
         23    2    1    2    0    0 -0.78607917506E+02  0.23842309350E+02 -0.29585046285E+03  0.33154493963E+03  0.12508753023E+03 0.  0.
         23    2    1    2    0    0  0.78607917506E+02 -0.23842309350E+02 -0.87678838632E+02  0.15104253551E+03  0.91534738655E+02 0.  0.
          5    1    3    3  502    0 -0.45045446321E+02 -0.85708957858E+01 -0.17463960384E+02  0.49244439291E+02  0.41800000000E+01 0.  1.
         -5    1    3    3    0  502 -0.33562471185E+02  0.32413205136E+02 -0.27838650246E+03  0.28230050034E+03  0.41800000000E+01 0.  1.
        -11    1    4    4    0    0  0.22960320501E+02 -0.24137697727E+02 -0.89361014525E+02  0.95368735370E+02  0.00000000000E+00 0.  1.
         11    1    4    4    0    0  0.55647597005E+02  0.29538837664E+00  0.16821758926E+01  0.55673800144E+02  0.00000000000E+00 0. -1.
</event>
<event>
 7    1  0.5951278E-006  0.1629903E+03  0.7561462E-02  0.1185361E+00
         -2   -1    0    0    0  501 -0.00000000000E+00  0.00000000000E+00  0.16668967221E+03  0.16668967221E+03  0.00000000000E+00 0.  1.
          2   -1    0    0  501    0  0.00000000000E+00 -0.00000000000E+00 -0.26835363187E+03  0.26835363187E+03  0.00000000000E+00 0. -1.
         23    2    1    2    0    0 -0.66946731200E+02 -0.35023755954E+02 -0.10192094306E+03  0.15697341275E+03  0.92435087369E+02 0.  0.
          5    1    1    2  502    0  0.13323397626E+03 -0.90948178415E+01 -0.87334508839E+02  0.15962079118E+03  0.41800000000E+01 0. -1.
         -5    1    1    2    0  502 -0.66287245063E+02  0.44118573795E+02  0.87591492248E+02  0.11844910015E+03  0.41800000000E+01 0.  1.
        -11    1    3    3    0    0  0.12675977991E+02 -0.30331597244E+02 -0.81506536182E+01  0.33869150622E+02  0.00000000000E+00 0. -1.
         11    1    3    3    0    0 -0.79622709191E+02 -0.46921587093E+01 -0.93770289445E+02  0.12310426213E+03  0.00000000000E+00 0.  1.
</event>
<event>
 8    1  0.5951278E-006  0.1658550E+03  0.7561462E-02  0.1182241E+00
          1   -1    0    0  501    0  0.00000000000E+00  0.00000000000E+00  0.31834876201E+02  0.31834876201E+02  0.00000000000E+00 0. -1.
         -1   -1    0    0    0  501 -0.00000000000E+00 -0.00000000000E+00 -0.90475566265E+03  0.90475566265E+03  0.00000000000E+00 0.  1.
         23    2    1    2    0    0 -0.12782558863E+03 -0.25996654282E+02 -0.45901719015E+03  0.49331434604E+03  0.12508819292E+03 0.  0.
         23    2    1    2    0    0  0.12782558863E+03  0.25996654282E+02 -0.41390359630E+03  0.44327619282E+03  0.90345940389E+02 0.  0.
          5    1    3    3  502    0 -0.15220582060E+03 -0.29412645840E+02 -0.37929558527E+03  0.40977350935E+03  0.41800000000E+01 0.  1.
         -5    1    3    3    0  502  0.24380231971E+02  0.34159915572E+01 -0.79721604884E+02  0.83540836689E+02  0.41800000000E+01 0.  1.
        -11    1    4    4    0    0  0.76977493495E+02 -0.23717559070E+02 -0.28376363667E+03  0.29497433551E+03  0.00000000000E+00 0.  1.
         11    1    4    4    0    0  0.50848095138E+02  0.49714213352E+02 -0.13013995963E+03  0.14830185731E+03  0.00000000000E+00 0. -1.
</event>
<event>
 8    1  0.5951278E-006  0.9008795E+02  0.7561462E-02  0.1302639E+00
         -1   -1    0    0    0  501 -0.00000000000E+00  0.00000000000E+00  0.21556057481E+03  0.21556057481E+03  0.00000000000E+00 0.  1.
          1   -1    0    0  501    0  0.00000000000E+00 -0.00000000000E+00 -0.94952685216E+02  0.94952685216E+02  0.00000000000E+00 0. -1.
         23    2    1    2    0    0 -0.12285530624E+02 -0.49701241296E+00  0.16741246315E+03  0.20934577311E+03  0.12509012198E+03 0.  0.
         23    2    1    2    0    0  0.12285530624E+02  0.49701241296E+00 -0.46804573559E+02  0.10116748691E+03  0.88842619380E+02 0.  0.
          5    1    3    3  502    0  0.46645879039E+02  0.13469795627E+02  0.12800939507E+03  0.13697135121E+03  0.41800000000E+01 0.  1.
         -5    1    3    3    0  502 -0.58931409663E+02 -0.13966808040E+02  0.39403068080E+02  0.72374421903E+02  0.41800000000E+01 0.  1.
        -11    1    4    4    0    0  0.31578251217E+02 -0.23921740083E+02 -0.56109594975E+02  0.68685677159E+02  0.00000000000E+00 0. -1.
         11    1    4    4    0    0 -0.19292720593E+02  0.24418752496E+02  0.93050214163E+01  0.32481809754E+02  0.00000000000E+00 0.  1.
</event>
<event>
 8    1  0.5951278E-006  0.1139444E+03  0.7561462E-02  0.1253435E+00
         -1   -1    0    0    0  501 -0.00000000000E+00  0.00000000000E+00  0.56792192343E+02  0.56792192343E+02  0.00000000000E+00 0.  1.
          1   -1    0    0  501    0  0.00000000000E+00 -0.00000000000E+00 -0.29522728137E+03  0.29522728137E+03  0.00000000000E+00 0. -1.
         23    2    1    2    0    0 -0.43662657565E+02  0.53673502642E+02 -0.11632802574E+03  0.18431053777E+03  0.12510352597E+03 0.  0.
         23    2    1    2    0    0  0.43662657565E+02 -0.53673502642E+02 -0.12210706329E+03  0.16770893594E+03  0.91808930595E+02 0.  0.
          5    1    3    3  502    0 -0.80081262293E+02  0.63593355778E+02 -0.68127191481E+02  0.12294677746E+03  0.41800000000E+01 0.  1.
         -5    1    3    3    0  502  0.36418604727E+02 -0.99198531356E+01 -0.48200834255E+02  0.61363760310E+02  0.41800000000E+01 0.  1.
        -11    1    4    4    0    0  0.33323521524E+02 -0.42708069851E+00  0.83129082831E+00  0.33336624441E+02  0.00000000000E+00 0.  1.
         11    1    4    4    0    0  0.10339136041E+02 -0.53246421943E+02 -0.12293835412E+03  0.13437231150E+03  0.00000000000E+00 0. -1.
</event>
<event>
 8    1  0.5951278E-006  0.2297369E+03  0.7561462E-02  0.1126825E+00
         -2   -1    0    0    0  501 -0.00000000000E+00  0.00000000000E+00  0.66339769570E+02  0.66339769570E+02  0.00000000000E+00 0.  1.
          2   -1    0    0  501    0  0.00000000000E+00 -0.00000000000E+00 -0.10791791836E+04  0.10791791836E+04  0.00000000000E+00 0. -1.
         23    2    1    2    0    0  0.20556743993E+03 -0.55842912821E+02 -0.26392074460E+03  0.36149256211E+03  0.12508520998E+03 0.  0.
         23    2    1    2    0    0 -0.20556743993E+03  0.55842912821E+02 -0.74891866941E+03  0.78402639105E+03  0.91879296867E+02 0.  0.
          5    1    3    3  502    0  0.46215534813E+02 -0.68945853126E+02 -0.12227078197E+03  0.14784120821E+03  0.41800000000E+01 0. -1.
         -5    1    3    3    0  502  0.15935190511E+03  0.13102940305E+02 -0.14164996263E+03  0.21365135389E+03  0.41800000000E+01 0. -1.
        -11    1    4    4    0    0 -0.90062029215E+02  0.44222135000E+02 -0.20988544521E+03  0.23263419018E+03  0.00000000000E+00 0.  1.
         11    1    4    4    0    0 -0.11550541071E+03  0.11620777821E+02 -0.53903322421E+03  0.55139220087E+03  0.00000000000E+00 0. -1.
</event>
<event>
 8    1  0.5951278E-006  0.1702772E+03  0.7561462E-02  0.1177559E+00
         -2   -1    0    0    0  501 -0.00000000000E+00  0.00000000000E+00  0.74275819370E+02  0.74275819370E+02  0.00000000000E+00 0.  1.
          2   -1    0    0  501    0  0.00000000000E+00 -0.00000000000E+00 -0.63222101519E+03  0.63222101519E+03  0.00000000000E+00 0. -1.
         23    2    1    2    0    0  0.56402827829E+02 -0.12088616182E+03 -0.76039970729E+02  0.19805160262E+03  0.12509043546E+03 0.  0.
         23    2    1    2    0    0 -0.56402827829E+02  0.12088616182E+03 -0.48190522509E+03  0.50844523194E+03  0.92136663741E+02 0.  0.
          5    1    3    3  502    0  0.27958524361E+02  0.20251419758E+02  0.83489980213E+00  0.34784602116E+02  0.41800000000E+01 0.  1.
         -5    1    3    3    0  502  0.28444303468E+02 -0.14113758158E+03 -0.76874870531E+02  0.16326700050E+03  0.41800000000E+01 0.  1.
        -11    1    4    4    0    0 -0.44922393772E+01  0.10821630671E+03 -0.30596669374E+03  0.32457135877E+03  0.00000000000E+00 0. -1.
         11    1    4    4    0    0 -0.51910588452E+02  0.12669855108E+02 -0.17593853134E+03  0.18387387317E+03  0.00000000000E+00 0.  1.
</event>
<event>
 8    1  0.5951278E-006  0.1598186E+03  0.7561462E-02  0.1188902E+00
         -1   -1    0    0    0  501 -0.00000000000E+00  0.00000000000E+00  0.87123153768E+03  0.87123153768E+03  0.00000000000E+00 0.  1.
          1   -1    0    0  501    0  0.00000000000E+00 -0.00000000000E+00 -0.33022332014E+02  0.33022332014E+02  0.00000000000E+00 0. -1.
         23    2    1    2    0    0  0.11429441482E+03  0.52705664492E+02  0.53445743382E+03  0.56314660854E+03  0.12509298070E+03 0.  0.
         23    2    1    2    0    0 -0.11429441482E+03 -0.52705664492E+02  0.30375177185E+03  0.34110726115E+03  0.90818083991E+02 0.  0.
          5    1    3    3  502    0  0.13670538321E+03  0.27673649423E+02  0.47081622669E+03  0.49105965461E+03  0.41800000000E+01 0. -1.
         -5    1    3    3    0  502 -0.22410968390E+02  0.25032015069E+02  0.63641207127E+02  0.72086953932E+02  0.41800000000E+01 0. -1.
        -11    1    4    4    0    0 -0.85272519545E+02  0.90437733935E+00  0.23072334171E+03  0.24597861878E+03  0.00000000000E+00 0.  1.
         11    1    4    4    0    0 -0.29021895277E+02 -0.53610041832E+02  0.73028430142E+02  0.95128642373E+02  0.00000000000E+00 0. -1.
</event>
<event>
 7    1  0.5951278E-006  0.8743188E+02  0.7561462E-02  0.1309193E+00
          2   -1    0    0  501    0  0.00000000000E+00  0.00000000000E+00  0.13065947244E+04  0.13065947244E+04  0.00000000000E+00 0. -1.
         -2   -1    0    0    0  501 -0.00000000000E+00 -0.00000000000E+00 -0.16782363368E+02  0.16782363368E+02  0.00000000000E+00 0.  1.
         23    2    1    2    0    0  0.91035878726E+01 -0.46997234276E+02  0.47554870791E+03  0.48687572151E+03  0.92788896171E+02 0.  0.
          5    1    1    2  502    0  0.17011040502E+02  0.39116158985E+02  0.80676735957E+03  0.80790500324E+03  0.41800000000E+01 0. -1.
         -5    1    1    2    0  502 -0.26114628375E+02  0.78810752909E+01  0.74962935926E+01  0.28596363065E+02  0.41800000000E+01 0.  1.
        -11    1    3    3    0    0 -0.23975252779E+02  0.18996034207E+02  0.14056439751E+03  0.14385413414E+03  0.00000000000E+00 0. -1.
         11    1    3    3    0    0  0.33078840651E+02 -0.65993268484E+02  0.33498431040E+03  0.34302158737E+03  0.00000000000E+00 0.  1.
</event>
<event>
 8    1  0.5951278E-006  0.1339811E+03  0.7561462E-02  0.1221665E+00
          1   -1    0    0  501    0  0.00000000000E+00  0.00000000000E+00  0.21647655443E+03  0.21647655443E+03  0.00000000000E+00 0. -1.
         -1   -1    0    0    0  501 -0.00000000000E+00 -0.00000000000E+00 -0.23990250709E+03  0.23990250709E+03  0.00000000000E+00 0.  1.
         23    2    1    2    0    0 -0.11521536290E+03  0.65084231772E+02 -0.16287750688E+03  0.24430313093E+03  0.12507757777E+03 0.  0.
         23    2    1    2    0    0  0.11521536290E+03 -0.65084231772E+02  0.13945155421E+03  0.21207593059E+03  0.89548463365E+02 0.  0.
          5    1    3    3  502    0 -0.21146408090E+01  0.67396600710E+01 -0.10346962856E+03  0.10379465862E+03  0.41800000000E+01 0.  1.
         -5    1    3    3    0  502 -0.11310072209E+03  0.58344571701E+02 -0.59407878318E+02  0.14050847231E+03  0.41800000000E+01 0.  1.
        -11    1    4    4    0    0  0.75584673158E+02 -0.45421730907E+02  0.28571303274E+02  0.92695716329E+02  0.00000000000E+00 0.  1.
         11    1    4    4    0    0  0.39630689744E+02 -0.19662500864E+02  0.11088025094E+03  0.11938021427E+03  0.00000000000E+00 0. -1.
</event>
<event>
 8    1  0.5951278E-006  0.8928817E+02  0.7561462E-02  0.1304585E+00
          2   -1    0    0  501    0  0.00000000000E+00  0.00000000000E+00  0.58097711175E+03  0.58097711175E+03  0.00000000000E+00 0. -1.
         -2   -1    0    0    0  501 -0.00000000000E+00 -0.00000000000E+00 -0.31415495282E+02  0.31415495282E+02  0.00000000000E+00 0.  1.
         23    2    1    2    0    0  0.28599524202E+02 -0.57531931985E+02  0.19115195739E+03  0.23729246680E+03  0.12506313608E+03 0.  0.
         23    2    1    2    0    0 -0.28599524202E+02  0.57531931985E+02  0.35840965908E+03  0.37510014023E+03  0.90082048694E+02 0.  0.
          5    1    3    3  502    0  0.22721101124E+02 -0.22272087347E+02 -0.94776936823E+01  0.33460325591E+02  0.41800000000E+01 0.  1.
         -5    1    3    3    0  502  0.58784230771E+01 -0.35259844638E+02  0.20062965107E+03  0.20383214121E+03  0.41800000000E+01 0.  1.
        -11    1    4    4    0    0 -0.32585275057E+02 -0.16384404537E+02  0.10928181624E+03  0.11520748336E+03  0.00000000000E+00 0.  1.
         11    1    4    4    0    0  0.39857508554E+01  0.73916336522E+02  0.24912784284E+03  0.25989265687E+03  0.00000000000E+00 0. -1.
</event>
<event>
 8    1  0.5951278E-006  0.9027166E+02  0.7561462E-02  0.1302195E+00
         -1   -1    0    0    0  501 -0.00000000000E+00  0.00000000000E+00  0.58006309570E+03  0.58006309570E+03  0.00000000000E+00 0.  1.
          1   -1    0    0  501    0  0.00000000000E+00 -0.00000000000E+00 -0.28692500153E+02  0.28692500153E+02  0.00000000000E+00 0. -1.
         23    2    1    2    0    0  0.65932532369E+02  0.27754611810E+02  0.33636069936E+03  0.36593250827E+03  0.12510261083E+03 0.  0.
         23    2    1    2    0    0 -0.65932532369E+02 -0.27754611810E+02  0.21500989619E+03  0.24282308758E+03  0.87271868900E+02 0.  0.
          5    1    3    3  502    0  0.95305719620E+01  0.29301499704E+02  0.71640509330E+01  0.31909335822E+02  0.41800000000E+01 0.  1.
         -5    1    3    3    0  502  0.56401960407E+02 -0.15468878942E+01  0.32919664842E+03  0.33402317245E+03  0.41800000000E+01 0.  1.
        -11    1    4    4    0    0 -0.97530117233E+01 -0.34901423287E+02  0.15934600829E+03  0.16341475130E+03  0.00000000000E+00 0.  1.
         11    1    4    4    0    0 -0.56179520646E+02  0.71468114766E+01  0.55663887895E+02  0.79408336274E+02  0.00000000000E+00 0. -1.
</event>
<event>
 8    1  0.5951278E-006  0.6494251E+02  0.7561462E-02  0.1378188E+00
          2   -1    0    0  501    0  0.00000000000E+00  0.00000000000E+00  0.47157753325E+03  0.47157753325E+03  0.00000000000E+00 0.  1.
         -2   -1    0    0    0  501 -0.00000000000E+00 -0.00000000000E+00 -0.27499249184E+02  0.27499249184E+02  0.00000000000E+00 0. -1.
         23    2    1    2    0    0  0.85929878004E+01  0.30933421253E+02  0.21233905330E+03  0.24852672879E+03  0.12508775071E+03 0.  0.
         23    2    1    2    0    0 -0.85929878004E+01 -0.30933421253E+02  0.23173923077E+03  0.25055005364E+03  0.89674647001E+02 0.  0.
          5    1    3    3  502    0  0.14089534136E+01  0.25603590570E+02  0.22829189839E+03  0.22976551584E+03  0.41800000000E+01 0. -1.
         -5    1    3    3    0  502  0.71840343868E+01  0.53298306821E+01 -0.15952845085E+02  0.18761212953E+02  0.41800000000E+01 0. -1.
        -11    1    4    4    0    0 -0.28112367817E+01 -0.62185053827E+02  0.17137833799E+03  0.18233326274E+03  0.00000000000E+00 0.  1.
         11    1    4    4    0    0 -0.57817510187E+01  0.31251632575E+02  0.60360892781E+02  0.68216790900E+02  0.00000000000E+00 0. -1.
</event>
<event>
 7    1  0.5951278E-006  0.1422217E+03  0.7561462E-02  0.1210370E+00
         -1   -1    0    0    0  501 -0.00000000000E+00  0.00000000000E+00  0.17246947037E+03  0.17246947037E+03  0.00000000000E+00 0.  1.
          1   -1    0    0  501    0  0.00000000000E+00 -0.00000000000E+00 -0.18053129848E+03  0.18053129848E+03  0.00000000000E+00 0. -1.
         23    2    1    2    0    0  0.37212317046E+02 -0.70187473536E+02 -0.10356988261E+03  0.15967867710E+03  0.91975656316E+02 0.  0.
          5    1    1    2  502    0 -0.76758099035E+02 -0.92492450760E+01  0.30388142821E+02  0.83176113915E+02  0.41800000000E+01 0. -1.
         -5    1    1    2    0  502  0.39545781989E+02  0.79436718612E+02  0.65119911684E+02  0.11014597784E+03  0.41800000000E+01 0.  1.
        -11    1    3    3    0    0  0.59667603953E+02 -0.19548462369E+02 -0.73434187787E+02  0.96617520556E+02  0.00000000000E+00 0.  1.
         11    1    3    3    0    0 -0.22455286907E+02 -0.50639011167E+02 -0.30135694827E+02  0.63061156545E+02  0.00000000000E+00 0. -1.
</event>
<event>
 8    1  0.5951278E-006  0.8904687E+02  0.7561462E-02  0.1305176E+00
          1   -1    0    0  501    0  0.00000000000E+00  0.00000000000E+00  0.35950367997E+03  0.35950367997E+03  0.00000000000E+00 0. -1.
         -1   -1    0    0    0  501 -0.00000000000E+00 -0.00000000000E+00 -0.49567640090E+02  0.49567640090E+02  0.00000000000E+00 0.  1.
         23    2    1    2    0    0  0.53419255125E+02 -0.21947361257E+02  0.10539237139E+03  0.17346914928E+03  0.12509472539E+03 0.  0.
         23    2    1    2    0    0 -0.53419255125E+02  0.21947361257E+02  0.20454366849E+03  0.23560217078E+03  0.10166104010E+03 0.  0.
          5    1    3    3  502    0  0.33724988868E+01 -0.16798430950E+02 -0.26733582879E+02  0.32026830700E+02  0.41800000000E+01 0. -1.
         -5    1    3    3    0  502  0.50046756239E+02 -0.51489303070E+01  0.13212595427E+03  0.14144231858E+03  0.41800000000E+01 0. -1.
        -11    1    4    4    0    0 -0.36803195380E+02  0.58902286270E+02  0.87323432809E+02  0.11157659448E+03  0.00000000000E+00 0.  1.
         11    1    4    4    0    0 -0.16616059745E+02 -0.36954925013E+02  0.11722023568E+03  0.12402557630E+03  0.00000000000E+00 0. -1.
</event>
<event>
 8    1  0.5951278E-006  0.7116945E+02  0.7561462E-02  0.1356161E+00
          1   -1    0    0  501    0  0.00000000000E+00  0.00000000000E+00  0.20365342860E+02  0.20365342860E+02  0.00000000000E+00 0. -1.
         -1   -1    0    0    0  501 -0.00000000000E+00 -0.00000000000E+00 -0.54174339644E+03  0.54174339644E+03  0.00000000000E+00 0.  1.
         23    2    1    2    0    0 -0.86107151781E+01 -0.33558930693E+02 -0.41770677885E+03  0.43740456206E+03  0.12507378450E+03 0.  0.
         23    2    1    2    0    0  0.86107151781E+01  0.33558930693E+02 -0.10367127474E+03  0.12470417725E+03  0.60025431042E+02 0.  0.
          5    1    3    3  502    0  0.16573352657E+02 -0.45717673483E+02 -0.54746870754E+02  0.73344897194E+02  0.41800000000E+01 0.  1.
         -5    1    3    3    0  502 -0.25184067836E+02  0.12158742790E+02 -0.36295990809E+03  0.36405966486E+03  0.41800000000E+01 0.  1.
        -11    1    4    4    0    0 -0.23673842778E+02  0.13757955894E+02 -0.23681594785E+02  0.36201520878E+02  0.00000000000E+00 0. -1.
         11    1    4    4    0    0  0.32284557956E+02  0.19800974799E+02 -0.79989679952E+02  0.88502656369E+02  0.00000000000E+00 0.  1.
</event>
<event>
 8    1  0.5951278E-006  0.8949058E+02  0.7561462E-02  0.1304090E+00
         -2   -1    0    0    0  501 -0.00000000000E+00  0.00000000000E+00  0.24753402258E+02  0.24753402258E+02  0.00000000000E+00 0.  1.
          2   -1    0    0  501    0  0.00000000000E+00 -0.00000000000E+00 -0.59798152479E+03  0.59798152479E+03  0.00000000000E+00 0. -1.
         23    2    1    2    0    0 -0.40777456084E+02  0.31261387524E+02 -0.25194848011E+03  0.28593713563E+03  0.12506771617E+03 0.  0.
         23    2    1    2    0    0  0.40777456084E+02 -0.31261387524E+02 -0.32127964243E+03  0.33679779142E+03  0.87017632666E+02 0.  0.
          5    1    3    3  502    0 -0.49147174441E+02  0.41673425215E+02 -0.45447871257E+02  0.78962652731E+02  0.41800000000E+01 0. -1.
         -5    1    3    3    0  502  0.83697183570E+01 -0.10412037690E+02 -0.20650060885E+03  0.20697448290E+03  0.41800000000E+01 0. -1.
        -11    1    4    4    0    0  0.33839407918E+02  0.26035267675E+02 -0.15568814820E+03  0.16143648962E+03  0.00000000000E+00 0.  1.
         11    1    4    4    0    0  0.69380481663E+01 -0.57296655200E+02 -0.16559149423E+03  0.17536130180E+03  0.00000000000E+00 0. -1.
</event>
<event>
 8    1  0.5951278E-006  0.1152793E+03  0.7561462E-02  0.1251094E+00
          2   -1    0    0  501    0  0.00000000000E+00  0.00000000000E+00  0.40541187619E+03  0.40541187619E+03  0.00000000000E+00 0. -1.
         -2   -1    0    0    0  501 -0.00000000000E+00 -0.00000000000E+00 -0.42042548317E+02  0.42042548317E+02  0.00000000000E+00 0.  1.
         23    2    1    2    0    0  0.68080898387E+02  0.28532864543E+02  0.19655270487E+03  0.24439540449E+03  0.12508802846E+03 0.  0.
         23    2    1    2    0    0 -0.68080898387E+02 -0.28532864543E+02  0.16681662301E+03  0.20305902001E+03  0.89196674900E+02 0.  0.
          5    1    3    3  502    0  0.66922010822E+02 -0.37789106006E+02  0.12449513068E+03  0.14636625987E+03  0.41800000000E+01 0.  1.
         -5    1    3    3    0  502  0.11588875647E+01  0.66321970550E+02  0.72057574182E+02  0.98029144620E+02  0.41800000000E+01 0.  1.
        -11    1    4    4    0    0 -0.58158684444E+02 -0.13328688505E+01  0.16394910365E+03  0.17396412764E+03  0.00000000000E+00 0. -1.
         11    1    4    4    0    0 -0.99222139425E+01 -0.27199995693E+02  0.28675193545E+01  0.29094892378E+02  0.00000000000E+00 0.  1.
</event>
<event>
 8    1  0.5951278E-006  0.1185470E+03  0.7561462E-02  0.1245514E+00
          3   -1    0    0  501    0  0.00000000000E+00  0.00000000000E+00  0.90006248406E+02  0.90006248406E+02  0.00000000000E+00 0. -1.
         -3   -1    0    0    0  501 -0.00000000000E+00 -0.00000000000E+00 -0.28246274070E+03  0.28246274070E+03  0.00000000000E+00 0.  1.
         23    2    1    2    0    0 -0.11263116447E+03  0.15447347202E+02 -0.12771207814E+03  0.21185310550E+03  0.12508782380E+03 0.  0.
         23    2    1    2    0    0  0.11263116447E+03 -0.15447347202E+02 -0.64744414153E+02  0.16061588360E+03  0.93173081708E+02 0.  0.
          5    1    3    3  502    0 -0.20322395356E+02  0.66187332947E+01  0.24992293438E+02  0.33149577897E+02  0.41800000000E+01 0.  1.
         -5    1    3    3    0  502 -0.92308769118E+02  0.88286139070E+01 -0.15270437158E+03  0.17870352761E+03  0.41800000000E+01 0.  1.
        -11    1    4    4    0    0  0.17964027663E+01 -0.11444682452E+02 -0.46866614141E+02  0.48277192755E+02  0.00000000000E+00 0.  1.
         11    1    4    4    0    0  0.11083476171E+03 -0.40026647501E+01 -0.17877800013E+02  0.11233869085E+03  0.00000000000E+00 0. -1.
</event>
<event>
 8    1  0.5951278E-006  0.7407291E+02  0.7561462E-02  0.1346766E+00
         -1   -1    0    0    0  501 -0.00000000000E+00  0.00000000000E+00  0.65417381623E+02  0.65417381623E+02  0.00000000000E+00 0.  1.
          1   -1    0    0  501    0  0.00000000000E+00 -0.00000000000E+00 -0.24635066972E+03  0.24635066972E+03  0.00000000000E+00 0. -1.
         23    2    1    2    0    0  0.77996893037E+01 -0.58408489498E+02 -0.86319562124E+02  0.16300040946E+03  0.12508269217E+03 0.  0.
         23    2    1    2    0    0 -0.77996893037E+01  0.58408489498E+02 -0.94613725968E+02  0.14876764188E+03  0.98527495296E+02 0.  0.
          5    1    3    3  502    0 -0.12112038955E+02 -0.64792995138E+02 -0.11175234489E+03  0.12981098835E+03  0.41800000000E+01 0. -1.
         -5    1    3    3    0  502  0.19911728259E+02  0.63845056398E+01  0.25432782768E+02  0.33189421114E+02  0.41800000000E+01 0. -1.
        -11    1    4    4    0    0 -0.10491775510E+02  0.23191091083E+02  0.17718362046E+02  0.31013616566E+02  0.00000000000E+00 0.  1.
         11    1    4    4    0    0  0.26920862064E+01  0.35217398416E+02 -0.11233208801E+03  0.11775402531E+03  0.00000000000E+00 0. -1.
</event>
<event>
 8    1  0.5951278E-006  0.1033704E+03  0.7561462E-02  0.1273364E+00
          1   -1    0    0  501    0  0.00000000000E+00  0.00000000000E+00  0.23567205120E+03  0.23567205120E+03  0.00000000000E+00 0. -1.
         -1   -1    0    0    0  501 -0.00000000000E+00 -0.00000000000E+00 -0.53614021310E+02  0.53614021310E+02  0.00000000000E+00 0.  1.
         23    2    1    2    0    0 -0.99691004133E+01  0.53632627406E+01  0.65820302816E+02  0.14181990393E+03  0.12510965326E+03 0.  0.
         23    2    1    2    0    0  0.99691004133E+01 -0.53632627406E+01  0.11623772708E+03  0.14746616858E+03  0.90038403634E+02 0.  0.
          5    1    3    3  502    0 -0.40239894277E+02 -0.48656305318E+02  0.37947464458E+02  0.73784602712E+02  0.41800000000E+01 0.  1.
         -5    1    3    3    0  502  0.30270793863E+02  0.54019568058E+02  0.27872838358E+02  0.68035301223E+02  0.41800000000E+01 0.  1.
        -11    1    4    4    0    0 -0.23995878743E+01 -0.42340092179E+02  0.92653837943E+02  0.10189786609E+03  0.00000000000E+00 0. -1.
         11    1    4    4    0    0  0.12368688288E+02  0.36976829438E+02  0.23583889136E+02  0.45568302493E+02  0.00000000000E+00 0.  1.
</event>
<event>
 8    1  0.5951278E-006  0.1297303E+03  0.7561462E-02  0.1227856E+00
          2   -1    0    0  501    0  0.00000000000E+00  0.00000000000E+00  0.21040377207E+02  0.21040377207E+02  0.00000000000E+00 0. -1.
         -2   -1    0    0    0  501 -0.00000000000E+00 -0.00000000000E+00 -0.13359588127E+04  0.13359588127E+04  0.00000000000E+00 0.  1.
         23    2    1    2    0    0  0.44476305471E+02  0.68720138196E+02 -0.10930856622E+04  0.11032542030E+04  0.12503188493E+03 0.  0.
         23    2    1    2    0    0 -0.44476305471E+02 -0.68720138196E+02 -0.22183277324E+03  0.25374498692E+03  0.92065954407E+02 0.  0.
          5    1    3    3  502    0  0.15774279899E+02 -0.36667716112E+02 -0.29057606305E+03  0.29333474075E+03  0.41800000000E+01 0.  1.
         -5    1    3    3    0  502  0.28702025572E+02  0.10538785431E+03 -0.80250959919E+03  0.80991946223E+03  0.41800000000E+01 0.  1.
        -11    1    4    4    0    0 -0.47576818251E+02 -0.82857805425E+02 -0.21908475930E+03  0.23901276391E+03  0.00000000000E+00 0.  1.
         11    1    4    4    0    0  0.31005127798E+01  0.14137667229E+02 -0.27480139427E+01  0.14732223010E+02  0.00000000000E+00 0. -1.
</event>
<event>
 8    1  0.5951278E-006  0.1123158E+03  0.7561462E-02  0.1256341E+00
         -2   -1    0    0    0  501 -0.00000000000E+00  0.00000000000E+00  0.18346541269E+02  0.18346541269E+02  0.00000000000E+00 0.  1.
          2   -1    0    0  501    0  0.00000000000E+00 -0.00000000000E+00 -0.79677267697E+03  0.79677267697E+03  0.00000000000E+00 0. -1.
         23    2    1    2    0    0  0.35114846533E+02  0.18605175439E+02 -0.31767212583E+03  0.34371848910E+03  0.12509042816E+03 0.  0.
         23    2    1    2    0    0 -0.35114846533E+02 -0.18605175439E+02 -0.46075400987E+03  0.47140072914E+03  0.91351983140E+02 0.  0.
          5    1    3    3  502    0  0.61636103064E+02  0.53448205574E+02 -0.15506099918E+03  0.17526296171E+03  0.41800000000E+01 0. -1.
         -5    1    3    3    0  502 -0.26521256532E+02 -0.34843030135E+02 -0.16261112665E+03  0.16845552738E+03  0.41800000000E+01 0. -1.
        -11    1    4    4    0    0 -0.33307844105E+02  0.33252601197E+02 -0.24648581717E+03  0.25093904844E+03  0.00000000000E+00 0. -1.
         11    1    4    4    0    0 -0.18070024274E+01 -0.51857776636E+02 -0.21426819270E+03  0.22046168070E+03  0.00000000000E+00 0.  1.
</event>
<event>
 8    1  0.5951278E-006  0.8691006E+02  0.7561462E-02  0.1310512E+00
          1   -1    0    0  501    0  0.00000000000E+00  0.00000000000E+00  0.22191832065E+03  0.22191832065E+03  0.00000000000E+00 0. -1.
         -1   -1    0    0    0  501 -0.00000000000E+00 -0.00000000000E+00 -0.55501607581E+02  0.55501607581E+02  0.00000000000E+00 0.  1.
         23    2    1    2    0    0 -0.41659436678E+01 -0.21160501320E+02  0.78610465260E+02  0.14930515047E+03  0.12508917142E+03 0.  0.
         23    2    1    2    0    0  0.41659436678E+01  0.21160501320E+02  0.87806247808E+02  0.12811477776E+03  0.90765286440E+02 0.  0.
          5    1    3    3  502    0  0.33591949592E+02  0.11892307245E+02  0.90683262182E+02  0.97523189494E+02  0.41800000000E+01 0. -1.
         -5    1    3    3    0  502 -0.37757893260E+02 -0.33052808565E+02 -0.12072796923E+02  0.51781960981E+02  0.41800000000E+01 0. -1.
        -11    1    4    4    0    0  0.37145274978E+02 -0.13705916329E+02  0.18222177132E+02  0.43585219227E+02  0.00000000000E+00 0.  1.
         11    1    4    4    0    0 -0.32979331310E+02  0.34866417648E+02  0.69584070675E+02  0.84529558529E+02  0.00000000000E+00 0. -1.
</event>
<event>
 8    1  0.5951278E-006  0.5197841E+03  0.7561462E-02  0.1008740E+00
         -2   -1    0    0    0  501 -0.00000000000E+00  0.00000000000E+00  0.26136559399E+03  0.26136559399E+03  0.00000000000E+00 0.  1.
          2   -1    0    0  501    0  0.00000000000E+00 -0.00000000000E+00 -0.16499039605E+04  0.16499039605E+04  0.00000000000E+00 0. -1.
         23    2    1    2    0    0  0.48884475155E+03  0.16776447951E+03 -0.12957370541E+03  0.54731424263E+03  0.12509765525E+03 0.  0.
         23    2    1    2    0    0 -0.48884475155E+03 -0.16776447951E+03 -0.12589646611E+04  0.13639553119E+04  0.90928340732E+02 0.  0.
          5    1    3    3  502    0  0.23468554240E+03  0.44651059841E+02 -0.59507505573E+01  0.23900607689E+03  0.41800000000E+01 0. -1.
         -5    1    3    3    0  502  0.25415920915E+03  0.12311341967E+03 -0.12362295485E+03  0.30830816574E+03  0.41800000000E+01 0. -1.
        -11    1    4    4    0    0 -0.43779486035E+02 -0.40075215229E+01 -0.18139988146E+03  0.18665106649E+03  0.00000000000E+00 0. -1.
         11    1    4    4    0    0 -0.44506526551E+03 -0.16375695799E+03 -0.10775647797E+04  0.11773042454E+04  0.00000000000E+00 0.  1.
</event>
<event>
 8    1  0.5951278E-006  0.1669288E+03  0.7561462E-02  0.1181089E+00
          1   -1    0    0  501    0  0.00000000000E+00  0.00000000000E+00  0.18815077485E+03  0.18815077485E+03  0.00000000000E+00 0. -1.
         -1   -1    0    0    0  501 -0.00000000000E+00 -0.00000000000E+00 -0.20118835660E+03  0.20118835660E+03  0.00000000000E+00 0.  1.
         23    2    1    2    0    0 -0.11721293003E+03  0.67672973921E+02 -0.93452204747E+02  0.20663761311E+03  0.12508911310E+03 0.  0.
         23    2    1    2    0    0  0.11721293003E+03 -0.67672973921E+02  0.80414622997E+02  0.18270151834E+03  0.92708310568E+02 0.  0.
          5    1    3    3  502    0  0.21004606503E+02 -0.11602457670E+02 -0.71751164059E+01  0.25392227428E+02  0.41800000000E+01 0.  1.
         -5    1    3    3    0  502 -0.13821753653E+03  0.79275431591E+02 -0.86277088341E+02  0.18124538568E+03  0.41800000000E+01 0.  1.
        -11    1    4    4    0    0  0.70315543143E+02 -0.32085430759E+01  0.13174008992E+01  0.70401036223E+02  0.00000000000E+00 0.  1.
         11    1    4    4    0    0  0.46897386883E+02 -0.64464430845E+02  0.79097222098E+02  0.11230048212E+03  0.00000000000E+00 0. -1.
</event>
<event>
 8    1  0.5951278E-006  0.1097495E+03  0.7561462E-02  0.1261035E+00
          3   -1    0    0  501    0  0.00000000000E+00  0.00000000000E+00  0.48296869293E+02  0.48296869293E+02  0.00000000000E+00 0.  1.
         -3   -1    0    0    0  501 -0.00000000000E+00 -0.00000000000E+00 -0.37110354392E+03  0.37110354392E+03  0.00000000000E+00 0. -1.
         23    2    1    2    0    0  0.22798865090E+01 -0.84291226746E+02 -0.25643618839E+03  0.29751526927E+03  0.12508240460E+03 0.  0.
         23    2    1    2    0    0 -0.22798865090E+01  0.84291226746E+02 -0.66370486234E+02  0.12188514394E+03  0.57799118356E+02 0.  0.
          5    1    3    3  502    0 -0.35962135861E+02  0.40323774018E+01 -0.18586091718E+02  0.40895604758E+02  0.41800000000E+01 0.  1.
         -5    1    3    3    0  502  0.38242022370E+02 -0.88323604148E+02 -0.23785009667E+03  0.25661966451E+03  0.41800000000E+01 0.  1.
        -11    1    4    4    0    0 -0.11282858605E+02  0.41612473579E+02 -0.65305521546E+02  0.78254150050E+02  0.00000000000E+00 0. -1.
         11    1    4    4    0    0  0.90029720964E+01  0.42678753167E+02 -0.10649646882E+01  0.43630993895E+02  0.00000000000E+00 0.  1.
</event>
<event>
 8    1  0.5951278E-006  0.1162889E+03  0.7561462E-02  0.1249348E+00
          2   -1    0    0  501    0  0.00000000000E+00  0.00000000000E+00  0.70516255892E+02  0.70516255892E+02  0.00000000000E+00 0. -1.
         -2   -1    0    0    0  501 -0.00000000000E+00 -0.00000000000E+00 -0.23666876568E+03  0.23666876568E+03  0.00000000000E+00 0.  1.
         23    2    1    2    0    0 -0.55154581453E+02  0.36063391238E+02 -0.11920295890E+03  0.18493089046E+03  0.12508993881E+03 0.  0.
         23    2    1    2    0    0  0.55154581453E+02 -0.36063391238E+02 -0.46949550879E+02  0.12225413111E+03  0.91647237831E+02 0.  0.
          5    1    3    3  502    0  0.18576598871E+02  0.41593174153E+02 -0.13778641741E+01  0.45765194978E+02  0.41800000000E+01 0.  1.
         -5    1    3    3    0  502 -0.73731180324E+02 -0.55297829150E+01 -0.11782509473E+03  0.13916569548E+03  0.41800000000E+01 0.  1.
        -11    1    4    4    0    0  0.67766047495E+02 -0.56856409616E+02 -0.38944913257E+02  0.96651925879E+02  0.00000000000E+00 0.  1.
         11    1    4    4    0    0 -0.12611466043E+02  0.20793018378E+02 -0.80046376213E+01  0.25602205227E+02  0.00000000000E+00 0. -1.
</event>
<event>
 8    1  0.5951278E-006  0.1210824E+03  0.7561462E-02  0.1241322E+00
          2   -1    0    0  501    0  0.00000000000E+00  0.00000000000E+00  0.12390782066E+03  0.12390782066E+03  0.00000000000E+00 0.  1.
         -2   -1    0    0    0  501 -0.00000000000E+00 -0.00000000000E+00 -0.18441921282E+03  0.18441921282E+03  0.00000000000E+00 0. -1.
         23    2    1    2    0    0  0.35521785221E+02 -0.74144194251E+02 -0.93582332926E+02  0.17653558928E+03  0.12509197608E+03 0.  0.
         23    2    1    2    0    0 -0.35521785221E+02  0.74144194251E+02  0.33070940772E+02  0.13179144421E+03  0.97550699005E+02 0.  0.
          5    1    3    3  502    0  0.64120914654E+02 -0.18610615799E+02 -0.37009799256E+01  0.67000122155E+02  0.41800000000E+01 0. -1.
         -5    1    3    3    0  502 -0.28599129433E+02 -0.55533578452E+02 -0.89881353000E+02  0.10953546712E+03  0.41800000000E+01 0. -1.
        -11    1    4    4    0    0 -0.52951192505E+02  0.78506897405E+02  0.50017667476E+02  0.10709308469E+03  0.00000000000E+00 0.  1.
         11    1    4    4    0    0  0.17429407283E+02 -0.43627031548E+01 -0.16946726704E+02  0.24698359521E+02  0.00000000000E+00 0. -1.
</event>
<event>
 8    1  0.5951278E-006  0.1721553E+03  0.7561462E-02  0.1175619E+00
         -4   -1    0    0    0  501 -0.00000000000E+00  0.00000000000E+00  0.74481249553E+02  0.74481249553E+02  0.00000000000E+00 0.  1.
          4   -1    0    0  501    0  0.00000000000E+00 -0.00000000000E+00 -0.54675332035E+03  0.54675332035E+03  0.00000000000E+00 0. -1.
         23    2    1    2    0    0 -0.53917208880E+02  0.15120600075E+03 -0.15733233701E+03  0.25653759635E+03  0.12364365732E+03 0.  0.
         23    2    1    2    0    0  0.53917208880E+02 -0.15120600075E+03 -0.31493973379E+03  0.36469697355E+03  0.89702433203E+02 0.  0.
          5    1    3    3  502    0 -0.71341583013E+02  0.94364295019E+02 -0.15739446655E+03  0.19693839682E+03  0.41800000000E+01 0. -1.
         -5    1    3    3    0  502  0.17424374132E+02  0.56841705735E+02  0.62129540664E-01  0.59599199532E+02  0.41800000000E+01 0.  1.
        -11    1    4    4    0    0  0.22878383208E+02 -0.16766777247E+02 -0.13499581851E+03  0.13794352559E+03  0.00000000000E+00 0.  1.
         11    1    4    4    0    0  0.31038825672E+02 -0.13443922351E+03 -0.17994391527E+03  0.22675344796E+03  0.00000000000E+00 0. -1.
</event>
<event>
 8    1  0.5951278E-006  0.1188016E+03  0.7561462E-02  0.1245087E+00
          2   -1    0    0  501    0  0.00000000000E+00  0.00000000000E+00  0.53925302304E+03  0.53925302304E+03  0.00000000000E+00 0. -1.
         -2   -1    0    0    0  501 -0.00000000000E+00 -0.00000000000E+00 -0.27246448685E+02  0.27246448685E+02  0.00000000000E+00 0.  1.
         23    2    1    2    0    0  0.50505963946E+02  0.18816039981E+02  0.31667723848E+03  0.34472711469E+03  0.12508962577E+03 0.  0.
         23    2    1    2    0    0 -0.50505963946E+02 -0.18816039981E+02  0.19532933587E+03  0.22177235704E+03  0.90136192161E+02 0.  0.
          5    1    3    3  502    0 -0.24068675685E+02  0.49062885269E+02  0.14704179550E+03  0.15692428073E+03  0.41800000000E+01 0.  1.
         -5    1    3    3    0  502  0.74574639631E+02 -0.30246845289E+02  0.16963544298E+03  0.18780283395E+03  0.41800000000E+01 0.  1.
        -11    1    4    4    0    0 -0.51217813691E+02 -0.49671359996E+02  0.15781470538E+03  0.17319350357E+03  0.00000000000E+00 0. -1.
         11    1    4    4    0    0  0.71184974433E+00  0.30855320015E+02  0.37514630492E+02  0.48578853468E+02  0.00000000000E+00 0.  1.
</event>
<event>
 8    1  0.5951278E-006  0.9350975E+02  0.7561462E-02  0.1294568E+00
         -1   -1    0    0    0  501 -0.00000000000E+00  0.00000000000E+00  0.18545152473E+03  0.18545152473E+03  0.00000000000E+00 0.  1.
          1   -1    0    0  501    0  0.00000000000E+00 -0.00000000000E+00 -0.93878008121E+02  0.93878008121E+02  0.00000000000E+00 0. -1.
         23    2    1    2    0    0  0.24913581099E+02 -0.50986464712E+02  0.10489268464E+03  0.17283455469E+03  0.12509597074E+03 0.  0.
         23    2    1    2    0    0 -0.24913581099E+02  0.50986464712E+02 -0.13319168032E+02  0.10649497817E+03  0.89126169167E+02 0.  0.
          5    1    3    3  502    0  0.38624744740E+02 -0.19932400494E+01  0.11446759133E+03  0.12089725297E+03  0.41800000000E+01 0. -1.
         -5    1    3    3    0  502 -0.13711163641E+02 -0.48993224663E+02 -0.95749066857E+01  0.51937301714E+02  0.41800000000E+01 0. -1.
        -11    1    4    4    0    0 -0.20457643460E+02  0.72381465816E+02  0.83991746058E+01  0.75684462763E+02  0.00000000000E+00 0.  1.
         11    1    4    4    0    0 -0.44559376391E+01 -0.21395001104E+02 -0.21718342638E+02  0.30810515403E+02  0.00000000000E+00 0. -1.
</event>
<event>
 8    1  0.5951278E-006  0.1529006E+03  0.7561462E-02  0.1196953E+00
         -2   -1    0    0    0  501 -0.00000000000E+00  0.00000000000E+00  0.79010002156E+02  0.79010002156E+02  0.00000000000E+00 0.  1.
          2   -1    0    0  501    0  0.00000000000E+00 -0.00000000000E+00 -0.37816605948E+03  0.37816605948E+03  0.00000000000E+00 0. -1.
         23    2    1    2    0    0 -0.24280128585E+00 -0.12485996564E+03 -0.92928049750E+02  0.19958915817E+03  0.12494054448E+03 0.  0.
         23    2    1    2    0    0  0.24280128585E+00  0.12485996564E+03 -0.20622800758E+03  0.25758690347E+03  0.90724592916E+02 0.  0.
          5    1    3    3  502    0  0.16589454655E+02  0.92519873420E+01 -0.56187038483E+02  0.59458094226E+02  0.41800000000E+01 0. -1.
         -5    1    3    3    0  502 -0.16832255940E+02 -0.13411195298E+03 -0.36741011267E+02  0.14013106394E+03  0.41800000000E+01 0. -1.
        -11    1    4    4    0    0 -0.42314447009E+02  0.68201395264E+02 -0.13537647530E+03  0.15738085273E+03  0.00000000000E+00 0. -1.
         11    1    4    4    0    0  0.42557248294E+02  0.56658570375E+02 -0.70851532276E+02  0.10020605074E+03  0.00000000000E+00 0.  1.
</event>
<event>
 8    1  0.5951278E-006  0.9732421E+02  0.7561462E-02  0.1286026E+00
         -2   -1    0    0    0  501 -0.00000000000E+00  0.00000000000E+00  0.18551135896E+03  0.18551135896E+03  0.00000000000E+00 0.  1.
          2   -1    0    0  501    0  0.00000000000E+00 -0.00000000000E+00 -0.11147942817E+03  0.11147942817E+03  0.00000000000E+00 0. -1.
         23    2    1    2    0    0  0.34531980538E+02  0.21134830840E+02  0.13725728108E+03  0.19007008530E+03  0.12509171580E+03 0.  0.
         23    2    1    2    0    0 -0.34531980538E+02 -0.21134830840E+02 -0.63225350285E+02  0.10692070183E+03  0.76127871419E+02 0.  0.
          5    1    3    3  502    0 -0.34847448325E+02 -0.78932586379E+01  0.29648570695E+01  0.36095857991E+02  0.41800000000E+01 0.  1.
         -5    1    3    3    0  502  0.69379428863E+02  0.29028089478E+02  0.13429242401E+03  0.15397422731E+03  0.41800000000E+01 0.  1.
        -11    1    4    4    0    0 -0.57549945831E+02 -0.16533415294E+02 -0.32109610995E+02  0.67943926915E+02  0.00000000000E+00 0.  1.
         11    1    4    4    0    0  0.23017965293E+02 -0.46014155463E+01 -0.31115739290E+02  0.38976774915E+02  0.00000000000E+00 0. -1.
</event>
<event>
 8    1  0.5951278E-006  0.1010485E+03  0.7561462E-02  0.1278106E+00
          3   -1    0    0  501    0  0.00000000000E+00  0.00000000000E+00  0.70678488891E+02  0.70678488891E+02  0.00000000000E+00 0. -1.
         -3   -1    0    0    0  501 -0.00000000000E+00 -0.00000000000E+00 -0.17376093308E+03  0.17376093308E+03  0.00000000000E+00 0.  1.
         23    2    1    2    0    0 -0.11918288202E+01 -0.16032761015E+02 -0.77803145784E+02  0.14817808551E+03  0.12507975715E+03 0.  0.
         23    2    1    2    0    0  0.11918288202E+01  0.16032761015E+02 -0.25279298407E+02  0.96261336467E+02  0.91480774421E+02 0.  0.
          5    1    3    3  502    0 -0.37646255521E+02 -0.52431655099E+02 -0.14199283168E+02  0.66222436180E+02  0.41800000000E+01 0. -1.
         -5    1    3    3    0  502  0.36454426701E+02  0.36398894084E+02 -0.63603862617E+02  0.81955649326E+02  0.41800000000E+01 0. -1.
        -11    1    4    4    0    0 -0.45704201317E+01  0.50539564670E+02 -0.32871815228E+02  0.60462323587E+02  0.00000000000E+00 0. -1.
         11    1    4    4    0    0  0.57622489519E+01 -0.34506803655E+02  0.75925168208E+01  0.35799012880E+02  0.00000000000E+00 0.  1.
</event>
<event>
 8    1  0.5951278E-006  0.1086485E+03  0.7561462E-02  0.1263093E+00
          1   -1    0    0  501    0  0.00000000000E+00  0.00000000000E+00  0.18655538465E+03  0.18655538465E+03  0.00000000000E+00 0. -1.
         -1   -1    0    0    0  501 -0.00000000000E+00 -0.00000000000E+00 -0.14099238054E+03  0.14099238054E+03  0.00000000000E+00 0.  1.
         23    2    1    2    0    0  0.82693916344E+02 -0.31101070496E+02 -0.58324226755E+02  0.16387598856E+03  0.12509222123E+03 0.  0.
         23    2    1    2    0    0 -0.82693916344E+02  0.31101070496E+02  0.10388723086E+03  0.16367177664E+03  0.90500460469E+02 0.  0.
          5    1    3    3  502    0  0.78748839106E+02  0.11542664669E+02  0.12826830647E+02  0.80725539655E+02  0.41800000000E+01 0. -1.
         -5    1    3    3    0  502  0.39450772379E+01 -0.42643735165E+02 -0.71151057402E+02  0.83150448903E+02  0.41800000000E+01 0. -1.
        -11    1    4    4    0    0 -0.23598683436E+02 -0.65580748357E+01 -0.12742571378E+02  0.27609406564E+02  0.00000000000E+00 0.  1.
         11    1    4    4    0    0 -0.59095232907E+02  0.37659145332E+02  0.11662980224E+03  0.13606237007E+03  0.00000000000E+00 0. -1.
</event>
<event>
 8    1  0.5951278E-006  0.1455508E+03  0.7561462E-02  0.1206049E+00
          1   -1    0    0  501    0  0.00000000000E+00  0.00000000000E+00  0.21028582733E+02  0.21028582733E+02  0.00000000000E+00 0. -1.
         -1   -1    0    0    0  501 -0.00000000000E+00 -0.00000000000E+00 -0.13783372488E+04  0.13783372488E+04  0.00000000000E+00 0.  1.
         23    2    1    2    0    0  0.42911151058E+02 -0.90462585689E+02 -0.10799921902E+04  0.10915043984E+04  0.12236778417E+03 0.  0.
         23    2    1    2    0    0 -0.42911151058E+02  0.90462585689E+02 -0.27731647586E+03  0.30786143309E+03  0.88596771443E+02 0.  0.
          5    1    3    3  502    0  0.25352457091E+02  0.28045997383E+02 -0.28419397704E+03  0.28672811867E+03  0.41800000000E+01 0. -1.
         -5    1    3    3    0  502  0.17558693967E+02 -0.11850858307E+03 -0.79579821315E+03  0.80477627975E+03  0.41800000000E+01 0.  1.
        -11    1    4    4    0    0 -0.34646558513E+02 -0.70255444813E+01 -0.85914248622E+02  0.92903177601E+02  0.00000000000E+00 0.  1.
         11    1    4    4    0    0 -0.82645925444E+01  0.97488130170E+02 -0.19140222723E+03  0.21495825549E+03  0.00000000000E+00 0. -1.
</event>
<event>
 8    1  0.8744649E-006  0.3500070E+03  0.7561462E-02  0.1062612E+00
         -2   -1    0    0    0  501 -0.00000000000E+00  0.00000000000E+00  0.14441137728E+03  0.14441137728E+03  0.00000000000E+00 0.  1.
          2   -1    0    0  501    0  0.00000000000E+00 -0.00000000000E+00 -0.98308206867E+03  0.98308206867E+03  0.00000000000E+00 0. -1.
         23    2    1    2    0    0  0.31418179818E+03  0.14471048518E+03 -0.27227849868E+03  0.45764027448E+03  0.12509081961E+03 0.  0.
         23    2    1    2    0    0 -0.31418179818E+03 -0.14471048518E+03 -0.56639219271E+03  0.66985317147E+03  0.90839575841E+02 0.  0.
          5    1    3    3  502    0  0.12011954847E+03  0.36906065866E+02 -0.17438112412E+03  0.21498142355E+03  0.41800000000E+01 0. -1.
         -5    1    3    3    0  502  0.19406224971E+03  0.10780441932E+03 -0.97897374559E+02  0.24265885093E+03  0.41800000000E+01 0. -1.
        -11    1    4    4    0    0 -0.14686870893E+03 -0.10426716601E+03 -0.34732237410E+03  0.39124786405E+03  0.00000000000E+00 0. -1.
         11    1    4    4    0    0 -0.16731308925E+03 -0.40443319174E+02 -0.21906981861E+03  0.27860530743E+03  0.00000000000E+00 0.  1.
</event>
<event>
 8    1  0.5951278E-006  0.1197481E+03  0.7561462E-02  0.1243513E+00
         -2   -1    0    0    0  501 -0.00000000000E+00  0.00000000000E+00  0.54278772560E+02  0.54278772560E+02  0.00000000000E+00 0.  1.
          2   -1    0    0  501    0  0.00000000000E+00 -0.00000000000E+00 -0.38752005779E+03  0.38752005779E+03  0.00000000000E+00 0. -1.
         23    2    1    2    0    0 -0.28060823104E+01  0.88178391893E+02 -0.12069932264E+03  0.19493352880E+03  0.12508977284E+03 0.  0.
         23    2    1    2    0    0  0.28060823104E+01 -0.88178391893E+02 -0.21254196259E+03  0.24686530155E+03  0.89359321576E+02 0.  0.
          5    1    3    3  502    0  0.20561156373E+02  0.96422157043E+02 -0.33538066915E+02  0.10422220422E+03  0.41800000000E+01 0. -1.
         -5    1    3    3    0  502 -0.23367238683E+02 -0.82437651498E+01 -0.87161255724E+02  0.90711324579E+02  0.41800000000E+01 0. -1.
        -11    1    4    4    0    0  0.33178286982E+02 -0.14909759016E+02 -0.27685679994E+02  0.45712104718E+02  0.00000000000E+00 0. -1.
         11    1    4    4    0    0 -0.30372204672E+02 -0.73268632877E+02 -0.18485628259E+03  0.20115319683E+03  0.00000000000E+00 0.  1.
</event>
<event>
 8    1  0.5951278E-006  0.1032233E+03  0.7561462E-02  0.1273660E+00
         -2   -1    0    0    0  501 -0.00000000000E+00  0.00000000000E+00  0.78015245705E+02  0.78015245705E+02  0.00000000000E+00 0.  1.
          2   -1    0    0  501    0  0.00000000000E+00 -0.00000000000E+00 -0.19361958447E+03  0.19361958447E+03  0.00000000000E+00 0. -1.
         23    2    1    2    0    0 -0.33366348238E+02  0.17238583163E+02 -0.18216212569E+02  0.13187544382E+03  0.12509524506E+03 0.  0.
         23    2    1    2    0    0  0.33366348238E+02 -0.17238583163E+02 -0.97388126195E+02  0.13975938636E+03  0.92939534143E+02 0.  0.
          5    1    3    3  502    0 -0.46031819710E+02 -0.45602323725E+02 -0.18919985368E+02  0.67630899752E+02  0.41800000000E+01 0. -1.
         -5    1    3    3    0  502  0.12665471472E+02  0.62840906888E+02  0.70377279892E+00  0.64244544067E+02  0.41800000000E+01 0. -1.
        -11    1    4    4    0    0  0.21944033589E+02  0.25148343739E+02 -0.48884376177E+00  0.33379915685E+02  0.00000000000E+00 0.  1.
         11    1    4    4    0    0  0.11422314649E+02 -0.42386926902E+02 -0.96899282433E+02  0.10637947067E+03  0.00000000000E+00 0. -1.
</event>
<event>
 8    1  0.5951278E-006  0.6100242E+02  0.7561462E-02  0.1393673E+00
         -1   -1    0    0    0  501 -0.00000000000E+00  0.00000000000E+00  0.28404760233E+03  0.28404760233E+03  0.00000000000E+00 0.  1.
          1   -1    0    0  501    0  0.00000000000E+00 -0.00000000000E+00 -0.47432732374E+02  0.47432732374E+02  0.00000000000E+00 0. -1.
         23    2    1    2    0    0  0.28873947520E+02  0.28272900882E+02  0.18195378384E+03  0.21824846601E+03  0.11354361142E+03 0.  0.
         23    2    1    2    0    0 -0.28873947520E+02 -0.28272900882E+02  0.54661086117E+02  0.11323186869E+03  0.90556943310E+02 0.  0.
          5    1    3    3  502    0  0.38995460668E+02  0.13318082954E+02  0.66277900058E+01  0.41945408409E+02  0.41800000000E+01 0. -1.
         -5    1    3    3    0  502 -0.10121513148E+02  0.14954817927E+02  0.17532599383E+03  0.17630305760E+03  0.41800000000E+01 0.  1.
        -11    1    4    4    0    0  0.12975783434E+02 -0.10017933297E+02  0.64479071576E+02  0.66530298470E+02  0.00000000000E+00 0.  1.
         11    1    4    4    0    0 -0.41849730954E+02 -0.18254967585E+02 -0.98179854586E+01  0.46701570218E+02  0.00000000000E+00 0. -1.
</event>
<event>
 7    1  0.5951278E-006  0.1068287E+03  0.7561462E-02  0.1266558E+00
          4   -1    0    0  501    0  0.00000000000E+00  0.00000000000E+00  0.47646777607E+02  0.47646777607E+02  0.00000000000E+00 0. -1.
         -4   -1    0    0    0  501 -0.00000000000E+00 -0.00000000000E+00 -0.37949196378E+03  0.37949196378E+03  0.00000000000E+00 0.  1.
         23    2    1    2    0    0 -0.89846348580E+01 -0.46002659703E+02 -0.54353570373E+02  0.11543269015E+03  0.90407007362E+02 0.  0.
          5    1    1    2  502    0 -0.35345309161E+01 -0.42483035287E+02 -0.42852562752E+02  0.60589732880E+02  0.41800000000E+01 0. -1.
         -5    1    1    2    0  502  0.12519165774E+02  0.88485694990E+02 -0.23463905305E+03  0.25111631836E+03  0.41800000000E+01 0.  1.
        -11    1    3    3    0    0 -0.33585893376E+02 -0.45751855268E+02 -0.10954464096E+01  0.56766579051E+02  0.00000000000E+00 0. -1.
         11    1    3    3    0    0  0.24601258518E+02 -0.25080443463E+00 -0.53258123964E+02  0.58666111101E+02  0.00000000000E+00 0.  1.
</event>
<event>
 8    1  0.5951278E-006  0.1057560E+03  0.7561462E-02  0.1268637E+00
         -1   -1    0    0    0  501 -0.00000000000E+00  0.00000000000E+00  0.35604843870E+03  0.35604843870E+03  0.00000000000E+00 0.  1.
          1   -1    0    0  501    0  0.00000000000E+00 -0.00000000000E+00 -0.10929622596E+03  0.10929622596E+03  0.00000000000E+00 0. -1.
         23    2    1    2    0    0  0.63343481485E+02  0.77514429935E+02  0.28399665303E+03  0.32607119339E+03  0.12508973070E+03 0.  0.
         23    2    1    2    0    0 -0.63343481485E+02 -0.77514429935E+02 -0.37244440302E+02  0.13927347127E+03  0.89381586314E+02 0.  0.
          5    1    3    3  502    0  0.56103677984E+02  0.56808359818E+02  0.57511376303E+02  0.98487782150E+02  0.41800000000E+01 0. -1.
         -5    1    3    3    0  502  0.72398035009E+01  0.20706070117E+02  0.22648527673E+03  0.22758341124E+03  0.41800000000E+01 0. -1.
        -11    1    4    4    0    0 -0.18186974170E+01 -0.33579583848E+02 -0.52308571806E+02  0.62185872962E+02  0.00000000000E+00 0. -1.
         11    1    4    4    0    0 -0.61524784068E+02 -0.43934846087E+02  0.15064131503E+02  0.77087598310E+02  0.00000000000E+00 0.  1.
</event>
<event>
 8    1  0.5951278E-006  0.1654099E+03  0.7561462E-02  0.1182721E+00
          2   -1    0    0  501    0  0.00000000000E+00  0.00000000000E+00  0.28579394312E+03  0.28579394312E+03  0.00000000000E+00 0. -1.
         -2   -1    0    0    0  501 -0.00000000000E+00 -0.00000000000E+00 -0.13951926977E+03  0.13951926977E+03  0.00000000000E+00 0.  1.
         23    2    1    2    0    0  0.15537437278E+03  0.15457941382E+02  0.12857266407E+02  0.20048349675E+03  0.12509268365E+03 0.  0.
         23    2    1    2    0    0 -0.15537437278E+03 -0.15457941382E+02  0.13341740693E+03  0.22482971614E+03  0.91477063343E+02 0.  0.
          5    1    3    3  502    0  0.15080701347E+03  0.34240633070E+02 -0.26010865909E+02  0.15687324122E+03  0.41800000000E+01 0. -1.
         -5    1    3    3    0  502  0.45673593098E+01 -0.18782691688E+02  0.38868132316E+02  0.43610255535E+02  0.41800000000E+01 0. -1.
        -11    1    4    4    0    0 -0.20324131076E+02  0.64472166987E+00  0.73408196228E+02  0.76172496634E+02  0.00000000000E+00 0. -1.
         11    1    4    4    0    0 -0.13505024170E+03 -0.16102663052E+02  0.60009210705E+02  0.14865721950E+03  0.00000000000E+00 0.  1.
</event>
<event>
 8    1  0.5951278E-006  0.1623402E+03  0.7561462E-02  0.1186080E+00
          1   -1    0    0  501    0  0.00000000000E+00  0.00000000000E+00  0.11515950072E+03  0.11515950072E+03  0.00000000000E+00 0. -1.
         -1   -1    0    0    0  501 -0.00000000000E+00 -0.00000000000E+00 -0.30973561476E+03  0.30973561476E+03  0.00000000000E+00 0.  1.
         23    2    1    2    0    0  0.12108823824E+03 -0.93105615812E+02 -0.86865191768E+02  0.21569472163E+03  0.12509050430E+03 0.  0.
         23    2    1    2    0    0 -0.12108823824E+03  0.93105615812E+02 -0.10771092227E+03  0.20920039384E+03  0.93979491753E+02 0.  0.
          5    1    3    3  502    0  0.12824973476E+03 -0.83033727698E+02 -0.27977955391E+02  0.15537964084E+03  0.41800000000E+01 0. -1.
         -5    1    3    3    0  502 -0.71614965212E+01 -0.10071888114E+02 -0.58887236376E+02  0.60315080790E+02  0.41800000000E+01 0. -1.
        -11    1    4    4    0    0 -0.55790113956E+02  0.16591899176E+02 -0.89823483827E+02  0.10703310787E+03  0.00000000000E+00 0.  1.
         11    1    4    4    0    0 -0.65298124281E+02  0.76513716636E+02 -0.17887438448E+02  0.10216728597E+03  0.00000000000E+00 0. -1.
</event>
<event>
 8    1  0.5951278E-006  0.1301688E+03  0.7561462E-02  0.1227206E+00
         -2   -1    0    0    0  501 -0.00000000000E+00  0.00000000000E+00  0.32776379309E+02  0.32776379309E+02  0.00000000000E+00 0.  1.
          2   -1    0    0  501    0  0.00000000000E+00 -0.00000000000E+00 -0.68404120057E+03  0.68404120057E+03  0.00000000000E+00 0. -1.
         23    2    1    2    0    0  0.96457081771E+02  0.34792956504E+02 -0.34338587293E+03  0.37957234123E+03  0.12508711386E+03 0.  0.
         23    2    1    2    0    0 -0.96457081771E+02 -0.34792956504E+02 -0.30787894834E+03  0.33724523865E+03  0.91817131950E+02 0.  0.
          5    1    3    3  502    0 -0.11031935221E+02  0.80495879277E+01  0.40810418029E+01  0.14853510115E+02  0.41800000000E+01 0. -1.
         -5    1    3    3    0  502  0.10748901699E+03  0.26743368576E+02 -0.34746691473E+03  0.36471883112E+03  0.41800000000E+01 0. -1.
        -11    1    4    4    0    0 -0.54464533600E+02  0.26771622162E+02 -0.17012386492E+03  0.18062456807E+03  0.00000000000E+00 0.  1.
         11    1    4    4    0    0 -0.41992548172E+02 -0.61564578666E+02 -0.13775508341E+03  0.15662067058E+03  0.00000000000E+00 0. -1.
</event>
<event>
 8    1  0.5951278E-006  0.1445686E+03  0.7561462E-02  0.1207310E+00
         -2   -1    0    0    0  501 -0.00000000000E+00  0.00000000000E+00  0.25657490226E+03  0.25657490226E+03  0.00000000000E+00 0.  1.
          2   -1    0    0  501    0  0.00000000000E+00 -0.00000000000E+00 -0.91704146616E+02  0.91704146616E+02  0.00000000000E+00 0. -1.
         23    2    1    2    0    0 -0.28805746389E+02  0.96514711787E+02  0.12784368219E+03  0.20527017249E+03  0.12508787319E+03 0.  0.
         23    2    1    2    0    0  0.28805746389E+02 -0.96514711787E+02  0.37027073454E+02  0.14300887639E+03  0.94528693746E+02 0.  0.
          5    1    3    3  502    0  0.19578879101E+02  0.10161083275E+03  0.54151097130E+02  0.11686705079E+03  0.41800000000E+01 0.  1.
         -5    1    3    3    0  502 -0.48384625490E+02 -0.50961209675E+01  0.73692585063E+02  0.88403121698E+02  0.41800000000E+01 0.  1.
        -11    1    4    4    0    0 -0.33395177156E+02 -0.23557160653E+02  0.19311250309E+01  0.40913407573E+02  0.00000000000E+00 0. -1.
         11    1    4    4    0    0  0.62200923544E+02 -0.72957551134E+02  0.35095948423E+02  0.10209546882E+03  0.00000000000E+00 0.  1.
</event>
<event>
 8    1  0.5951278E-006  0.1952734E+03  0.7561462E-02  0.1153789E+00
         -4   -1    0    0    0  501 -0.00000000000E+00  0.00000000000E+00  0.16156748323E+03  0.16156748323E+03  0.00000000000E+00 0.  1.
          4   -1    0    0  501    0  0.00000000000E+00 -0.00000000000E+00 -0.26833598223E+03  0.26833598223E+03  0.00000000000E+00 0. -1.
         23    2    1    2    0    0 -0.17499457645E+03  0.17077544460E+01 -0.26834649118E+02  0.21678032775E+03  0.12509034294E+03 0.  0.
         23    2    1    2    0    0  0.17499457645E+03 -0.17077544460E+01 -0.79933849880E+02  0.21312313770E+03  0.91684422093E+02 0.  0.
          5    1    3    3  502    0  0.18687798256E+02  0.87454631074E+01  0.17297383929E+00  0.21052772942E+02  0.41800000000E+01 0. -1.
         -5    1    3    3    0  502 -0.19368237471E+03 -0.70377086614E+01 -0.27007622957E+02  0.19572755481E+03  0.41800000000E+01 0. -1.
        -11    1    4    4    0    0  0.87519884084E+02  0.66162093835E+01  0.88423241267E+01  0.88213893649E+02  0.00000000000E+00 0. -1.
         11    1    4    4    0    0  0.87474692365E+02 -0.83239638295E+01 -0.88776174006E+02  0.12490924405E+03  0.00000000000E+00 0.  1.
</event>
<event>
 8    1  0.5951278E-006  0.1242559E+03  0.7561462E-02  0.1236237E+00
         -1   -1    0    0    0  501 -0.00000000000E+00  0.00000000000E+00  0.59509921474E+03  0.59509921474E+03  0.00000000000E+00 0.  1.
          1   -1    0    0  501    0  0.00000000000E+00 -0.00000000000E+00 -0.44794059911E+02  0.44794059911E+02  0.00000000000E+00 0. -1.
         23    2    1    2    0    0 -0.10825447982E+03 -0.50629076179E+01  0.40211948808E+03  0.43484215588E+03  0.12507178901E+03 0.  0.
         23    2    1    2    0    0  0.10825447982E+03  0.50629076179E+01  0.14818566675E+03  0.20505111877E+03  0.91336214304E+02 0.  0.
          5    1    3    3  502    0 -0.24615494416E+02 -0.54597436355E+01  0.30719820771E+03  0.30825953771E+03  0.41800000000E+01 0.  1.
         -5    1    3    3    0  502 -0.83638985401E+02  0.39683601755E+00  0.94921280364E+02  0.12658261817E+03  0.41800000000E+01 0.  1.
        -11    1    4    4    0    0  0.31302280498E+02  0.43181589286E+02  0.76112158290E+02  0.92938383122E+02  0.00000000000E+00 0.  1.
         11    1    4    4    0    0  0.76952199319E+02 -0.38118681668E+02  0.72073508458E+02  0.11211273564E+03  0.00000000000E+00 0. -1.
</event>
<event>
 8    1  0.5951278E-006  0.1060165E+03  0.7561462E-02  0.1268130E+00
         -4   -1    0    0    0  501 -0.00000000000E+00  0.00000000000E+00  0.60237256082E+02  0.60237256082E+02  0.00000000000E+00 0.  1.
          4   -1    0    0  501    0  0.00000000000E+00 -0.00000000000E+00 -0.23320497860E+03  0.23320497860E+03  0.00000000000E+00 0. -1.
         23    2    1    2    0    0  0.25218063316E+02 -0.24710452820E+02 -0.57740308073E+02  0.14221904123E+03  0.12508299371E+03 0.  0.
         23    2    1    2    0    0 -0.25218063316E+02  0.24710452820E+02 -0.11522741445E+03  0.15122319346E+03  0.91348453757E+02 0.  0.
          5    1    3    3  502    0  0.19291561805E+02 -0.72157664710E+02 -0.11716646224E+02  0.75720836842E+02  0.41800000000E+01 0. -1.
         -5    1    3    3    0  502  0.59265015109E+01  0.47447211890E+02 -0.46023661849E+02  0.66498204384E+02  0.41800000000E+01 0. -1.
        -11    1    4    4    0    0  0.30157774815E+02  0.58028268860E+01 -0.12824522275E+02  0.33281114062E+02  0.00000000000E+00 0.  1.
         11    1    4    4    0    0 -0.55375838131E+02  0.18907625934E+02 -0.10240289217E+03  0.11794207940E+03  0.00000000000E+00 0. -1.
</event>
<event>
 8    1  0.5951278E-006  0.9690466E+02  0.7561462E-02  0.1286943E+00
          1   -1    0    0  501    0  0.00000000000E+00  0.00000000000E+00  0.13206209400E+03  0.13206209400E+03  0.00000000000E+00 0. -1.
         -1   -1    0    0    0  501 -0.00000000000E+00 -0.00000000000E+00 -0.11861665937E+03  0.11861665937E+03  0.00000000000E+00 0.  1.
         23    2    1    2    0    0  0.15659976652E+02  0.50132936225E+02 -0.97231981150E+01  0.13601342732E+03  0.12508623292E+03 0.  0.
         23    2    1    2    0    0 -0.15659976652E+02 -0.50132936225E+02  0.23168632748E+02  0.11466532605E+03  0.99261298052E+02 0.  0.
          5    1    3    3  502    0 -0.30752216071E+02 -0.29143121467E+02 -0.11279856514E+02  0.44042341957E+02  0.41800000000E+01 0. -1.
         -5    1    3    3    0  502  0.46412192723E+02  0.79276057692E+02  0.15566583993E+01  0.91971085358E+02  0.41800000000E+01 0. -1.
        -11    1    4    4    0    0 -0.22498982881E+02 -0.26948481122E+02  0.60643005562E+02  0.70071384952E+02  0.00000000000E+00 0. -1.
         11    1    4    4    0    0  0.68390062286E+01 -0.23184455104E+02 -0.37474372814E+02  0.44593941096E+02  0.00000000000E+00 0.  1.
</event>
<event>
 8    1  0.5951278E-006  0.9259085E+02  0.7561462E-02  0.1296696E+00
          2   -1    0    0  501    0  0.00000000000E+00  0.00000000000E+00  0.10896852925E+04  0.10896852925E+04  0.00000000000E+00 0. -1.
         -2   -1    0    0    0  501 -0.00000000000E+00 -0.00000000000E+00 -0.15611212388E+02  0.15611212388E+02  0.00000000000E+00 0.  1.
         23    2    1    2    0    0 -0.69061822213E+02  0.74220082935E+01  0.52101874127E+03  0.54030745890E+03  0.12508796862E+03 0.  0.
         23    2    1    2    0    0  0.69061822213E+02 -0.74220082935E+01  0.55305533888E+03  0.56498904602E+03  0.92291888977E+02 0.  0.
          5    1    3    3  502    0 -0.49116114275E+02  0.21333526863E+01  0.51640125745E+03  0.51875299996E+03  0.41800000000E+01 0. -1.
         -5    1    3    3    0  502 -0.19945707937E+02  0.52886556072E+01  0.46174838202E+01  0.21554458937E+02  0.41800000000E+01 0. -1.
        -11    1    4    4    0    0  0.45802937821E+02  0.40742523227E+02  0.26366615655E+03  0.27069854899E+03  0.00000000000E+00 0. -1.
         11    1    4    4    0    0  0.23258884392E+02 -0.48164531520E+02  0.28938918232E+03  0.29429049703E+03  0.00000000000E+00 0.  1.
</event>
<event>
 8    1  0.5951278E-006  0.6319383E+02  0.7561462E-02  0.1384897E+00
          1   -1    0    0  501    0  0.00000000000E+00  0.00000000000E+00  0.33055602738E+03  0.33055602738E+03  0.00000000000E+00 0. -1.
         -1   -1    0    0    0  501 -0.00000000000E+00 -0.00000000000E+00 -0.38105925858E+02  0.38105925858E+02  0.00000000000E+00 0.  1.
         23    2    1    2    0    0 -0.14960877730E+02 -0.20666923875E+02  0.16616177523E+03  0.20954291549E+03  0.12509016061E+03 0.  0.
         23    2    1    2    0    0  0.14960877730E+02  0.20666923875E+02  0.12628832630E+03  0.15911903775E+03  0.93376534577E+02 0.  0.
          5    1    3    3  502    0 -0.58858578179E+01 -0.18073644560E+02 -0.17150312654E+02  0.25940423552E+02  0.41800000000E+01 0.  1.
         -5    1    3    3    0  502 -0.90750199120E+01 -0.25932793155E+01  0.18331208788E+03  0.18360249194E+03  0.41800000000E+01 0.  1.
        -11    1    4    4    0    0  0.54637854599E+02  0.13548997420E+02  0.68553839895E+02  0.88704562738E+02  0.00000000000E+00 0.  1.
         11    1    4    4    0    0 -0.39676976869E+02  0.71179264555E+01  0.57734486406E+02  0.70414475011E+02  0.00000000000E+00 0. -1.
</event>
<event>
 8    1  0.5951278E-006  0.5925677E+02  0.7561462E-02  0.1400977E+00
         -3   -1    0    0    0  501 -0.00000000000E+00  0.00000000000E+00  0.20972378969E+03  0.20972378969E+03  0.00000000000E+00 0.  1.
          3   -1    0    0  501    0  0.00000000000E+00 -0.00000000000E+00 -0.91094600624E+02  0.91094600624E+02  0.00000000000E+00 0. -1.
         23    2    1    2    0    0 -0.13983620549E+02  0.15168768711E+02  0.15525523703E+03  0.20044309978E+03  0.12509042503E+03 0.  0.
         23    2    1    2    0    0  0.13983620549E+02 -0.15168768711E+02 -0.36626047974E+02  0.10037529053E+03  0.91148770542E+02 0.  0.
          5    1    3    3  502    0  0.26515247036E+02 -0.47315349725E+01 -0.10041124052E+02  0.29047242913E+02  0.41800000000E+01 0. -1.
         -5    1    3    3    0  502 -0.40498867585E+02  0.19900303684E+02  0.16529636109E+03  0.17139585687E+03  0.41800000000E+01 0. -1.
        -11    1    4    4    0    0 -0.14545676321E+02 -0.26519112054E+01  0.26293308529E+02  0.30165334510E+02  0.00000000000E+00 0.  1.
         11    1    4    4    0    0  0.28529296870E+02 -0.12516857506E+02 -0.62919356503E+02  0.70209956021E+02  0.00000000000E+00 0. -1.
</event>
<event>
 8    1  0.5951278E-006  0.9299562E+02  0.7561462E-02  0.1295755E+00
          1   -1    0    0  501    0  0.00000000000E+00  0.00000000000E+00  0.52283927050E+03  0.52283927050E+03  0.00000000000E+00 0. -1.
         -1   -1    0    0    0  501 -0.00000000000E+00 -0.00000000000E+00 -0.25704913844E+02  0.25704913844E+02  0.00000000000E+00 0.  1.
         23    2    1    2    0    0 -0.12064490682E+02  0.16440940167E+02  0.20405124276E+03  0.24021612569E+03  0.12510404039E+03 0.  0.
         23    2    1    2    0    0  0.12064490682E+02 -0.16440940167E+02  0.29308311390E+03  0.30832805865E+03  0.93555457622E+02 0.  0.
          5    1    3    3  502    0 -0.53929237255E+02 -0.20961937578E+02  0.15517611560E+03  0.16566491696E+03  0.41800000000E+01 0. -1.
         -5    1    3    3    0  502  0.41864746573E+02  0.37402877744E+02  0.48875127158E+02  0.74551208735E+02  0.41800000000E+01 0. -1.
        -11    1    4    4    0    0  0.21066707932E+02 -0.40689739978E+02  0.26936413218E+03  0.27323341089E+03  0.00000000000E+00 0. -1.
         11    1    4    4    0    0 -0.90022172506E+01  0.24248799811E+02  0.23718981721E+02  0.35094647763E+02  0.00000000000E+00 0.  1.
</event>
<event>
 8    1  0.5951278E-006  0.1078608E+03  0.7561462E-02  0.1264583E+00
          2   -1    0    0  501    0  0.00000000000E+00  0.00000000000E+00  0.49443359261E+02  0.49443359261E+02  0.00000000000E+00 0. -1.
         -2   -1    0    0    0  501 -0.00000000000E+00 -0.00000000000E+00 -0.25209986354E+03  0.25209986354E+03  0.00000000000E+00 0.  1.
         23    2    1    2    0    0  0.89254782671E+01  0.18419549233E+02 -0.13707283724E+03  0.18669515516E+03  0.12508866573E+03 0.  0.
         23    2    1    2    0    0 -0.89254782671E+01 -0.18419549233E+02 -0.65583667041E+02  0.11484806764E+03  0.92032153635E+02 0.  0.
          5    1    3    3  502    0 -0.11892182824E+01  0.71561422549E+02 -0.67521477127E+02  0.98483875385E+02  0.41800000000E+01 0.  1.
         -5    1    3    3    0  502  0.10114696549E+02 -0.53141873316E+02 -0.69551360110E+02  0.88211279772E+02  0.41800000000E+01 0.  1.
        -11    1    4    4    0    0 -0.52632102125E+01  0.35419177798E+02 -0.43998074466E+02  0.56727859949E+02  0.00000000000E+00 0.  1.
         11    1    4    4    0    0 -0.36622680545E+01 -0.53838727031E+02 -0.21585592574E+02  0.58120207694E+02  0.00000000000E+00 0. -1.
</event>
<event>
 8    1  0.5951278E-006  0.8040138E+02  0.7561462E-02  0.1327916E+00
          2   -1    0    0  501    0  0.00000000000E+00  0.00000000000E+00  0.83827725510E+02  0.83827725510E+02  0.00000000000E+00 0. -1.
         -2   -1    0    0    0  501 -0.00000000000E+00 -0.00000000000E+00 -0.16998944050E+03  0.16998944050E+03  0.00000000000E+00 0.  1.
         23    2    1    2    0    0 -0.34064795595E+02  0.23656894321E+02 -0.18578937130E+02  0.13309095803E+03  0.12509183529E+03 0.  0.
         23    2    1    2    0    0  0.34064795595E+02 -0.23656894321E+02 -0.67582777860E+02  0.12072620798E+03  0.91034754251E+02 0.  0.
          5    1    3    3  502    0 -0.40408117515E+02 -0.11474355440E+02  0.43968040944E+02  0.60951930391E+02  0.41800000000E+01 0. -1.
         -5    1    3    3    0  502  0.63433219201E+01  0.35131249761E+02 -0.62546978074E+02  0.72139027641E+02  0.41800000000E+01 0. -1.
        -11    1    4    4    0    0  0.45450035205E+02  0.10495621595E+02 -0.29446468949E+01  0.46739006388E+02  0.00000000000E+00 0. -1.
         11    1    4    4    0    0 -0.11385239610E+02 -0.34152515917E+02 -0.64638130965E+02  0.73987201590E+02  0.00000000000E+00 0.  1.
</event>
<event>
 8    1  0.5951278E-006  0.6843851E+02  0.7561462E-02  0.1365485E+00
         -2   -1    0    0    0  501 -0.00000000000E+00  0.00000000000E+00  0.29602043476E+03  0.29602043476E+03  0.00000000000E+00 0.  1.
          2   -1    0    0  501    0  0.00000000000E+00 -0.00000000000E+00 -0.46080268487E+02  0.46080268487E+02  0.00000000000E+00 0. -1.
         23    2    1    2    0    0 -0.14296593648E+02  0.38067804324E+01  0.19542548216E+03  0.23250703250E+03  0.12509802923E+03 0.  0.
         23    2    1    2    0    0  0.14296593648E+02 -0.38067804324E+01  0.54514684119E+02  0.10959367075E+03  0.93915055860E+02 0.  0.
          5    1    3    3  502    0 -0.31895617253E+02 -0.38757477650E+02  0.25607238779E+02  0.56503765818E+02  0.41800000000E+01 0.  1.
         -5    1    3    3    0  502  0.17599023605E+02  0.42564258082E+02  0.16981824338E+03  0.17600326668E+03  0.41800000000E+01 0.  1.
        -11    1    4    4    0    0 -0.12441807569E+02  0.27231160506E+01 -0.23574900043E+02  0.26795332591E+02  0.00000000000E+00 0. -1.
         11    1    4    4    0    0  0.26738401217E+02 -0.65298964829E+01  0.78089584162E+02  0.82798338162E+02  0.00000000000E+00 0.  1.
</event>
<event>
 8    1  0.5951278E-006  0.1277053E+03  0.7561462E-02  0.1230901E+00
          1   -1    0    0  501    0  0.00000000000E+00  0.00000000000E+00  0.38898943210E+03  0.38898943210E+03  0.00000000000E+00 0. -1.
         -1   -1    0    0    0  501 -0.00000000000E+00 -0.00000000000E+00 -0.57982866255E+02  0.57982866255E+02  0.00000000000E+00 0.  1.
         23    2    1    2    0    0  0.44989678118E+02  0.87100514584E+02  0.13857955746E+03  0.21086148937E+03  0.12509077973E+03 0.  0.
         23    2    1    2    0    0 -0.44989678118E+02 -0.87100514584E+02  0.19242700838E+03  0.23611080899E+03  0.95444171053E+02 0.  0.
          5    1    3    3  502    0 -0.20097624503E+02  0.86600386510E+02  0.54171541390E+02  0.10419006551E+03  0.41800000000E+01 0.  1.
         -5    1    3    3    0  502  0.65087302620E+02  0.50012807356E+00  0.84408016072E+02  0.10667142386E+03  0.41800000000E+01 0.  1.
        -11    1    4    4    0    0 -0.25997514616E+02 -0.24329970356E+02  0.15815726195E+03  0.16211581579E+03  0.00000000000E+00 0. -1.
         11    1    4    4    0    0 -0.18992163502E+02 -0.62770544227E+02  0.34269746434E+02  0.73994993194E+02  0.00000000000E+00 0.  1.
</event>
<event>
 8    1  0.5951278E-006  0.1186740E+03  0.7561462E-02  0.1245301E+00
          2   -1    0    0  501    0  0.00000000000E+00  0.00000000000E+00  0.49580465269E+03  0.49580465269E+03  0.00000000000E+00 0. -1.
         -2   -1    0    0    0  501 -0.00000000000E+00 -0.00000000000E+00 -0.44718119419E+02  0.44718119419E+02  0.00000000000E+00 0.  1.
         23    2    1    2    0    0  0.49159906768E+02  0.57475425367E+02  0.12025143839E+03  0.18928898872E+03  0.12509912814E+03 0.  0.
         23    2    1    2    0    0 -0.49159906768E+02 -0.57475425367E+02  0.33083509488E+03  0.35123378339E+03  0.90516239618E+02 0.  0.
          5    1    3    3  502    0  0.95544262058E+01  0.77195165389E+02  0.21207190884E+02  0.80731641658E+02  0.41800000000E+01 0.  1.
         -5    1    3    3    0  502  0.39605480562E+02 -0.19719740022E+02  0.99044247504E+02  0.10855734706E+03  0.41800000000E+01 0.  1.
        -11    1    4    4    0    0 -0.67902399877E+02 -0.16389516145E+02  0.23730604340E+03  0.24737322083E+03  0.00000000000E+00 0. -1.
         11    1    4    4    0    0  0.18742493110E+02 -0.41085909223E+02  0.93529051476E+02  0.10386056256E+03  0.00000000000E+00 0.  1.
</event>
<event>
 8    1  0.5951278E-006  0.1332392E+03  0.7561462E-02  0.1222727E+00
          1   -1    0    0  501    0  0.00000000000E+00  0.00000000000E+00  0.81051217527E+03  0.81051217527E+03  0.00000000000E+00 0. -1.
         -1   -1    0    0    0  501 -0.00000000000E+00 -0.00000000000E+00 -0.26115886085E+02  0.26115886085E+02  0.00000000000E+00 0.  1.
         23    2    1    2    0    0 -0.64005830429E+02  0.57927973557E+02  0.29998342501E+03  0.33628920744E+03  0.12509188347E+03 0.  0.
         23    2    1    2    0    0  0.64005830429E+02 -0.57927973557E+02  0.48441286418E+03  0.50033885392E+03  0.90723477181E+02 0.  0.
          5    1    3    3  502    0 -0.94168309195E+02  0.22760894481E+02  0.14469891156E+03  0.17418661309E+03  0.41800000000E+01 0. -1.
         -5    1    3    3    0  502  0.30162478765E+02  0.35167079076E+02  0.15528451345E+03  0.16210259435E+03  0.41800000000E+01 0. -1.
        -11    1    4    4    0    0 -0.21970147009E+02 -0.16943995064E+02  0.15369584545E+03  0.15618002189E+03  0.00000000000E+00 0. -1.
         11    1    4    4    0    0  0.85975977438E+02 -0.40983978493E+02  0.33071701873E+03  0.34415883203E+03  0.00000000000E+00 0.  1.
</event>
<event>
 8    1  0.5951278E-006  0.6441939E+02  0.7561462E-02  0.1380169E+00
          1   -1    0    0  501    0  0.00000000000E+00  0.00000000000E+00  0.38595267831E+03  0.38595267831E+03  0.00000000000E+00 0. -1.
         -1   -1    0    0    0  501 -0.00000000000E+00 -0.00000000000E+00 -0.37756569493E+02  0.37756569493E+02  0.00000000000E+00 0.  1.
         23    2    1    2    0    0  0.39692271648E+01 -0.40611529109E+02  0.25876126334E+03  0.29029268690E+03  0.12508957431E+03 0.  0.
         23    2    1    2    0    0 -0.39692271648E+01  0.40611529109E+02  0.89434845474E+02  0.13341656090E+03  0.90201641211E+02 0.  0.
          5    1    3    3  502    0  0.10111008112E+02 -0.32847829254E+01  0.25123770879E+03  0.25149727832E+03  0.41800000000E+01 0.  1.
         -5    1    3    3    0  502 -0.61417809474E+01 -0.37326746184E+02  0.75235545521E+01  0.38795408581E+02  0.41800000000E+01 0.  1.
        -11    1    4    4    0    0  0.31869515053E+02  0.23770346904E+02  0.48897760501E+01  0.40057524780E+02  0.00000000000E+00 0.  1.
         11    1    4    4    0    0 -0.35838742218E+02  0.16841182205E+02  0.84545069424E+02  0.93359036122E+02  0.00000000000E+00 0. -1.
</event>
<event>
 8    1  0.5951278E-006  0.9954516E+02  0.7561462E-02  0.1281255E+00
          2   -1    0    0  501    0  0.00000000000E+00  0.00000000000E+00  0.23904426120E+03  0.23904426120E+03  0.00000000000E+00 0. -1.
         -2   -1    0    0    0  501 -0.00000000000E+00 -0.00000000000E+00 -0.93765063620E+02  0.93765063620E+02  0.00000000000E+00 0.  1.
         23    2    1    2    0    0 -0.60685411576E+02  0.34007423565E+02 -0.51964033505E+01  0.14322600529E+03  0.12508981552E+03 0.  0.
         23    2    1    2    0    0  0.60685411576E+02 -0.34007423565E+02  0.15047560093E+03  0.18958331953E+03  0.91976652108E+02 0.  0.
          5    1    3    3  502    0 -0.61692283704E+02  0.11706733623E+02  0.52031505872E+02  0.81656202974E+02  0.41800000000E+01 0.  1.
         -5    1    3    3    0  502  0.10068721287E+01  0.22300689942E+02 -0.57227909222E+02  0.61569802317E+02  0.41800000000E+01 0.  1.
        -11    1    4    4    0    0  0.57852555647E+02 -0.62296446890E+02  0.12638600912E+03  0.15231936446E+03  0.00000000000E+00 0.  1.
         11    1    4    4    0    0  0.28328559281E+01  0.28289023326E+02  0.24089591812E+02  0.37263955065E+02  0.00000000000E+00 0. -1.
</event>
<event>
 8    1  0.5951278E-006  0.1454903E+03  0.7561462E-02  0.1206127E+00
          2   -1    0    0  501    0  0.00000000000E+00  0.00000000000E+00  0.16535942174E+03  0.16535942174E+03  0.00000000000E+00 0. -1.
         -2   -1    0    0    0  501 -0.00000000000E+00 -0.00000000000E+00 -0.13206411267E+03  0.13206411267E+03  0.00000000000E+00 0.  1.
         23    2    1    2    0    0 -0.33576129724E+01 -0.97131126510E+02 -0.40464830918E+01  0.15845543939E+03  0.12508406351E+03 0.  0.
         23    2    1    2    0    0  0.33576129724E+01  0.97131126510E+02  0.37341792163E+02  0.13896809503E+03  0.92043428290E+02 0.  0.
          5    1    3    3  502    0  0.17901837222E+02 -0.12273364170E+03  0.31899888451E+01  0.12414375139E+03  0.41800000000E+01 0.  1.
         -5    1    3    3    0  502 -0.21259450195E+02  0.25602515192E+02 -0.72364719370E+01  0.34311687991E+02  0.41800000000E+01 0.  1.
        -11    1    4    4    0    0 -0.12323403073E+00 -0.18076948418E+02  0.93719002810E+01  0.20362312384E+02  0.00000000000E+00 0. -1.
         11    1    4    4    0    0  0.34808470032E+01  0.11520807493E+03  0.27969891882E+02  0.11860578264E+03  0.00000000000E+00 0.  1.
</event>
<event>
 8    1  0.5951278E-006  0.1603465E+03  0.7561462E-02  0.1188306E+00
          1   -1    0    0  501    0  0.00000000000E+00  0.00000000000E+00  0.73618722247E+02  0.73618722247E+02  0.00000000000E+00 0. -1.
         -1   -1    0    0    0  501 -0.00000000000E+00 -0.00000000000E+00 -0.43555342554E+03  0.43555342554E+03  0.00000000000E+00 0.  1.
         23    2    1    2    0    0 -0.12428793674E+03  0.59050348896E+02 -0.23919739968E+03  0.30298031135E+03  0.12508892089E+03 0.  0.
         23    2    1    2    0    0  0.12428793674E+03 -0.59050348896E+02 -0.12273730361E+03  0.20619183643E+03  0.92283220528E+02 0.  0.
          5    1    3    3  502    0  0.99041213695E+01 -0.35183556259E+01  0.86536131640E+01  0.14241764891E+02  0.41800000000E+01 0.  1.
         -5    1    3    3    0  502 -0.13419205811E+03  0.62568704522E+02 -0.24785101285E+03  0.28873854646E+03  0.41800000000E+01 0.  1.
        -11    1    4    4    0    0  0.91335820650E+02  0.25821821334E+01 -0.92572406984E+02  0.13007132787E+03  0.00000000000E+00 0. -1.
         11    1    4    4    0    0  0.32952116086E+02 -0.61632531030E+02 -0.30164896624E+02  0.76120508564E+02  0.00000000000E+00 0.  1.
</event>
<event>
 8    1  0.5951278E-006  0.9705388E+02  0.7561462E-02  0.1286616E+00
         -2   -1    0    0    0  501 -0.00000000000E+00  0.00000000000E+00  0.46481639192E+02  0.46481639192E+02  0.00000000000E+00 0. -1.
          2   -1    0    0  501    0  0.00000000000E+00 -0.00000000000E+00 -0.32933038887E+03  0.32933038887E+03  0.00000000000E+00 0.  1.
         23    2    1    2    0    0  0.13421986728E+02 -0.21611924830E+02 -0.76589753577E+02  0.14885584211E+03  0.12507936023E+03 0.  0.
         23    2    1    2    0    0 -0.13421986728E+02  0.21611924830E+02 -0.20625899610E+03  0.22695618594E+03  0.91209165356E+02 0.  0.
          5    1    3    3  502    0 -0.12232152969E+02  0.42936926591E+02 -0.63992571228E+02  0.78139150262E+02  0.41800000000E+01 0. -1.
         -5    1    3    3    0  502  0.25654139697E+02 -0.64548851421E+02 -0.12597182349E+02  0.70716691852E+02  0.41800000000E+01 0. -1.
        -11    1    4    4    0    0  0.10209398866E+02 -0.25229385325E+02 -0.20900965477E+02  0.34316236200E+02  0.00000000000E+00 0. -1.
         11    1    4    4    0    0 -0.23631385594E+02  0.46841310155E+02 -0.18535803062E+03  0.19263994974E+03  0.00000000000E+00 0.  1.
</event>
<event>
 8    1  0.5951278E-006  0.1268659E+03  0.7561462E-02  0.1232182E+00
          2   -1    0    0  501    0  0.00000000000E+00  0.00000000000E+00  0.46671110748E+03  0.46671110748E+03  0.00000000000E+00 0. -1.
         -2   -1    0    0    0  501 -0.00000000000E+00 -0.00000000000E+00 -0.39977595090E+02  0.39977595090E+02  0.00000000000E+00 0.  1.
         23    2    1    2    0    0  0.87797927664E+02 -0.18433572864E+02  0.26219179460E+03  0.30404036389E+03  0.12509089900E+03 0.  0.
         23    2    1    2    0    0 -0.87797927664E+02  0.18433572864E+02  0.16454171779E+03  0.20264833868E+03  0.77097986767E+02 0.  0.
          5    1    3    3  502    0  0.91709218856E+02 -0.57978171981E+02  0.15176518568E+03  0.18660705569E+03  0.41800000000E+01 0.  1.
         -5    1    3    3    0  502 -0.39112911922E+01  0.39544599118E+02  0.11042660892E+03  0.11743330820E+03  0.41800000000E+01 0.  1.
        -11    1    4    4    0    0 -0.73004752447E+02  0.36683520555E+02  0.15861288488E+03  0.17841923049E+03  0.00000000000E+00 0. -1.
         11    1    4    4    0    0 -0.14793175217E+02 -0.18249947691E+02  0.59288329163E+01  0.24229108186E+02  0.00000000000E+00 0.  1.
</event>
<event>
 8    1  0.5951278E-006  0.1154036E+03  0.7561462E-02  0.1250878E+00
          2   -1    0    0  501    0  0.00000000000E+00  0.00000000000E+00  0.61137320554E+03  0.61137320554E+03  0.00000000000E+00 0. -1.
         -2   -1    0    0    0  501 -0.00000000000E+00 -0.00000000000E+00 -0.59720118108E+02  0.59720118108E+02  0.00000000000E+00 0.  1.
         23    2    1    2    0    0  0.33835002208E+02 -0.81939606925E+02  0.65632365656E+02  0.16677024594E+03  0.12508317613E+03 0.  0.
         23    2    1    2    0    0 -0.33835002208E+02  0.81939606925E+02  0.48602072178E+03  0.50432307771E+03  0.10132481511E+03 0.  0.
          5    1    3    3  502    0  0.41564473023E+02 -0.81496507041E+02  0.97467836861E+02  0.13374130888E+03  0.41800000000E+01 0.  1.
         -5    1    3    3    0  502 -0.77294708145E+01 -0.44309988401E+00 -0.31835471205E+02  0.33028937061E+02  0.41800000000E+01 0.  1.
        -11    1    4    4    0    0  0.71807164959E+01  0.88587896583E+02  0.38428814279E+03  0.39443219290E+03  0.00000000000E+00 0.  1.
         11    1    4    4    0    0 -0.41015718704E+02 -0.66482896578E+01  0.10173257899E+03  0.10989088481E+03  0.00000000000E+00 0. -1.
</event>
<event>
 8    1  0.5951278E-006  0.1143114E+03  0.7561462E-02  0.1252788E+00
          3   -1    0    0  501    0  0.00000000000E+00  0.00000000000E+00  0.23261117024E+02  0.23261117024E+02  0.00000000000E+00 0. -1.
         -3   -1    0    0    0  501 -0.00000000000E+00 -0.00000000000E+00 -0.10421922687E+04  0.10421922687E+04  0.00000000000E+00 0.  1.
         23    2    1    2    0    0 -0.61688791818E+02  0.60340561667E+02 -0.78594423100E+03  0.80050153104E+03  0.12509147263E+03 0.  0.
         23    2    1    2    0    0  0.61688791818E+02 -0.60340561667E+02 -0.23298692066E+03  0.26495185468E+03  0.92033090134E+02 0.  0.
          5    1    3    3  502    0 -0.14011548046E+02  0.58761333311E+02 -0.69578045645E+03  0.69841043359E+03  0.41800000000E+01 0.  1.
         -5    1    3    3    0  502 -0.47677243772E+02  0.15792283558E+01 -0.90163774557E+02  0.10209109745E+03  0.41800000000E+01 0.  1.
        -11    1    4    4    0    0 -0.89563656171E+01 -0.47554369043E+02 -0.13550324808E+03  0.14388455351E+03  0.00000000000E+00 0.  1.
         11    1    4    4    0    0  0.70645157435E+02 -0.12786192624E+02 -0.97483672585E+02  0.12106730117E+03  0.00000000000E+00 0. -1.
</event>
<event>
 8    1  0.5951278E-006  0.9100798E+02  0.7561462E-02  0.1300429E+00
         -1   -1    0    0    0  501 -0.00000000000E+00  0.00000000000E+00  0.17771151797E+02  0.17771151797E+02  0.00000000000E+00 0.  1.
          1   -1    0    0  501    0  0.00000000000E+00 -0.00000000000E+00 -0.66238669639E+03  0.66238669639E+03  0.00000000000E+00 0. -1.
         23    2    1    2    0    0 -0.32658274185E+01 -0.49025401288E+01 -0.40054864713E+03  0.41967019867E+03  0.12509658831E+03 0.  0.
         23    2    1    2    0    0  0.32658274185E+01  0.49025401288E+01 -0.24406689746E+03  0.26048764952E+03  0.90832068045E+02 0.  0.
          5    1    3    3  502    0  0.18422948459E+02 -0.54290401574E+02 -0.10986356550E+03  0.12399325852E+03  0.41800000000E+01 0.  1.
         -5    1    3    3    0  502 -0.21688775878E+02  0.49387861445E+02 -0.29068508163E+03  0.29567694015E+03  0.41800000000E+01 0.  1.
        -11    1    4    4    0    0  0.27315399604E+02 -0.21466865872E+02 -0.38549051124E+02  0.51893995110E+02  0.00000000000E+00 0.  1.
         11    1    4    4    0    0 -0.24049572185E+02  0.26369406001E+02 -0.20551784634E+03  0.20859365441E+03  0.00000000000E+00 0. -1.
</event>
<event>
 8    1  0.5951278E-006  0.6447521E+02  0.7561462E-02  0.1379956E+00
         -1   -1    0    0    0  501 -0.00000000000E+00  0.00000000000E+00  0.48867016264E+02  0.48867016264E+02  0.00000000000E+00 0.  1.
          1   -1    0    0  501    0  0.00000000000E+00 -0.00000000000E+00 -0.31383058782E+03  0.31383058782E+03  0.00000000000E+00 0. -1.
         23    2    1    2    0    0  0.26238666884E+02 -0.50396308802E+01 -0.72556058690E+02  0.14705784690E+03  0.12509101951E+03 0.  0.
         23    2    1    2    0    0 -0.26238666884E+02  0.50396308802E+01 -0.19240751286E+03  0.21563975719E+03  0.93626857011E+02 0.  0.
          5    1    3    3  502    0  0.21962742565E+02 -0.14652639897E+02  0.32110619513E+02  0.41780691742E+02  0.41800000000E+01 0. -1.
         -5    1    3    3    0  502  0.42759243199E+01  0.96130090168E+01 -0.10466667820E+03  0.10527715515E+03  0.41800000000E+01 0. -1.
        -11    1    4    4    0    0  0.13820432953E+02 -0.32924779968E+02 -0.40376493887E+02  0.53900897596E+02  0.00000000000E+00 0.  1.
         11    1    4    4    0    0 -0.40059099837E+02  0.37964410848E+02 -0.15203101898E+03  0.16173885959E+03  0.00000000000E+00 0. -1.
</event>
<event>
 8    1  0.5951278E-006  0.9468297E+02  0.7561462E-02  0.1291892E+00
         -2   -1    0    0    0  501 -0.00000000000E+00  0.00000000000E+00  0.66274926148E+02  0.66274926148E+02  0.00000000000E+00 0.  1.
          2   -1    0    0  501    0  0.00000000000E+00 -0.00000000000E+00 -0.21265866339E+03  0.21265866339E+03  0.00000000000E+00 0. -1.
         23    2    1    2    0    0 -0.22131931251E+02  0.29809859258E+02 -0.42804990029E+02  0.13732677681E+03  0.12509167186E+03 0.  0.
         23    2    1    2    0    0  0.22131931251E+02 -0.29809859258E+02 -0.10357874721E+03  0.14160681272E+03  0.89137435713E+02 0.  0.
          5    1    3    3  502    0 -0.54703062094E+02  0.31546748826E+02 -0.70208205654E+02  0.94521356873E+02  0.41800000000E+01 0. -1.
         -5    1    3    3    0  502  0.32571130843E+02 -0.17368895679E+01  0.27403215624E+02  0.42805419941E+02  0.41800000000E+01 0. -1.
        -11    1    4    4    0    0 -0.36319151187E+01 -0.56198620676E+02 -0.43702066074E+02  0.71283562989E+02  0.00000000000E+00 0.  1.
         11    1    4    4    0    0  0.25763846370E+02  0.26388761418E+02 -0.59876681138E+02  0.70323249733E+02  0.00000000000E+00 0. -1.
</event>
<event>
 8    1  0.5951278E-006  0.1268618E+03  0.7561462E-02  0.1232188E+00
         -1   -1    0    0    0  501 -0.00000000000E+00  0.00000000000E+00  0.21368308820E+02  0.21368308820E+02  0.00000000000E+00 0.  1.
          1   -1    0    0  501    0  0.00000000000E+00 -0.00000000000E+00 -0.11114485571E+04  0.11114485571E+04  0.00000000000E+00 0. -1.
         23    2    1    2    0    0  0.10646434745E+03 -0.14167645668E+02 -0.72905551731E+03  0.74746109222E+03  0.12506301455E+03 0.  0.
         23    2    1    2    0    0 -0.10646434745E+03  0.14167645668E+02 -0.36102473096E+03  0.38535577368E+03  0.81393098520E+02 0.  0.
          5    1    3    3  502    0  0.13275492198E+02 -0.22218480231E+02 -0.49034044011E+03  0.49104085284E+03  0.41800000000E+01 0. -1.
         -5    1    3    3    0  502  0.93188855250E+02  0.80508345637E+01 -0.23871507720E+03  0.25642023938E+03  0.41800000000E+01 0. -1.
        -11    1    4    4    0    0 -0.83882116464E+02  0.45365274461E+02 -0.27613368305E+03  0.29213700297E+03  0.00000000000E+00 0.  1.
         11    1    4    4    0    0 -0.22582230984E+02 -0.31197628793E+02 -0.84891047910E+02  0.93218770716E+02  0.00000000000E+00 0. -1.
</event>
<event>
 8    1  0.5951278E-006  0.1207280E+03  0.7561462E-02  0.1241901E+00
         -2   -1    0    0    0  501 -0.00000000000E+00  0.00000000000E+00  0.56601201220E+02  0.56601201220E+02  0.00000000000E+00 0.  1.
          2   -1    0    0  501    0  0.00000000000E+00 -0.00000000000E+00 -0.37164857686E+03  0.37164857686E+03  0.00000000000E+00 0. -1.
         23    2    1    2    0    0  0.63198139593E+01  0.82123173409E+02 -0.96980223878E+02  0.17842540363E+03  0.12508519168E+03 0.  0.
         23    2    1    2    0    0 -0.63198139593E+01 -0.82123173409E+02 -0.21806715177E+03  0.24982437445E+03  0.89859778165E+02 0.  0.
          5    1    3    3  502    0 -0.15253378829E+02 -0.22450507960E+02 -0.58896353626E+02  0.64984180720E+02  0.41800000000E+01 0. -1.
         -5    1    3    3    0  502  0.21573192788E+02  0.10457368137E+03 -0.38083870251E+02  0.11344122291E+03  0.41800000000E+01 0. -1.
        -11    1    4    4    0    0  0.77089203660E+01 -0.90479657921E+02 -0.12041820450E+03  0.15081956082E+03  0.00000000000E+00 0.  1.
         11    1    4    4    0    0 -0.14028734325E+02  0.83564845119E+01 -0.97648947270E+02  0.99004813636E+02  0.00000000000E+00 0. -1.
</event>
<event>
 8    1  0.5951278E-006  0.1654260E+03  0.7561462E-02  0.1182704E+00
         -2   -1    0    0    0  501 -0.00000000000E+00  0.00000000000E+00  0.97935834590E+03  0.97935834590E+03  0.00000000000E+00 0.  1.
          2   -1    0    0  501    0  0.00000000000E+00 -0.00000000000E+00 -0.31540425950E+02  0.31540425950E+02  0.00000000000E+00 0. -1.
         23    2    1    2    0    0  0.69041016526E+02 -0.11946766976E+03  0.53670285845E+03  0.56809898601E+03  0.12508922236E+03 0.  0.
         23    2    1    2    0    0 -0.69041016526E+02  0.11946766976E+03  0.41111506150E+03  0.44279978584E+03  0.89536978250E+02 0.  0.
          5    1    3    3  502    0  0.34952926970E+02  0.76877336094E+01  0.38294281671E+02  0.52580726131E+02  0.41800000000E+01 0. -1.
         -5    1    3    3    0  502  0.34088089557E+02 -0.12715540337E+03  0.49840857678E+03  0.51551825988E+03  0.41800000000E+01 0. -1.
        -11    1    4    4    0    0  0.11479390754E+02  0.64741028802E+02  0.13831861468E+03  0.15315095948E+03  0.00000000000E+00 0.  1.
         11    1    4    4    0    0 -0.80520407281E+02  0.54726640955E+02  0.27279644682E+03  0.28964882637E+03  0.00000000000E+00 0. -1.
</event>
<event>
 8    1  0.5951278E-006  0.5460977E+02  0.7561462E-02  0.1421953E+00
         -1   -1    0    0    0  501 -0.00000000000E+00  0.00000000000E+00  0.30372847382E+02  0.30372847382E+02  0.00000000000E+00 0.  1.
          1   -1    0    0  501    0  0.00000000000E+00 -0.00000000000E+00 -0.40085196960E+03  0.40085196960E+03  0.00000000000E+00 0. -1.
         23    2    1    2    0    0 -0.30723068283E+01 -0.10237991879E+02 -0.17108877907E+03  0.21232948147E+03  0.12529238935E+03 0.  0.
         23    2    1    2    0    0  0.30723068283E+01  0.10237991879E+02 -0.19939034315E+03  0.21889533551E+03  0.89690598297E+02 0.  0.
          5    1    3    3  502    0  0.72637214168E+01 -0.22352312057E+02  0.13219281300E+02  0.27287530141E+02  0.41800000000E+01 0. -1.
         -5    1    3    3    0  502 -0.10336028245E+02  0.12114320178E+02 -0.18430806037E+03  0.18504195133E+03  0.41800000000E+01 0. -1.
        -11    1    4    4    0    0 -0.30236433782E+02  0.17298424076E+02 -0.17115019789E+03  0.17465929017E+03  0.00000000000E+00 0.  1.
         11    1    4    4    0    0  0.33308740611E+02 -0.70604321962E+01 -0.28240145253E+02  0.44236045345E+02  0.00000000000E+00 0. -1.
</event>
<event>
 8    1  0.5951278E-006  0.1036471E+03  0.7561462E-02  0.1272808E+00
          2   -1    0    0  501    0  0.00000000000E+00  0.00000000000E+00  0.80882213194E+03  0.80882213194E+03  0.00000000000E+00 0.  1.
         -2   -1    0    0    0  501 -0.00000000000E+00 -0.00000000000E+00 -0.21332198746E+02  0.21332198746E+02  0.00000000000E+00 0. -1.
         23    2    1    2    0    0  0.41662074959E+02 -0.41039414401E+02  0.29102835426E+03  0.32212660152E+03  0.12509229554E+03 0.  0.
         23    2    1    2    0    0 -0.41662074959E+02  0.41039414401E+02  0.49646157893E+03  0.50802772916E+03  0.90543427225E+02 0.  0.
          5    1    3    3  502    0  0.63202818927E+02 -0.13773383193E+02  0.59566798174E+02  0.88033960774E+02  0.41800000000E+01 0.  1.
         -5    1    3    3    0  502 -0.21540743967E+02 -0.27266031208E+02  0.23146155608E+03  0.23409264075E+03  0.41800000000E+01 0.  1.
        -11    1    4    4    0    0 -0.30860972128E+01 -0.28117334287E+02  0.11429856549E+03  0.11774663713E+03  0.00000000000E+00 0. -1.
         11    1    4    4    0    0 -0.38575977746E+02  0.69156748687E+02  0.38216301345E+03  0.39028109203E+03  0.00000000000E+00 0.  1.
</event>
<event>
 8    1  0.5951278E-006  0.1021857E+03  0.7561462E-02  0.1275766E+00
          2   -1    0    0  501    0  0.00000000000E+00  0.00000000000E+00  0.16652933079E+03  0.16652933079E+03  0.00000000000E+00 0. -1.
         -2   -1    0    0    0  501 -0.00000000000E+00 -0.00000000000E+00 -0.13039479553E+03  0.13039479553E+03  0.00000000000E+00 0.  1.
         23    2    1    2    0    0  0.77228276887E+02  0.43407581841E+02 -0.21432509851E+02  0.15477425079E+03  0.12508913348E+03 0.  0.
         23    2    1    2    0    0 -0.77228276887E+02 -0.43407581841E+02  0.57567045116E+02  0.14214987553E+03  0.95100985895E+02 0.  0.
          5    1    3    3  502    0  0.62775258172E+02  0.61112208426E+02  0.34467093129E+02  0.94238463305E+02  0.41800000000E+01 0. -1.
         -5    1    3    3    0  502  0.14453018715E+02 -0.17704626585E+02 -0.55899602981E+02  0.60535787481E+02  0.41800000000E+01 0. -1.
        -11    1    4    4    0    0 -0.15507232904E+02 -0.24283116419E+02  0.70581913496E+02  0.76236149746E+02  0.00000000000E+00 0. -1.
         11    1    4    4    0    0 -0.61721043983E+02 -0.19124465422E+02 -0.13014868380E+02  0.65913725785E+02  0.00000000000E+00 0.  1.
</event>
<event>
 8    1  0.5951278E-006  0.1148510E+03  0.7561462E-02  0.1251841E+00
          4   -1    0    0  501    0  0.00000000000E+00  0.00000000000E+00  0.44135005241E+02  0.44135005241E+02  0.00000000000E+00 0. -1.
         -4   -1    0    0    0  501 -0.00000000000E+00 -0.00000000000E+00 -0.30416251669E+03  0.30416251669E+03  0.00000000000E+00 0.  1.
         23    2    1    2    0    0 -0.64224883273E+01 -0.39663660770E+02 -0.16292298310E+03  0.20929631663E+03  0.12508635174E+03 0.  0.
         23    2    1    2    0    0  0.64224883273E+01  0.39663660770E+02 -0.97104528352E+02  0.13900120530E+03  0.90981268985E+02 0.  0.
          5    1    3    3  502    0 -0.39435078679E+02 -0.73182956975E+02 -0.91787819491E+02  0.12390862290E+03  0.41800000000E+01 0. -1.
         -5    1    3    3    0  502  0.33012590351E+02  0.33519296204E+02 -0.71135163609E+02  0.85387693736E+02  0.41800000000E+01 0. -1.
        -11    1    4    4    0    0  0.24085658963E+02  0.64446545997E+02 -0.62925683241E+02  0.93236891143E+02  0.00000000000E+00 0.  1.
         11    1    4    4    0    0 -0.17663170636E+02 -0.24782885227E+02 -0.34178845111E+02  0.45764314156E+02  0.00000000000E+00 0. -1.
</event>
<event>
 8    1  0.5951278E-006  0.1269342E+03  0.7561462E-02  0.1232077E+00
         -2   -1    0    0    0  501 -0.00000000000E+00  0.00000000000E+00  0.20553534530E+03  0.20553534530E+03  0.00000000000E+00 0.  1.
          2   -1    0    0  501    0  0.00000000000E+00 -0.00000000000E+00 -0.97905324050E+02  0.97905324050E+02  0.00000000000E+00 0. -1.
         23    2    1    2    0    0  0.79872755191E+02  0.26041480273E+02  0.97320177650E+02  0.17937783595E+03  0.12508946932E+03 0.  0.
         23    2    1    2    0    0 -0.79872755191E+02 -0.26041480273E+02  0.10309843603E+02  0.12406283341E+03  0.90705446590E+02 0.  0.
          5    1    3    3  502    0  0.98165240347E+01  0.59759175513E+02  0.78575310857E+02  0.99292875265E+02  0.41800000000E+01 0.  1.
         -5    1    3    3    0  502  0.70056231156E+02 -0.33717695240E+02  0.18744866794E+02  0.80084960681E+02  0.41800000000E+01 0.  1.
        -11    1    4    4    0    0 -0.44356930322E+02  0.26660024040E+02  0.26977661701E+02  0.58361703027E+02  0.00000000000E+00 0.  1.
         11    1    4    4    0    0 -0.35515824869E+02 -0.52701504313E+02 -0.16667818099E+02  0.65701130379E+02  0.00000000000E+00 0. -1.
</event>
<event>
 8    1  0.5951278E-006  0.1444302E+03  0.7561462E-02  0.1207489E+00
          2   -1    0    0  501    0  0.00000000000E+00  0.00000000000E+00  0.18065037187E+03  0.18065037187E+03  0.00000000000E+00 0. -1.
         -2   -1    0    0    0  501 -0.00000000000E+00 -0.00000000000E+00 -0.19740564519E+03  0.19740564519E+03  0.00000000000E+00 0.  1.
         23    2    1    2    0    0 -0.12509935714E+02 -0.13183109437E+03 -0.89926197736E+02  0.20314593921E+03  0.12508243539E+03 0.  0.
         23    2    1    2    0    0  0.12509935714E+02  0.13183109437E+03  0.73170924414E+02  0.17491007786E+03  0.87770241096E+02 0.  0.
          5    1    3    3  502    0  0.95866471376E+00 -0.78826783369E+02  0.18993248061E+02  0.81196038612E+02  0.41800000000E+01 0.  1.
         -5    1    3    3    0  502 -0.13468600428E+02 -0.53004311001E+02 -0.10891944580E+03  0.12194990059E+03  0.41800000000E+01 0.  1.
        -11    1    4    4    0    0  0.11164829293E+00  0.14014239883E+03  0.53027929652E+02  0.14983946656E+03  0.00000000000E+00 0.  1.
         11    1    4    4    0    0  0.12398287421E+02 -0.83113044621E+01  0.20142994762E+02  0.25070611297E+02  0.00000000000E+00 0. -1.
</event>
<event>
 8    1  0.5951278E-006  0.8794323E+02  0.7561462E-02  0.1307910E+00
          1   -1    0    0  501    0  0.00000000000E+00  0.00000000000E+00  0.69652164817E+02  0.69652164817E+02  0.00000000000E+00 0. -1.
         -1   -1    0    0    0  501 -0.00000000000E+00 -0.00000000000E+00 -0.17518536793E+03  0.17518536793E+03  0.00000000000E+00 0.  1.
         23    2    1    2    0    0  0.57364352678E+01 -0.16814108702E+02 -0.75568108188E+02  0.14722336505E+03  0.12509420171E+03 0.  0.
         23    2    1    2    0    0 -0.57364352678E+01  0.16814108702E+02 -0.29965094923E+02  0.97614167694E+02  0.91186610200E+02 0.  0.
          5    1    3    3  502    0  0.51761766054E+02 -0.10585054409E+02 -0.84498177392E+02  0.99743361606E+02  0.41800000000E+01 0.  1.
         -5    1    3    3    0  502 -0.46025330786E+02 -0.62290542921E+01  0.89300692040E+01  0.47480003447E+02  0.41800000000E+01 0.  1.
        -11    1    4    4    0    0  0.36475737445E+01 -0.29132831985E+02 -0.40037687186E+02  0.49649200285E+02  0.00000000000E+00 0.  1.
         11    1    4    4    0    0 -0.93840090123E+01  0.45946940687E+02  0.10072592263E+02  0.47964967409E+02  0.00000000000E+00 0. -1.
</event>
<event>
 8    1  0.5951278E-006  0.1946243E+03  0.7561462E-02  0.1154355E+00
          2   -1    0    0  501    0  0.00000000000E+00  0.00000000000E+00  0.55747846402E+03  0.55747846402E+03  0.00000000000E+00 0. -1.
         -2   -1    0    0    0  501 -0.00000000000E+00 -0.00000000000E+00 -0.78944713599E+02  0.78944713599E+02  0.00000000000E+00 0.  1.
         23    2    1    2    0    0 -0.16855925560E+03  0.52596475288E+02  0.25973134253E+03  0.33806317130E+03  0.12509086951E+03 0.  0.
         23    2    1    2    0    0  0.16855925560E+03 -0.52596475288E+02  0.21880240789E+03  0.29836000632E+03  0.99827790770E+02 0.  0.
          5    1    3    3  502    0 -0.26588905228E+02  0.59460081284E+02  0.40689343884E+02  0.76912718410E+02  0.41800000000E+01 0. -1.
         -5    1    3    3    0  502 -0.14197035038E+03 -0.68636059962E+01  0.21904199865E+03  0.26115045289E+03  0.41800000000E+01 0. -1.
        -11    1    4    4    0    0  0.18210255328E+02 -0.21635429848E+02 -0.31956132859E+01  0.28459043697E+02  0.00000000000E+00 0.  1.
         11    1    4    4    0    0  0.15034900028E+03 -0.30961045440E+02  0.22199802118E+03  0.26990096263E+03  0.00000000000E+00 0. -1.
</event>
<event>
 8    1  0.5951278E-006  0.1530084E+03  0.7561462E-02  0.1196824E+00
         -2   -1    0    0    0  501 -0.00000000000E+00  0.00000000000E+00  0.49602286526E+02  0.49602286526E+02  0.00000000000E+00 0. -1.
          2   -1    0    0  501    0  0.00000000000E+00 -0.00000000000E+00 -0.68372550282E+03  0.68372550282E+03  0.00000000000E+00 0.  1.
         23    2    1    2    0    0  0.11516829511E+02 -0.13122998511E+03 -0.19839682454E+03  0.26900721714E+03  0.12509850731E+03 0.  0.
         23    2    1    2    0    0 -0.11516829511E+02  0.13122998511E+03 -0.43572639176E+03  0.46432057221E+03  0.91554131265E+02 0.  0.
          5    1    3    3  502    0  0.12225697036E+02 -0.13755120326E+03 -0.21221925094E+03  0.25322773161E+03  0.41800000000E+01 0. -1.
         -5    1    3    3    0  502 -0.70886752428E+00  0.63212181544E+01  0.13822426397E+02  0.15779485531E+02  0.41800000000E+01 0. -1.
        -11    1    4    4    0    0 -0.51562320831E+02  0.66757533774E+02 -0.21847658309E+03  0.23419491584E+03  0.00000000000E+00 0. -1.
         11    1    4    4    0    0  0.40045491320E+02  0.64472451334E+02 -0.21724980866E+03  0.23012565637E+03  0.00000000000E+00 0.  1.
</event>
<event>
 8    1  0.5951278E-006  0.1058611E+03  0.7561462E-02  0.1268432E+00
          1   -1    0    0  501    0  0.00000000000E+00  0.00000000000E+00  0.69443997586E+02  0.69443997586E+02  0.00000000000E+00 0. -1.
         -1   -1    0    0    0  501 -0.00000000000E+00 -0.00000000000E+00 -0.17218180543E+03  0.17218180543E+03  0.00000000000E+00 0.  1.
         23    2    1    2    0    0 -0.87350319067E+01 -0.70146461789E+01 -0.73612549356E+02  0.14557662370E+03  0.12509292507E+03 0.  0.
         23    2    1    2    0    0  0.87350319067E+01  0.70146461789E+01 -0.29125258484E+02  0.96049179311E+02  0.90838637821E+02 0.  0.
          5    1    3    3  502    0 -0.40192984329E+02 -0.54369306393E+02 -0.31523827731E+02  0.74717612259E+02  0.41800000000E+01 0. -1.
         -5    1    3    3    0  502  0.31457952422E+02  0.47354660214E+02 -0.42088721625E+02  0.70859011442E+02  0.41800000000E+01 0. -1.
        -11    1    4    4    0    0 -0.35013814302E+02  0.21263514598E+02 -0.28732728488E+02  0.50036725827E+02  0.00000000000E+00 0. -1.
         11    1    4    4    0    0  0.43748846209E+02 -0.14248868420E+02 -0.39252999612E+00  0.46012453485E+02  0.00000000000E+00 0.  1.
</event>
<event>
 8    1  0.5951278E-006  0.1717419E+03  0.7561462E-02  0.1176043E+00
         -1   -1    0    0    0  501 -0.00000000000E+00  0.00000000000E+00  0.42428722276E+02  0.42428722276E+02  0.00000000000E+00 0.  1.
          1   -1    0    0  501    0  0.00000000000E+00 -0.00000000000E+00 -0.77129659710E+03  0.77129659710E+03  0.00000000000E+00 0. -1.
         23    2    1    2    0    0  0.13576582036E+03  0.43884511203E+02 -0.34909569597E+03  0.39733273414E+03  0.12508912172E+03 0.  0.
         23    2    1    2    0    0 -0.13576582036E+03 -0.43884511203E+02 -0.37977217886E+03  0.41639258524E+03  0.93795889600E+02 0.  0.
          5    1    3    3  502    0  0.10984739150E+03  0.85256865444E+02 -0.27965109492E+03  0.31234178365E+03  0.41800000000E+01 0. -1.
         -5    1    3    3    0  502  0.25918428863E+02 -0.41372354241E+02 -0.69444601041E+02  0.84990950483E+02  0.41800000000E+01 0. -1.
        -11    1    4    4    0    0 -0.10684331392E+02 -0.27147743998E+02 -0.20651058827E+02  0.35743827049E+02  0.00000000000E+00 0.  1.
         11    1    4    4    0    0 -0.12508148897E+03 -0.16736767206E+02 -0.35912112004E+03  0.38064875819E+03  0.00000000000E+00 0. -1.
</event>
<event>
 8    1  0.5951278E-006  0.1458343E+03  0.7561462E-02  0.1205687E+00
         -2   -1    0    0    0  501 -0.00000000000E+00  0.00000000000E+00  0.17550997018E+03  0.17550997018E+03  0.00000000000E+00 0.  1.
          2   -1    0    0  501    0  0.00000000000E+00 -0.00000000000E+00 -0.15940281624E+03  0.15940281624E+03  0.00000000000E+00 0. -1.
         23    2    1    2    0    0  0.71869528208E+02 -0.88614029336E+02  0.66129120115E+02  0.18176425927E+03  0.12509000816E+03 0.  0.
         23    2    1    2    0    0 -0.71869528208E+02  0.88614029336E+02 -0.50021966177E+02  0.15314852715E+03  0.89076366054E+02 0.  0.
          5    1    3    3  502    0 -0.23919208703E+02 -0.50471715464E+02  0.54111934344E+02  0.77878729094E+02  0.41800000000E+01 0.  1.
         -5    1    3    3    0  502  0.95788736911E+02 -0.38142313872E+02  0.12017185772E+02  0.10388553018E+03  0.41800000000E+01 0.  1.
        -11    1    4    4    0    0 -0.20699411678E+02  0.77356026666E+02  0.90437329546E+00  0.80082697235E+02  0.00000000000E+00 0.  1.
         11    1    4    4    0    0 -0.51170116530E+02  0.11258002670E+02 -0.50926339472E+02  0.73065829920E+02  0.00000000000E+00 0. -1.
</event>
<event>
 8    1  0.5951278E-006  0.1698082E+03  0.7561462E-02  0.1178048E+00
         -2   -1    0    0    0  501 -0.00000000000E+00  0.00000000000E+00  0.22778804131E+03  0.22778804131E+03  0.00000000000E+00 0.  1.
          2   -1    0    0  501    0  0.00000000000E+00 -0.00000000000E+00 -0.23407108668E+03  0.23407108668E+03  0.00000000000E+00 0. -1.
         23    2    1    2    0    0  0.76162505118E+02 -0.10757062432E+03  0.14971917754E+03  0.23547881731E+03  0.12514901070E+03 0.  0.
         23    2    1    2    0    0 -0.76162505118E+02  0.10757062432E+03 -0.15600222291E+03  0.22638031068E+03  0.97668751975E+02 0.  0.
          5    1    3    3  502    0 -0.30405613697E+02 -0.12099410270E+02  0.54012224081E+02  0.63290519222E+02  0.41800000000E+01 0. -1.
         -5    1    3    3    0  502  0.10656811881E+03 -0.95471214046E+02  0.95706953455E+02  0.17218829809E+03  0.41800000000E+01 0. -1.
        -11    1    4    4    0    0 -0.42680524442E+02 -0.77717938399E+01 -0.33381526374E+02  0.54738964634E+02  0.00000000000E+00 0. -1.
         11    1    4    4    0    0 -0.33481980676E+02  0.11534241816E+03 -0.12262069653E+03  0.17164134605E+03  0.00000000000E+00 0.  1.
</event>
<event>
 8    1  0.5951278E-006  0.9943722E+02  0.7561462E-02  0.1281484E+00
         -2   -1    0    0    0  501 -0.00000000000E+00  0.00000000000E+00  0.41280203730E+02  0.41280203730E+02  0.00000000000E+00 0. -1.
          2   -1    0    0  501    0  0.00000000000E+00 -0.00000000000E+00 -0.36903422285E+03  0.36903422285E+03  0.00000000000E+00 0.  1.
         23    2    1    2    0    0  0.52305110913E+01 -0.31676793306E+02 -0.10115041597E+03  0.16404063737E+03  0.12508855494E+03 0.  0.
         23    2    1    2    0    0 -0.52305110913E+01  0.31676793306E+02 -0.22660360316E+03  0.24627378921E+03  0.90943987209E+02 0.  0.
          5    1    3    3  502    0  0.13583166706E+02 -0.73785275906E+02 -0.30147409213E+02  0.80963621711E+02  0.41800000000E+01 0. -1.
         -5    1    3    3    0  502 -0.83526556152E+01  0.42108482600E+02 -0.71003006754E+02  0.83077015659E+02  0.41800000000E+01 0. -1.
        -11    1    4    4    0    0  0.33158254943E+02  0.42680651137E+01 -0.32883119169E+02  0.46893344698E+02  0.00000000000E+00 0. -1.
         11    1    4    4    0    0 -0.38388766034E+02  0.27408728192E+02 -0.19372048399E+03  0.19938044452E+03  0.00000000000E+00 0.  1.
</event>
<event>
 8    1  0.5951278E-006  0.1044752E+03  0.7561462E-02  0.1271157E+00
         -2   -1    0    0    0  501 -0.00000000000E+00  0.00000000000E+00  0.33229327677E+03  0.33229327677E+03  0.00000000000E+00 0.  1.
          2   -1    0    0  501    0  0.00000000000E+00 -0.00000000000E+00 -0.42753112930E+02  0.42753112930E+02  0.00000000000E+00 0. -1.
         23    2    1    2    0    0  0.40493874576E+00  0.13807580512E+02  0.20478804982E+03  0.24036640562E+03  0.12508817029E+03 0.  0.
         23    2    1    2    0    0 -0.40493874576E+00 -0.13807580512E+02  0.84752114016E+02  0.13467998408E+03  0.10375434461E+03 0.  0.
          5    1    3    3  502    0 -0.31839802350E+02  0.54235732095E+02  0.15949034982E+03  0.17149324107E+03  0.41800000000E+01 0. -1.
         -5    1    3    3    0  502  0.32244741096E+02 -0.40428151583E+02  0.45297700003E+02  0.68873164544E+02  0.41800000000E+01 0. -1.
        -11    1    4    4    0    0 -0.44305383388E+02 -0.21863405598E+02  0.73649942312E+02  0.88686467424E+02  0.00000000000E+00 0. -1.
         11    1    4    4    0    0  0.43900444642E+02  0.80558250854E+01  0.11102171704E+02  0.45993516653E+02  0.00000000000E+00 0.  1.
</event>
<event>
 7    1  0.5951278E-006  0.1332536E+03  0.7561462E-02  0.1222706E+00
          1   -1    0    0  501    0  0.00000000000E+00  0.00000000000E+00  0.64117556221E+03  0.64117556221E+03  0.00000000000E+00 0. -1.
         -1   -1    0    0    0  501 -0.00000000000E+00 -0.00000000000E+00 -0.32630163347E+02  0.32630163347E+02  0.00000000000E+00 0.  1.
         23    2    1    2    0    0 -0.41478801109E+02 -0.59536481971E+02  0.30339950021E+03  0.32469463502E+03  0.90057013372E+02 0.  0.
          5    1    1    2  502    0  0.84308686232E+02  0.90513921762E+01  0.24599458909E+03  0.26023199752E+03  0.41800000000E+01 0. -1.
         -5    1    1    2    0  502 -0.42829885123E+02  0.50485089795E+02  0.59151309564E+02  0.88879093011E+02  0.41800000000E+01 0.  1.
        -11    1    3    3    0    0 -0.58555347336E+02 -0.57444614465E+01  0.16794699656E+03  0.17795482908E+03  0.00000000000E+00 0.  1.
         11    1    3    3    0    0  0.17076546227E+02 -0.53792020525E+02  0.13545250365E+03  0.14673980594E+03  0.00000000000E+00 0. -1.
</event>
<event>
 8    1  0.5951278E-006  0.1568667E+03  0.7561462E-02  0.1192280E+00
          1   -1    0    0  501    0  0.00000000000E+00  0.00000000000E+00  0.19734596987E+03  0.19734596987E+03  0.00000000000E+00 0. -1.
         -1   -1    0    0    0  501 -0.00000000000E+00 -0.00000000000E+00 -0.14887084702E+03  0.14887084702E+03  0.00000000000E+00 0.  1.
         23    2    1    2    0    0  0.94473789846E+02  0.90172003883E+02 -0.14124121484E+01  0.18084564495E+03  0.12508742998E+03 0.  0.
         23    2    1    2    0    0 -0.94473789846E+02 -0.90172003883E+02  0.49887535005E+02  0.16537117194E+03  0.88332163487E+02 0.  0.
          5    1    3    3  502    0  0.11769858325E+03  0.41729746260E+02 -0.13339175637E+02  0.12565720921E+03  0.41800000000E+01 0.  1.
         -5    1    3    3    0  502 -0.23224793399E+02  0.48442257623E+02  0.11926763489E+02  0.55188435739E+02  0.41800000000E+01 0.  1.
        -11    1    4    4    0    0 -0.45339643807E+02 -0.66184324943E+02 -0.13831670926E+02  0.81408619257E+02  0.00000000000E+00 0.  1.
         11    1    4    4    0    0 -0.49134146039E+02 -0.23987678940E+02  0.63719205931E+02  0.83962552679E+02  0.00000000000E+00 0. -1.
</event>
<event>
 8    1  0.5951278E-006  0.3390929E+03  0.7561462E-02  0.1067183E+00
          2   -1    0    0  501    0  0.00000000000E+00  0.00000000000E+00  0.51248012631E+03  0.51248012631E+03  0.00000000000E+00 0. -1.
         -2   -1    0    0    0  501 -0.00000000000E+00 -0.00000000000E+00 -0.23976928337E+03  0.23976928337E+03  0.00000000000E+00 0.  1.
         23    2    1    2    0    0 -0.27361692229E+03  0.17233213174E+03  0.53835737445E+02  0.35087463237E+03  0.12510050848E+03 0.  0.
         23    2    1    2    0    0  0.27361692229E+03 -0.17233213174E+03  0.21887510549E+03  0.40137477731E+03  0.92902186535E+02 0.  0.
          5    1    3    3  502    0 -0.19455144946E+03  0.18228768580E+03  0.35460066701E+02  0.26898690603E+03  0.41800000000E+01 0. -1.
         -5    1    3    3    0  502 -0.79065472828E+02 -0.99555540665E+01  0.18375670744E+02  0.81887726343E+02  0.41800000000E+01 0. -1.
        -11    1    4    4    0    0  0.16946837965E+03 -0.63135096418E+02  0.85754250748E+02  0.20014835403E+03  0.00000000000E+00 0.  1.
         11    1    4    4    0    0  0.10414854264E+03 -0.10919703532E+03  0.13312085474E+03  0.20122642328E+03  0.00000000000E+00 0. -1.
</event>
<event>
 8    1  0.5951278E-006  0.9831197E+02  0.7561462E-02  0.1283886E+00
          2   -1    0    0  501    0  0.00000000000E+00  0.00000000000E+00  0.52970494482E+03  0.52970494482E+03  0.00000000000E+00 0. -1.
         -2   -1    0    0    0  501 -0.00000000000E+00 -0.00000000000E+00 -0.24236303075E+02  0.24236303075E+02  0.00000000000E+00 0.  1.
         23    2    1    2    0    0  0.25001291561E+02  0.25446662469E+01  0.25201579111E+03  0.28247352311E+03  0.12509113632E+03 0.  0.
         23    2    1    2    0    0 -0.25001291561E+02 -0.25446662469E+01  0.25345285064E+03  0.27146772478E+03  0.93940609945E+02 0.  0.
          5    1    3    3  502    0 -0.47608551271E+02 -0.15971049092E+02  0.76727138933E+02  0.91794198139E+02  0.41800000000E+01 0. -1.
         -5    1    3    3    0  502  0.72609842832E+02  0.18515715338E+02  0.17528865218E+03  0.19067932497E+03  0.41800000000E+01 0. -1.
        -11    1    4    4    0    0 -0.26389378991E+02 -0.32123425560E+02  0.22990850102E+03  0.23363696761E+03  0.00000000000E+00 0. -1.
         11    1    4    4    0    0  0.13880874303E+01  0.29578759313E+02  0.23544349614E+02  0.37830757169E+02  0.00000000000E+00 0.  1.
</event>
<event>
 8    1  0.5951278E-006  0.1094226E+03  0.7561462E-02  0.1261643E+00
          1   -1    0    0  501    0  0.00000000000E+00  0.00000000000E+00  0.37650160195E+03  0.37650160195E+03  0.00000000000E+00 0.  1.
         -1   -1    0    0    0  501 -0.00000000000E+00 -0.00000000000E+00 -0.51980432131E+02  0.51980432131E+02  0.00000000000E+00 0. -1.
         23    2    1    2    0    0 -0.28451367656E+02  0.82097621227E+02  0.15271928791E+03  0.21568506149E+03  0.12508942847E+03 0.  0.
         23    2    1    2    0    0  0.28451367656E+02 -0.82097621227E+02  0.17180188191E+03  0.21279697260E+03  0.90648580724E+02 0.  0.
          5    1    3    3  502    0  0.76008805273E+01  0.43847927638E+02  0.15656139592E+03  0.16281694394E+03  0.41800000000E+01 0.  1.
         -5    1    3    3    0  502 -0.36052248183E+02  0.38249693589E+02 -0.38421080031E+01  0.52868117544E+02  0.41800000000E+01 0.  1.
        -11    1    4    4    0    0 -0.28897867916E+02 -0.13181705421E+02  0.23540391064E+02  0.39534720681E+02  0.00000000000E+00 0.  1.
         11    1    4    4    0    0  0.57349235572E+02 -0.68915915807E+02  0.14826149084E+03  0.17326225192E+03  0.00000000000E+00 0. -1.
</event>
<event>
 8    1  0.5951278E-006  0.9901111E+02  0.7561462E-02  0.1282389E+00
          1   -1    0    0  501    0  0.00000000000E+00  0.00000000000E+00  0.91338227206E+02  0.91338227206E+02  0.00000000000E+00 0. -1.
         -1   -1    0    0    0  501 -0.00000000000E+00 -0.00000000000E+00 -0.14896561689E+03  0.14896561689E+03  0.00000000000E+00 0.  1.
         23    2    1    2    0    0  0.40348221570E+01 -0.96286096163E+01  0.65635841625E+01  0.12568990395E+03  0.12508349774E+03 0.  0.
         23    2    1    2    0    0 -0.40348221570E+01  0.96286096163E+01 -0.64190973849E+02  0.11461394014E+03  0.94376290659E+02 0.  0.
          5    1    3    3  502    0 -0.43253589280E+02 -0.43498392031E+02  0.22104422604E+02  0.65338051651E+02  0.41800000000E+01 0.  1.
         -5    1    3    3    0  502  0.47288411437E+02  0.33869782415E+02 -0.15540838442E+02  0.60351852304E+02  0.41800000000E+01 0.  1.
        -11    1    4    4    0    0 -0.10058423323E+02 -0.33343690557E+02 -0.62065473169E+02  0.71169491634E+02  0.00000000000E+00 0.  1.
         11    1    4    4    0    0  0.60236011661E+01  0.42972300173E+02 -0.21255006794E+01  0.43444448510E+02  0.00000000000E+00 0. -1.
</event>
<event>
 8    1  0.5951278E-006  0.1836528E+03  0.7561462E-02  0.1164314E+00
          4   -1    0    0  501    0  0.00000000000E+00  0.00000000000E+00  0.25839694116E+02  0.25839694116E+02  0.00000000000E+00 0. -1.
         -4   -1    0    0    0  501 -0.00000000000E+00 -0.00000000000E+00 -0.15440435853E+04  0.15440435853E+04  0.00000000000E+00 0.  1.
         23    2    1    2    0    0 -0.15497398644E+03 -0.44366989867E+02 -0.96939339725E+03  0.99063412187E+03  0.12508812304E+03 0.  0.
         23    2    1    2    0    0  0.15497398644E+03  0.44366989867E+02 -0.54881049392E+03  0.57924915753E+03  0.91385239488E+02 0.  0.
          5    1    3    3  502    0 -0.59816621072E+02  0.42586015456E+02 -0.29586855216E+03  0.30487254620E+03  0.41800000000E+01 0.  1.
         -5    1    3    3    0  502 -0.95157365370E+02 -0.86953005323E+02 -0.67352484509E+03  0.68576157567E+03  0.41800000000E+01 0.  1.
        -11    1    4    4    0    0  0.10101616619E+03  0.11645496837E+02 -0.19566678762E+03  0.22051162148E+03  0.00000000000E+00 0.  1.
         11    1    4    4    0    0  0.53957820248E+02  0.32721493030E+02 -0.35314370630E+03  0.35873753605E+03  0.00000000000E+00 0. -1.
</event>
<event>
 8    1  0.5951278E-006  0.1087925E+03  0.7561462E-02  0.1262823E+00
         -1   -1    0    0    0  501 -0.00000000000E+00  0.00000000000E+00  0.41250359826E+03  0.41250359826E+03  0.00000000000E+00 0.  1.
          1   -1    0    0  501    0  0.00000000000E+00 -0.00000000000E+00 -0.37521764047E+02  0.37521764047E+02  0.00000000000E+00 0. -1.
         23    2    1    2    0    0  0.44521104231E+02  0.42590386643E+02  0.20101649312E+03  0.24464478229E+03  0.12508944495E+03 0.  0.
         23    2    1    2    0    0 -0.44521104231E+02 -0.42590386643E+02  0.17396534109E+03  0.20538058002E+03  0.90117550965E+02 0.  0.
          5    1    3    3  502    0 -0.18707202510E+01 -0.26312473110E+02 -0.42257524035E+00  0.26711360977E+02  0.41800000000E+01 0. -1.
         -5    1    3    3    0  502  0.46391824482E+02  0.68902859753E+02  0.20143906836E+03  0.21793342131E+03  0.41800000000E+01 0. -1.
        -11    1    4    4    0    0 -0.64198842881E+02 -0.54920369054E+02  0.12129290399E+03  0.14781646364E+03  0.00000000000E+00 0.  1.
         11    1    4    4    0    0  0.19677738650E+02  0.12329982411E+02  0.52672437098E+02  0.57564116379E+02  0.00000000000E+00 0. -1.
</event>
<event>
 8    1  0.5951278E-006  0.2919774E+03  0.7561462E-02  0.1089321E+00
         -3   -1    0    0    0  501 -0.00000000000E+00  0.00000000000E+00  0.96077701822E+03  0.96077701822E+03  0.00000000000E+00 0.  1.
          3   -1    0    0  501    0  0.00000000000E+00 -0.00000000000E+00 -0.12475637369E+03  0.12475637369E+03  0.00000000000E+00 0. -1.
         23    2    1    2    0    0 -0.55826473655E+02  0.26909274057E+03  0.70585804275E+03  0.76773037650E+03  0.12508739465E+03 0.  0.
         23    2    1    2    0    0  0.55826473655E+02 -0.26909274057E+03  0.13016260178E+03  0.31780301541E+03  0.92352344380E+02 0.  0.
          5    1    3    3  502    0 -0.44423991683E+02  0.27948758495E+03  0.63708292219E+03  0.69712188556E+03  0.41800000000E+01 0. -1.
         -5    1    3    3    0  502 -0.11402481972E+02 -0.10394844386E+02  0.68775120563E+02  0.70608490944E+02  0.41800000000E+01 0. -1.
        -11    1    4    4    0    0  0.57958310799E+02 -0.98141676545E+02  0.81269915481E+02  0.13998483356E+03  0.00000000000E+00 0. -1.
         11    1    4    4    0    0 -0.21318371445E+01 -0.17095106402E+03  0.48892686298E+02  0.17781818184E+03  0.00000000000E+00 0.  1.
</event>
<event>
 8    1  0.5951278E-006  0.8368759E+02  0.7561462E-02  0.1318901E+00
          2   -1    0    0  501    0  0.00000000000E+00  0.00000000000E+00  0.10737099745E+03  0.10737099745E+03  0.00000000000E+00 0. -1.
         -2   -1    0    0    0  501 -0.00000000000E+00 -0.00000000000E+00 -0.13949102585E+03  0.13949102585E+03  0.00000000000E+00 0.  1.
         23    2    1    2    0    0 -0.33694206803E+02 -0.44009611955E+02 -0.26212090914E+02  0.13930887446E+03  0.12509094002E+03 0.  0.
         23    2    1    2    0    0  0.33694206803E+02  0.44009611955E+02 -0.59079374869E+01  0.10755314885E+03  0.91981686140E+02 0.  0.
          5    1    3    3  502    0 -0.35913194504E+02 -0.36136894302E+02 -0.74391386141E+02  0.90261749381E+02  0.41800000000E+01 0. -1.
         -5    1    3    3    0  502  0.22189877011E+01 -0.78727176523E+01  0.48179295227E+02  0.49047125076E+02  0.41800000000E+01 0. -1.
        -11    1    4    4    0    0  0.63402943128E+02  0.14176583597E+02  0.47067752077E+00  0.64970225928E+02  0.00000000000E+00 0.  1.
         11    1    4    4    0    0 -0.29708736325E+02  0.29833028357E+02 -0.63786150076E+01  0.42582922920E+02  0.00000000000E+00 0. -1.
</event>
<event>
 8    1  0.5951278E-006  0.8538389E+02  0.7561462E-02  0.1314432E+00
          1   -1    0    0  501    0  0.00000000000E+00  0.00000000000E+00  0.25500537593E+03  0.25500537593E+03  0.00000000000E+00 0. -1.
         -1   -1    0    0    0  501 -0.00000000000E+00 -0.00000000000E+00 -0.63653892337E+02  0.63653892337E+02  0.00000000000E+00 0.  1.
         23    2    1    2    0    0  0.50852874267E+01 -0.83071493022E+01  0.12490348362E+02  0.11633024482E+03  0.11524690096E+03 0.  0.
         23    2    1    2    0    0 -0.50852874267E+01  0.83071493022E+01  0.17886113523E+03  0.20232902344E+03  0.94079004853E+02 0.  0.
          5    1    3    3  502    0  0.39218564627E+02  0.54242040427E+01  0.49804918147E+02  0.63761430917E+02  0.41800000000E+01 0. -1.
         -5    1    3    3    0  502 -0.34133277201E+02 -0.13731353345E+02 -0.37314569785E+02  0.52568813905E+02  0.41800000000E+01 0.  1.
        -11    1    4    4    0    0 -0.40679051805E+02  0.31495567607E+02  0.86022953397E+02  0.10023325070E+03  0.00000000000E+00 0. -1.
         11    1    4    4    0    0  0.35593764379E+02 -0.23188418305E+02  0.92838181834E+02  0.10209577275E+03  0.00000000000E+00 0.  1.
</event>
<event>
 8    1  0.5951278E-006  0.6661553E+02  0.7561462E-02  0.1371996E+00
         -1   -1    0    0    0  501 -0.00000000000E+00  0.00000000000E+00  0.44159414678E+02  0.44159414678E+02  0.00000000000E+00 0.  1.
          1   -1    0    0  501    0  0.00000000000E+00 -0.00000000000E+00 -0.36257845996E+03  0.36257845996E+03  0.00000000000E+00 0. -1.
         23    2    1    2    0    0 -0.18703766484E+02 -0.32386882422E+02 -0.65455638135E+02  0.13418587285E+03  0.11100750820E+03 0.  0.
         23    2    1    2    0    0  0.18703766484E+02  0.32386882422E+02 -0.25296340715E+03  0.27255200178E+03  0.94315254797E+02 0.  0.
          5    1    3    3  502    0 -0.10549207641E+02 -0.12092186009E+02 -0.95421855830E+02  0.96851999021E+02  0.41800000000E+01 0. -1.
         -5    1    3    3    0  502 -0.81545588430E+01 -0.20294696413E+02  0.29966217695E+02  0.37333873832E+02  0.41800000000E+01 0.  1.
        -11    1    4    4    0    0  0.49039288986E+02 -0.12894011216E+01 -0.80832492947E+02  0.94553721955E+02  0.00000000000E+00 0.  1.
         11    1    4    4    0    0 -0.30335522503E+02  0.33676283543E+02 -0.17213091420E+03  0.17799827983E+03  0.00000000000E+00 0. -1.
</event>
<event>
 8    1  0.5951278E-006  0.1271260E+03  0.7561462E-02  0.1231784E+00
          1   -1    0    0  501    0  0.00000000000E+00  0.00000000000E+00  0.93944294756E+03  0.93944294756E+03  0.00000000000E+00 0. -1.
         -1   -1    0    0    0  501 -0.00000000000E+00 -0.00000000000E+00 -0.21205474306E+02  0.21205474306E+02  0.00000000000E+00 0.  1.
         23    2    1    2    0    0 -0.86107015806E+02 -0.21284841022E+02  0.56674171737E+03  0.58712069479E+03  0.12508826254E+03 0.  0.
         23    2    1    2    0    0  0.86107015806E+02  0.21284841022E+02  0.35149575588E+03  0.37352772707E+03  0.90034625870E+02 0.  0.
          5    1    3    3  502    0 -0.10580706071E+03 -0.19385158271E+02  0.55119442510E+03  0.56160812416E+03  0.41800000000E+01 0. -1.
         -5    1    3    3    0  502  0.19700044903E+02 -0.18996827511E+01  0.15547292266E+02  0.25512570638E+02  0.41800000000E+01 0. -1.
        -11    1    4    4    0    0 -0.18634652390E+02 -0.29476456574E+01  0.54368552978E+02  0.57548922123E+02  0.00000000000E+00 0. -1.
         11    1    4    4    0    0  0.10474166820E+03  0.24232486679E+02  0.29712720291E+03  0.31597880494E+03  0.00000000000E+00 0.  1.
</event>
<event>
 8    1  0.5951278E-006  0.1258791E+03  0.7561462E-02  0.1233702E+00
         -1   -1    0    0    0  501 -0.00000000000E+00  0.00000000000E+00  0.48791366944E+02  0.48791366944E+02  0.00000000000E+00 0.  1.
          1   -1    0    0  501    0  0.00000000000E+00 -0.00000000000E+00 -0.47118770986E+03  0.47118770986E+03  0.00000000000E+00 0. -1.
         23    2    1    2    0    0 -0.10264524430E+03 -0.28796926064E+02 -0.21634893692E+03  0.27169771682E+03  0.12508987845E+03 0.  0.
         23    2    1    2    0    0  0.10264524430E+03  0.28796926064E+02 -0.20604740600E+03  0.24828135999E+03  0.88446543573E+02 0.  0.
          5    1    3    3  502    0 -0.17423736666E+02 -0.25199213946E+02  0.77512061085E+01  0.31876960003E+02  0.41800000000E+01 0. -1.
         -5    1    3    3    0  502 -0.85221507633E+02 -0.35977121184E+01 -0.22410014302E+03  0.23982075681E+03  0.41800000000E+01 0. -1.
        -11    1    4    4    0    0  0.85421203185E+02 -0.16479500930E+02 -0.10604440825E+03  0.13716330568E+03  0.00000000000E+00 0.  1.
         11    1    4    4    0    0  0.17224041114E+02  0.45276426994E+02 -0.10000299775E+03  0.11111805431E+03  0.00000000000E+00 0. -1.
</event>
<event>
 8    1  0.5951278E-006  0.1758957E+03  0.7561462E-02  0.1171835E+00
          2   -1    0    0  501    0  0.00000000000E+00  0.00000000000E+00  0.50039832797E+03  0.50039832797E+03  0.00000000000E+00 0. -1.
         -2   -1    0    0    0  501 -0.00000000000E+00 -0.00000000000E+00 -0.64059553449E+02  0.64059553449E+02  0.00000000000E+00 0.  1.
         23    2    1    2    0    0  0.11022408909E+03  0.88971637431E+02  0.22069325239E+03  0.29054714548E+03  0.12508728957E+03 0.  0.
         23    2    1    2    0    0 -0.11022408909E+03 -0.88971637431E+02  0.21564552214E+03  0.27391073594E+03  0.91971723718E+02 0.  0.
          5    1    3    3  502    0  0.81364321119E+02 -0.77889254824E+01  0.13583361670E+03  0.15858456400E+03  0.41800000000E+01 0.  1.
         -5    1    3    3    0  502  0.28859767974E+02  0.96760562913E+02  0.84859635681E+02  0.13196258148E+03  0.41800000000E+01 0.  1.
        -11    1    4    4    0    0 -0.11954427204E+03 -0.98987590574E+02  0.19851034908E+03  0.25198360017E+03  0.00000000000E+00 0.  1.
         11    1    4    4    0    0  0.93201829415E+01  0.10015953143E+02  0.17135173053E+02  0.21927135768E+02  0.00000000000E+00 0. -1.
</event>
<event>
 8    1  0.5951278E-006  0.1472334E+03  0.7561462E-02  0.1203914E+00
          3   -1    0    0  501    0  0.00000000000E+00  0.00000000000E+00  0.39795133921E+03  0.39795133921E+03  0.00000000000E+00 0. -1.
         -3   -1    0    0    0  501 -0.00000000000E+00 -0.00000000000E+00 -0.69123540244E+02  0.69123540244E+02  0.00000000000E+00 0.  1.
         23    2    1    2    0    0 -0.10736239643E+03 -0.34392268365E+02  0.99490262891E+02  0.19559001752E+03  0.12509048826E+03 0.  0.
         23    2    1    2    0    0  0.10736239643E+03  0.34392268365E+02  0.22933753608E+03  0.27148486194E+03  0.91645035416E+02 0.  0.
          5    1    3    3  502    0  0.14628074142E+02  0.14159135282E+02  0.51840583319E+02  0.55851411298E+02  0.41800000000E+01 0.  1.
         -5    1    3    3    0  502 -0.12199047057E+03 -0.48551403647E+02  0.47649679572E+02  0.13973860622E+03  0.41800000000E+01 0.  1.
        -11    1    4    4    0    0 -0.27772540307E+01  0.32035247372E+02  0.31332587675E+02  0.44896561835E+02  0.00000000000E+00 0. -1.
         11    1    4    4    0    0  0.11013965046E+03  0.23570209929E+01  0.19800494840E+03  0.22658830010E+03  0.00000000000E+00 0.  1.
</event>
<event>
 8    1  0.5951278E-006  0.1079681E+03  0.7561462E-02  0.1264380E+00
         -1   -1    0    0    0  501 -0.00000000000E+00  0.00000000000E+00  0.50169067703E+03  0.50169067703E+03  0.00000000000E+00 0.  1.
          1   -1    0    0  501    0  0.00000000000E+00 -0.00000000000E+00 -0.33406703465E+02  0.33406703465E+02  0.00000000000E+00 0. -1.
         23    2    1    2    0    0 -0.46037655940E+02  0.48262034526E+02  0.35315516047E+03  0.38054774164E+03  0.12509726837E+03 0.  0.
         23    2    1    2    0    0  0.46037655940E+02 -0.48262034526E+02  0.11512881309E+03  0.15454963886E+03  0.78627333202E+02 0.  0.
          5    1    3    3  502    0  0.32843740102E+02 -0.17784884034E+02  0.73751150342E+02  0.82775104596E+02  0.41800000000E+01 0. -1.
         -5    1    3    3    0  502 -0.78881396042E+02  0.66046918560E+02  0.27940401013E+03  0.29777263704E+03  0.41800000000E+01 0. -1.
        -11    1    4    4    0    0  0.47790343803E+02 -0.28697804921E+02  0.22921500165E+02  0.60273345169E+02  0.00000000000E+00 0. -1.
         11    1    4    4    0    0 -0.17526878631E+01 -0.19564229606E+02  0.92207312924E+02  0.94276293687E+02  0.00000000000E+00 0.  1.
</event>
<event>
 8    1  0.5951278E-006  0.6500911E+02  0.7561462E-02  0.1377937E+00
          4   -1    0    0  501    0  0.00000000000E+00  0.00000000000E+00  0.32510489394E+02  0.32510489394E+02  0.00000000000E+00 0.  1.
         -4   -1    0    0    0  501 -0.00000000000E+00 -0.00000000000E+00 -0.45933833087E+03  0.45933833087E+03  0.00000000000E+00 0. -1.
         23    2    1    2    0    0  0.11628508387E+02  0.50672310669E+02 -0.27203306300E+03  0.30389355256E+03  0.12508556530E+03 0.  0.
         23    2    1    2    0    0 -0.11628508387E+02 -0.50672310669E+02 -0.15479477847E+03  0.18795526770E+03  0.93074453734E+02 0.  0.
          5    1    3    3  502    0  0.71819338833E+01  0.47060925320E+02 -0.20072593688E+02  0.51833312489E+02  0.41800000000E+01 0.  1.
         -5    1    3    3    0  502  0.44465745033E+01  0.36113853493E+01 -0.25196046932E+03  0.25206024008E+03  0.41800000000E+01 0.  1.
        -11    1    4    4    0    0 -0.32785509366E+02 -0.39087572066E+02 -0.15567177725E+03  0.16381828392E+03  0.00000000000E+00 0. -1.
         11    1    4    4    0    0  0.21157000979E+02 -0.11584738603E+02  0.87699878146E+00  0.24136983776E+02  0.00000000000E+00 0.  1.
</event>
<event>
 8    1  0.5951278E-006  0.6789722E+02  0.7561462E-02  0.1367393E+00
          1   -1    0    0  501    0  0.00000000000E+00  0.00000000000E+00  0.20484553161E+02  0.20484553161E+02  0.00000000000E+00 0. -1.
         -1   -1    0    0    0  501 -0.00000000000E+00 -0.00000000000E+00 -0.73419270546E+03  0.73419270546E+03  0.00000000000E+00 0.  1.
         23    2    1    2    0    0 -0.26347011669E+02  0.21316595606E+02 -0.54264653402E+03  0.55791421456E+03  0.12511773514E+03 0.  0.
         23    2    1    2    0    0  0.26347011669E+02 -0.21316595606E+02 -0.17106161828E+03  0.19676304407E+03  0.91132079915E+02 0.  0.
          5    1    3    3  502    0  0.78393419704E+01  0.82206653751E+01  0.17870154446E+01  0.12235213359E+02  0.41800000000E+01 0. -1.
         -5    1    3    3    0  502 -0.34186353639E+02  0.13095930231E+02 -0.54443354947E+03  0.54567900120E+03  0.41800000000E+01 0. -1.
        -11    1    4    4    0    0  0.85323167947E+01 -0.51279692950E+02 -0.14253694881E+03  0.15172076033E+03  0.00000000000E+00 0.  1.
         11    1    4    4    0    0  0.17814694874E+02  0.29963097344E+02 -0.28524669470E+02  0.45042283737E+02  0.00000000000E+00 0. -1.
</event>
<event>
 8    1  0.5951278E-006  0.1165726E+03  0.7561462E-02  0.1248861E+00
          1   -1    0    0  501    0  0.00000000000E+00  0.00000000000E+00  0.15849812995E+03  0.15849812995E+03  0.00000000000E+00 0. -1.
         -1   -1    0    0    0  501 -0.00000000000E+00 -0.00000000000E+00 -0.12978791207E+03  0.12978791207E+03  0.00000000000E+00 0.  1.
         23    2    1    2    0    0 -0.94640732083E+02 -0.42229281736E+01  0.52235446939E+00  0.15691406875E+03  0.12508817221E+03 0.  0.
         23    2    1    2    0    0  0.94640732083E+02  0.42229281736E+01  0.28187863409E+02  0.13137197326E+03  0.86540963846E+02 0.  0.
          5    1    3    3  502    0 -0.99039320007E+02 -0.36416716644E+02  0.33141652944E+02  0.11068335791E+03  0.41800000000E+01 0.  1.
         -5    1    3    3    0  502  0.43985879237E+01  0.32193788470E+02 -0.32619298474E+02  0.46230710840E+02  0.41800000000E+01 0.  1.
        -11    1    4    4    0    0  0.62717130004E+02  0.41720704344E+01  0.59575143104E+02  0.86602784271E+02  0.00000000000E+00 0. -1.
         11    1    4    4    0    0  0.31923602080E+02  0.50857739251E-01 -0.31387279695E+02  0.44769188991E+02  0.00000000000E+00 0.  1.
</event>
<event>
 8    1  0.5951278E-006  0.1719581E+03  0.7561462E-02  0.1175821E+00
         -1   -1    0    0    0  501 -0.00000000000E+00  0.00000000000E+00  0.55289963180E+02  0.55289963180E+02  0.00000000000E+00 0.  1.
          1   -1    0    0  501    0  0.00000000000E+00 -0.00000000000E+00 -0.84556190593E+03  0.84556190593E+03  0.00000000000E+00 0. -1.
         23    2    1    2    0    0  0.15504883911E+03 -0.43703870259E+02 -0.21386088365E+03  0.29552710776E+03  0.12509845355E+03 0.  0.
         23    2    1    2    0    0 -0.15504883911E+03  0.43703870259E+02 -0.57641105910E+03  0.60532476135E+03  0.90654215942E+02 0.  0.
          5    1    3    3  502    0  0.33885418861E+02 -0.19801397592E+02 -0.15257007037E+03  0.15759256242E+03  0.41800000000E+01 0. -1.
         -5    1    3    3    0  502  0.12116342024E+03 -0.23902472667E+02 -0.61290813282E+02  0.13793454534E+03  0.41800000000E+01 0. -1.
        -11    1    4    4    0    0 -0.11515513996E+03 -0.81622204514E+01 -0.30444977290E+03  0.32560250662E+03  0.00000000000E+00 0.  1.
         11    1    4    4    0    0 -0.39893699146E+02  0.51866090710E+02 -0.27196128621E+03  0.27972225473E+03  0.00000000000E+00 0. -1.
</event>
<event>
 8    1  0.5951278E-006  0.9473988E+02  0.7561462E-02  0.1291763E+00
         -1   -1    0    0    0  501 -0.00000000000E+00  0.00000000000E+00  0.74951188603E+02  0.74951188603E+02  0.00000000000E+00 0.  1.
          1   -1    0    0  501    0  0.00000000000E+00 -0.00000000000E+00 -0.24539859082E+03  0.24539859082E+03  0.00000000000E+00 0. -1.
         23    2    1    2    0    0 -0.23431223710E+02 -0.77612375229E+02 -0.80856152156E+02  0.16957694326E+03  0.12508364925E+03 0.  0.
         23    2    1    2    0    0  0.23431223710E+02  0.77612375229E+02 -0.89591250060E+02  0.15077283617E+03  0.90183995283E+02 0.  0.
          5    1    3    3  502    0 -0.20662099512E+02 -0.61443946542E+01 -0.94179164382E+02  0.96705032680E+02  0.41800000000E+01 0.  1.
         -5    1    3    3    0  502 -0.27691241987E+01 -0.71467980575E+02  0.13323012226E+02  0.72871910576E+02  0.41800000000E+01 0.  1.
        -11    1    4    4    0    0 -0.80286981423E+01  0.58541131059E+02 -0.59372292587E+01  0.59386654315E+02  0.00000000000E+00 0.  1.
         11    1    4    4    0    0  0.31459921853E+02  0.19071244170E+02 -0.83654020801E+02  0.91386181851E+02  0.00000000000E+00 0. -1.
</event>
<event>
 8    1  0.5951278E-006  0.8719231E+02  0.7561462E-02  0.1309797E+00
          1   -1    0    0  501    0  0.00000000000E+00  0.00000000000E+00  0.44837037252E+02  0.44837037252E+02  0.00000000000E+00 0. -1.
         -1   -1    0    0    0  501 -0.00000000000E+00 -0.00000000000E+00 -0.35508646032E+03  0.35508646032E+03  0.00000000000E+00 0.  1.
         23    2    1    2    0    0 -0.26800030081E+02  0.94237708702E+00 -0.26776668585E+03  0.29675830933E+03  0.12508943369E+03 0.  0.
         23    2    1    2    0    0  0.26800030081E+02 -0.94237708702E+00 -0.42482737215E+02  0.10316518823E+03  0.90106289543E+02 0.  0.
          5    1    3    3  502    0  0.23823951133E+02 -0.47963478624E+02 -0.81687110125E+02  0.97766723837E+02  0.41800000000E+01 0.  1.
         -5    1    3    3    0  502 -0.50623981214E+02  0.48905855711E+02 -0.18607957572E+03  0.19899158550E+03  0.41800000000E+01 0.  1.
        -11    1    4    4    0    0  0.11854063034E+02  0.20699468879E+02 -0.64560384751E+02  0.68826085909E+02  0.00000000000E+00 0.  1.
         11    1    4    4    0    0  0.14945967047E+02 -0.21641845966E+02  0.22077647536E+02  0.34339102325E+02  0.00000000000E+00 0. -1.
</event>
<event>
 8    1  0.5951278E-006  0.1114214E+03  0.7561462E-02  0.1257960E+00
         -1   -1    0    0    0  501 -0.00000000000E+00  0.00000000000E+00  0.77679947977E+02  0.77679947977E+02  0.00000000000E+00 0.  1.
          1   -1    0    0  501    0  0.00000000000E+00 -0.00000000000E+00 -0.24014752801E+03  0.24014752801E+03  0.00000000000E+00 0. -1.
         23    2    1    2    0    0  0.29249348012E+02  0.35242381681E+02 -0.18834194319E+02  0.13452213012E+03  0.12507568426E+03 0.  0.
         23    2    1    2    0    0 -0.29249348012E+02 -0.35242381681E+02 -0.14363338571E+03  0.18330534586E+03  0.10427248201E+03 0.  0.
          5    1    3    3  502    0 -0.20843196938E+02  0.57567614450E+02  0.22877621987E+02  0.65492954429E+02  0.41800000000E+01 0.  1.
         -5    1    3    3    0  502  0.50092544950E+02 -0.22325232769E+02 -0.41711816305E+02  0.69029175695E+02  0.41800000000E+01 0.  1.
        -11    1    4    4    0    0  0.20996611840E+02 -0.49897015595E+02 -0.40352695418E+02  0.67519700100E+02  0.00000000000E+00 0.  1.
         11    1    4    4    0    0 -0.50245959852E+02  0.14654633914E+02 -0.10328069029E+03  0.11578564576E+03  0.00000000000E+00 0. -1.
</event>
<event>
 8    1  0.5951278E-006  0.1112370E+03  0.7561462E-02  0.1258296E+00
          1   -1    0    0  501    0  0.00000000000E+00  0.00000000000E+00  0.73502297579E+03  0.73502297579E+03  0.00000000000E+00 0. -1.
         -1   -1    0    0    0  501 -0.00000000000E+00 -0.00000000000E+00 -0.19057490556E+02  0.19057490556E+02  0.00000000000E+00 0.  1.
         23    2    1    2    0    0  0.30922758747E+02  0.35126980389E+02  0.36718532616E+03  0.39072074928E+03  0.12509004123E+03 0.  0.
         23    2    1    2    0    0 -0.30922758747E+02 -0.35126980389E+02  0.34878015908E+03  0.36335971707E+03  0.90512777322E+02 0.  0.
          5    1    3    3  502    0  0.69782388467E+02 -0.27704699121E+01  0.27406905831E+03  0.28285787662E+03  0.41800000000E+01 0. -1.
         -5    1    3    3    0  502 -0.38859629720E+02  0.37897450301E+02  0.93116267853E+02  0.10786287267E+03  0.41800000000E+01 0. -1.
        -11    1    4    4    0    0 -0.85529892890E+01  0.28957748742E+02  0.15812938439E+03  0.16098635671E+03  0.00000000000E+00 0. -1.
         11    1    4    4    0    0 -0.22369769458E+02 -0.64084729131E+02  0.19065077469E+03  0.20237336036E+03  0.00000000000E+00 0.  1.
</event>
<event>
 8    1  0.5951278E-006  0.9155730E+02  0.7561462E-02  0.1299124E+00
         -1   -1    0    0    0  501 -0.00000000000E+00  0.00000000000E+00  0.48638287134E+02  0.48638287134E+02  0.00000000000E+00 0.  1.
          1   -1    0    0  501    0  0.00000000000E+00 -0.00000000000E+00 -0.39805973357E+03  0.39805973357E+03  0.00000000000E+00 0. -1.
         23    2    1    2    0    0 -0.67089836544E+02 -0.34692074339E+02 -0.19832993121E+03  0.24634668649E+03  0.12508933664E+03 0.  0.
         23    2    1    2    0    0  0.67089836544E+02  0.34692074339E+02 -0.15109151523E+03  0.20035133422E+03  0.10773776014E+03 0.  0.
          5    1    3    3  502    0 -0.42661772115E+02 -0.26662137830E+00 -0.19935925465E+03  0.20391587162E+03  0.41800000000E+01 0.  1.
         -5    1    3    3    0  502 -0.24428064429E+02 -0.34425452960E+02  0.10293234401E+01  0.42430814864E+02  0.41800000000E+01 0.  1.
        -11    1    4    4    0    0  0.73429381730E+02  0.12168718529E+02 -0.35587326821E+02  0.82500967523E+02  0.00000000000E+00 0.  1.
         11    1    4    4    0    0 -0.63395451865E+01  0.22523355809E+02 -0.11550418841E+03  0.11785036670E+03  0.00000000000E+00 0. -1.
</event>
<event>
 7    1  0.5951278E-006  0.2162534E+03  0.7561462E-02  0.1136707E+00
         -1   -1    0    0    0  501 -0.00000000000E+00  0.00000000000E+00  0.83539438794E+02  0.83539438794E+02  0.00000000000E+00 0.  1.
          1   -1    0    0  501    0  0.00000000000E+00 -0.00000000000E+00 -0.79409215484E+03  0.79409215484E+03  0.00000000000E+00 0. -1.
         23    2    1    2    0    0 -0.20559185109E+03 -0.53459079195E+01 -0.52089132610E+03  0.56792270804E+03  0.94402546208E+02 0.  0.
          5    1    1    2  502    0  0.26991769598E+02 -0.33979730862E+02  0.34250782623E+01  0.43730782026E+02  0.41800000000E+01 0. -1.
         -5    1    1    2    0  502  0.17860008149E+03  0.39325638782E+02 -0.19308646821E+03  0.26597810357E+03  0.41800000000E+01 0.  1.
        -11    1    3    3    0    0 -0.86675281630E+02 -0.79508086706E+01 -0.34341871862E+03  0.35427706122E+03  0.00000000000E+00 0.  1.
         11    1    3    3    0    0 -0.11891656946E+03  0.26049007511E+01 -0.17747260748E+03  0.21364564682E+03  0.00000000000E+00 0. -1.
</event>
<event>
 8    1  0.5951278E-006  0.1007108E+03  0.7561462E-02  0.1278808E+00
          2   -1    0    0  501    0  0.00000000000E+00  0.00000000000E+00  0.60890832870E+02  0.60890832870E+02  0.00000000000E+00 0. -1.
         -2   -1    0    0    0  501 -0.00000000000E+00 -0.00000000000E+00 -0.29688452862E+03  0.29688452862E+03  0.00000000000E+00 0.  1.
         23    2    1    2    0    0  0.22323580574E+02  0.26417703659E+02 -0.23351024519E+03  0.26715303402E+03  0.12508985435E+03 0.  0.
         23    2    1    2    0    0 -0.22323580574E+02 -0.26417703659E+02 -0.24834505588E+01  0.90622327470E+02  0.83725751076E+02 0.  0.
          5    1    3    3  502    0  0.49889066776E+02 -0.33695402703E+02 -0.14088457293E+03  0.15326524210E+03  0.41800000000E+01 0.  1.
         -5    1    3    3    0  502 -0.27565486202E+02  0.60113106361E+02 -0.92625672262E+02  0.11388779192E+03  0.41800000000E+01 0.  1.
        -11    1    4    4    0    0 -0.26386348062E+02 -0.46962718452E+02 -0.25418735622E+02  0.59563817952E+02  0.00000000000E+00 0.  1.
         11    1    4    4    0    0  0.40627674878E+01  0.20545014793E+02  0.22935285063E+02  0.31058509518E+02  0.00000000000E+00 0. -1.
</event>
<event>
 7    1  0.5951278E-006  0.1942190E+03  0.7561462E-02  0.1154710E+00
         -1   -1    0    0    0  501 -0.00000000000E+00  0.00000000000E+00  0.14787737944E+03  0.14787737944E+03  0.00000000000E+00 0.  1.
          1   -1    0    0  501    0  0.00000000000E+00 -0.00000000000E+00 -0.43701503151E+03  0.43701503151E+03  0.00000000000E+00 0. -1.
         23    2    1    2    0    0  0.10283977905E+03 -0.10978578893E+03 -0.23513720357E+03  0.29348574373E+03  0.90639051510E+02 0.  0.
          5    1    1    2  502    0  0.39196887548E+02  0.51108682018E+02 -0.11020788062E+03  0.12771743312E+03  0.41800000000E+01 0. -1.
         -5    1    1    2    0  502 -0.14203666660E+03  0.58677106913E+02  0.56207432129E+02  0.16368923410E+03  0.41800000000E+01 0.  1.
        -11    1    3    3    0    0 -0.86046684027E+01  0.51785228494E+01 -0.39107861192E+02  0.40376753513E+02  0.00000000000E+00 0.  1.
         11    1    3    3    0    0  0.11144444746E+03 -0.11496431178E+03 -0.19602934238E+03  0.25310899021E+03  0.00000000000E+00 0. -1.
</event>
<event>
 8    1  0.5951278E-006  0.9921878E+02  0.7561462E-02  0.1281947E+00
          2   -1    0    0  501    0  0.00000000000E+00  0.00000000000E+00  0.35543196317E+03  0.35543196317E+03  0.00000000000E+00 0. -1.
         -2   -1    0    0    0  501 -0.00000000000E+00 -0.00000000000E+00 -0.45484167019E+02  0.45484167019E+02  0.00000000000E+00 0.  1.
         23    2    1    2    0    0  0.36105020756E+02  0.55098299822E+02  0.15976904735E+03  0.21333865164E+03  0.12509131316E+03 0.  0.
         23    2    1    2    0    0 -0.36105020756E+02 -0.55098299822E+02  0.15017874880E+03  0.18757747854E+03  0.91061839967E+02 0.  0.
          5    1    3    3  502    0 -0.11253095325E+02  0.74008012018E+02  0.44406875636E+02  0.87139319489E+02  0.41800000000E+01 0. -1.
         -5    1    3    3    0  502  0.47358116081E+02 -0.18909712196E+02  0.11536217171E+03  0.12619933215E+03  0.41800000000E+01 0. -1.
        -11    1    4    4    0    0 -0.14300190713E+01 -0.28653497122E+02 -0.24954264092E+01  0.28797482612E+02  0.00000000000E+00 0.  1.
         11    1    4    4    0    0 -0.34675001685E+02 -0.26444802700E+02  0.15267417521E+03  0.15877999593E+03  0.00000000000E+00 0. -1.
</event>
<event>
 8    1  0.5951278E-006  0.1478363E+03  0.7561462E-02  0.1203157E+00
          2   -1    0    0  501    0  0.00000000000E+00  0.00000000000E+00  0.13386794185E+04  0.13386794185E+04  0.00000000000E+00 0. -1.
         -2   -1    0    0    0  501 -0.00000000000E+00 -0.00000000000E+00 -0.21640782630E+02  0.21640782630E+02  0.00000000000E+00 0.  1.
         23    2    1    2    0    0 -0.97632986521E+02 -0.85488058204E+02  0.69105156652E+03  0.71417105311E+03  0.12509043670E+03 0.  0.
         23    2    1    2    0    0  0.97632986521E+02  0.85488058204E+02  0.62598706933E+03  0.64614914801E+03  0.93853621903E+02 0.  0.
          5    1    3    3  502    0 -0.84003395130E+02 -0.51324011715E+02  0.65543736600E+03  0.66280188422E+03  0.41800000000E+01 0.  1.
         -5    1    3    3    0  502 -0.13629591391E+02 -0.34164046489E+02  0.35614200525E+02  0.51369168895E+02  0.41800000000E+01 0.  1.
        -11    1    4    4    0    0 -0.17481010837E+02  0.23776329313E+02  0.11063620628E+03  0.11450445282E+03  0.00000000000E+00 0. -1.
         11    1    4    4    0    0  0.11511399736E+03  0.61711728891E+02  0.51535086306E+03  0.53164469519E+03  0.00000000000E+00 0.  1.
</event>
<event>
 8    1  0.5951278E-006  0.2041370E+03  0.7561462E-02  0.1146295E+00
          1   -1    0    0  501    0  0.00000000000E+00  0.00000000000E+00  0.83011676682E+03  0.83011676682E+03  0.00000000000E+00 0. -1.
         -1   -1    0    0    0  501 -0.00000000000E+00 -0.00000000000E+00 -0.59990847446E+02  0.59990847446E+02  0.00000000000E+00 0.  1.
         23    2    1    2    0    0 -0.48584699492E+02  0.18803298113E+03  0.37839503140E+03  0.44334271260E+03  0.12511229363E+03 0.  0.
         23    2    1    2    0    0  0.48584699492E+02 -0.18803298113E+03  0.39173088798E+03  0.44676490166E+03  0.91809115809E+02 0.  0.
          5    1    3    3  502    0 -0.32849831624E+02  0.26993648623E+02  0.19101366615E+03  0.19573313864E+03  0.41800000000E+01 0.  1.
         -5    1    3    3    0  502 -0.15734867868E+02  0.16103933250E+03  0.18738136524E+03  0.24760957397E+03  0.41800000000E+01 0.  1.
        -11    1    4    4    0    0  0.51304209249E+02 -0.76415680776E+02  0.10825366760E+03  0.14209269758E+03  0.00000000000E+00 0.  1.
         11    1    4    4    0    0 -0.27195097574E+01 -0.11161730035E+03  0.28347722038E+03  0.30467220409E+03  0.00000000000E+00 0. -1.
</event>
<event>
 8    1  0.5951278E-006  0.8888853E+02  0.7561462E-02  0.1305566E+00
         -2   -1    0    0    0  501 -0.00000000000E+00  0.00000000000E+00  0.31622586867E+02  0.31622586867E+02  0.00000000000E+00 0. -1.
          2   -1    0    0  501    0  0.00000000000E+00 -0.00000000000E+00 -0.54262905733E+03  0.54262905733E+03  0.00000000000E+00 0.  1.
         23    2    1    2    0    0  0.25012736538E+02  0.13935001176E+02 -0.13618128397E+03  0.18711743651E+03  0.12509105362E+03 0.  0.
         23    2    1    2    0    0 -0.25012736538E+02 -0.13935001176E+02 -0.37482518649E+03  0.38713420768E+03  0.92515691018E+02 0.  0.
          5    1    3    3  502    0  0.19741738961E+02 -0.30408050812E+02 -0.13748685210E+03  0.14224799721E+03  0.41800000000E+01 0. -1.
         -5    1    3    3    0  502  0.52709975765E+01  0.44343051989E+02  0.13055681225E+01  0.44869439302E+02  0.41800000000E+01 0. -1.
        -11    1    4    4    0    0  0.32909498789E+02  0.90258490966E+01 -0.11602002026E+03  0.12093447053E+03  0.00000000000E+00 0. -1.
         11    1    4    4    0    0 -0.57922235327E+02 -0.22960850273E+02 -0.25880516623E+03  0.26619973714E+03  0.00000000000E+00 0.  1.
</event>
<event>
 8    1  0.5951278E-006  0.1253184E+03  0.7561462E-02  0.1234573E+00
         -2   -1    0    0    0  501 -0.00000000000E+00  0.00000000000E+00  0.22541456681E+02  0.22541456681E+02  0.00000000000E+00 0. -1.
          2   -1    0    0  501    0  0.00000000000E+00 -0.00000000000E+00 -0.82953190422E+03  0.82953190422E+03  0.00000000000E+00 0.  1.
         23    2    1    2    0    0 -0.10861748531E+02  0.80218588617E+02 -0.38687974942E+03  0.41457958108E+03  0.12508912422E+03 0.  0.
         23    2    1    2    0    0  0.10861748531E+02 -0.80218588617E+02 -0.42011069812E+03  0.43749377982E+03  0.91404645206E+02 0.  0.
          5    1    3    3  502    0  0.42357778061E+02  0.59906138549E+02 -0.11290455171E+03  0.13471390795E+03  0.41800000000E+01 0. -1.
         -5    1    3    3    0  502 -0.53219526592E+02  0.20312450069E+02 -0.27397519771E+03  0.27986567313E+03  0.41800000000E+01 0. -1.
        -11    1    4    4    0    0  0.13067937361E+02 -0.99636215318E+02 -0.37695448942E+03  0.39011899913E+03  0.00000000000E+00 0.  1.
         11    1    4    4    0    0 -0.22061888306E+01  0.19417626701E+02 -0.43156208700E+02  0.47374780688E+02  0.00000000000E+00 0. -1.
</event>
<event>
 8    1  0.5951278E-006  0.1104720E+03  0.7561462E-02  0.1259698E+00
          2   -1    0    0  501    0  0.00000000000E+00  0.00000000000E+00  0.20630524790E+03  0.20630524790E+03  0.00000000000E+00 0.  1.
         -2   -1    0    0    0  501 -0.00000000000E+00 -0.00000000000E+00 -0.10388908615E+03  0.10388908615E+03  0.00000000000E+00 0. -1.
         23    2    1    2    0    0 -0.81028632505E+02  0.53439473731E+02  0.37977537217E+02  0.16282665632E+03  0.12509520389E+03 0.  0.
         23    2    1    2    0    0  0.81028632505E+02 -0.53439473731E+02  0.64438624528E+02  0.14736767774E+03  0.90241229338E+02 0.  0.
          5    1    3    3  502    0 -0.76217116838E+01 -0.17878835662E+02 -0.32776150528E+02  0.38333949667E+02  0.41800000000E+01 0. -1.
         -5    1    3    3    0  502 -0.73406920821E+02  0.71318309394E+02  0.70753687746E+02  0.12449270665E+03  0.41800000000E+01 0. -1.
        -11    1    4    4    0    0  0.49299543160E+02 -0.22071639415E+02  0.83012657560E+02  0.99038899112E+02  0.00000000000E+00 0.  1.
         11    1    4    4    0    0  0.31729089345E+02 -0.31367834316E+02 -0.18574033032E+02  0.48328778625E+02  0.00000000000E+00 0. -1.
</event>
<event>
 8    1  0.5951278E-006  0.1535505E+03  0.7561462E-02  0.1196177E+00
         -1   -1    0    0    0  501 -0.00000000000E+00  0.00000000000E+00  0.11217100106E+04  0.11217100106E+04  0.00000000000E+00 0. -1.
          1   -1    0    0  501    0  0.00000000000E+00 -0.00000000000E+00 -0.35658639133E+02  0.35658639133E+02  0.00000000000E+00 0.  1.
         23    2    1    2    0    0  0.42731995156E+02 -0.10546155751E+03  0.92354924331E+03  0.93890368451E+03  0.12509500563E+03 0.  0.
         23    2    1    2    0    0 -0.42731995156E+02  0.10546155751E+03  0.16250212813E+03  0.21846496520E+03  0.91497736862E+02 0.  0.
          5    1    3    3  502    0  0.21959392934E+02  0.25589382273E+02  0.25948393931E+03  0.26169909932E+03  0.41800000000E+01 0. -1.
         -5    1    3    3    0  502  0.20772602222E+02 -0.13105093979E+03  0.66406530400E+03  0.67720458519E+03  0.41800000000E+01 0. -1.
        -11    1    4    4    0    0  0.22781789887E+02  0.10706384835E+02  0.56769607089E+02  0.62100120095E+02  0.00000000000E+00 0. -1.
         11    1    4    4    0    0 -0.65513785043E+02  0.94755172679E+02  0.10573252104E+03  0.15636484511E+03  0.00000000000E+00 0.  1.
</event>
<event>
 8    1  0.5951278E-006  0.1045754E+03  0.7561462E-02  0.1270958E+00
          1   -1    0    0  501    0  0.00000000000E+00  0.00000000000E+00  0.20402837708E+02  0.20402837708E+02  0.00000000000E+00 0. -1.
         -1   -1    0    0    0  501 -0.00000000000E+00 -0.00000000000E+00 -0.70311563367E+03  0.70311563367E+03  0.00000000000E+00 0.  1.
         23    2    1    2    0    0  0.28215861866E+02  0.22286352050E+02 -0.49251696504E+03  0.50942444279E+03  0.12508991054E+03 0.  0.
         23    2    1    2    0    0 -0.28215861866E+02 -0.22286352050E+02 -0.19019583093E+03  0.21409402859E+03  0.91482143751E+02 0.  0.
          5    1    3    3  502    0  0.58911095414E+02  0.56997003137E+02 -0.27497692981E+03  0.28696508474E+03  0.41800000000E+01 0. -1.
         -5    1    3    3    0  502 -0.30695233548E+02 -0.34710651087E+02 -0.21754003522E+03  0.22245935806E+03  0.41800000000E+01 0. -1.
        -11    1    4    4    0    0  0.77341805727E+01 -0.39811226462E+02 -0.15689264041E+03  0.16204953538E+03  0.00000000000E+00 0.  1.
         11    1    4    4    0    0 -0.35950042439E+02  0.17524874412E+02 -0.33303190515E+02  0.52044493205E+02  0.00000000000E+00 0. -1.
</event>
<event>
 8    1  0.5951278E-006  0.9374914E+02  0.7561462E-02  0.1294018E+00
         -2   -1    0    0    0  501 -0.00000000000E+00  0.00000000000E+00  0.14693011290E+02  0.14693011290E+02  0.00000000000E+00 0.  1.
          2   -1    0    0  501    0  0.00000000000E+00 -0.00000000000E+00 -0.74934724373E+03  0.74934724373E+03  0.00000000000E+00 0. -1.
         23    2    1    2    0    0  0.12888194825E+02 -0.13368073465E+02 -0.42427744608E+03  0.43888670861E+03  0.11074917961E+03 0.  0.
         23    2    1    2    0    0 -0.12888194825E+02  0.13368073465E+02 -0.31037678635E+03  0.32515354641E+03  0.95111872448E+02 0.  0.
          5    1    3    3  502    0  0.74720205812E+01  0.43368989344E+02 -0.96221085271E+02  0.10588989555E+03  0.41800000000E+01 0. -1.
         -5    1    3    3    0  502  0.54161742440E+01 -0.56737062810E+02 -0.32805636081E+03  0.33299681306E+03  0.41800000000E+01 0.  1.
        -11    1    4    4    0    0 -0.48994244493E+02  0.75793054727E+01 -0.99915835129E+02  0.11153948168E+03  0.00000000000E+00 0.  1.
         11    1    4    4    0    0  0.36106049668E+02  0.57887679924E+01 -0.21046095122E+03  0.21361406472E+03  0.00000000000E+00 0. -1.
</event>
<event>
 8    1  0.5951278E-006  0.1152642E+03  0.7561462E-02  0.1251121E+00
          3   -1    0    0  501    0  0.00000000000E+00  0.00000000000E+00  0.45507549722E+03  0.45507549722E+03  0.00000000000E+00 0. -1.
         -3   -1    0    0    0  501 -0.00000000000E+00 -0.00000000000E+00 -0.43976175297E+02  0.43976175297E+02  0.00000000000E+00 0.  1.
         23    2    1    2    0    0  0.88887081158E+02  0.54910472071E+01  0.21464561429E+03  0.26493446325E+03  0.12722604013E+03 0.  0.
         23    2    1    2    0    0 -0.88887081158E+02 -0.54910472071E+01  0.19645370764E+03  0.23411720927E+03  0.91026060210E+02 0.  0.
          5    1    3    3  502    0  0.77147773103E+02 -0.25761884516E+02  0.21642513649E+03  0.23124179054E+03  0.41800000000E+01 0. -1.
         -5    1    3    3    0  502  0.11739308054E+02  0.31252931723E+02 -0.17795221982E+01  0.33692672707E+02  0.41800000000E+01 0.  1.
        -11    1    4    4    0    0 -0.10209208460E+03 -0.53959682621E+01  0.19581447796E+03  0.22089640104E+03  0.00000000000E+00 0.  1.
         11    1    4    4    0    0  0.13205003440E+02 -0.95078944915E-01  0.63922967420E+00  0.13220808237E+02  0.00000000000E+00 0. -1.
</event>
<event>
 8    1  0.5951278E-006  0.1386195E+03  0.7561462E-02  0.1215199E+00
         -2   -1    0    0    0  501 -0.00000000000E+00  0.00000000000E+00  0.36563164269E+03  0.36563164269E+03  0.00000000000E+00 0.  1.
          2   -1    0    0  501    0  0.00000000000E+00 -0.00000000000E+00 -0.67188453289E+02  0.67188453289E+02  0.00000000000E+00 0. -1.
         23    2    1    2    0    0 -0.18336744287E+02  0.86354512270E+02  0.26093963495E+03  0.30253988007E+03  0.12509015935E+03 0.  0.
         23    2    1    2    0    0  0.18336744287E+02 -0.86354512270E+02  0.37503554454E+02  0.13028021591E+03  0.88165072907E+02 0.  0.
          5    1    3    3  502    0 -0.50769319764E+02  0.10374901032E+03  0.20750808724E+03  0.23752570312E+03  0.41800000000E+01 0. -1.
         -5    1    3    3    0  502  0.32432575477E+02 -0.17394498048E+02  0.53431547709E+02  0.65014176954E+02  0.41800000000E+01 0. -1.
        -11    1    4    4    0    0 -0.19159254851E+02  0.97221474224E+01  0.88798094476E+01  0.23247542081E+02  0.00000000000E+00 0. -1.
         11    1    4    4    0    0  0.37495999138E+02 -0.96076659693E+02  0.28623745007E+02  0.10703267383E+03  0.00000000000E+00 0.  1.
</event>
<event>
 8    1  0.5951278E-006  0.9143527E+02  0.7561462E-02  0.1299413E+00
         -1   -1    0    0    0  501 -0.00000000000E+00  0.00000000000E+00  0.15405806330E+03  0.15405806330E+03  0.00000000000E+00 0.  1.
          1   -1    0    0  501    0  0.00000000000E+00 -0.00000000000E+00 -0.10347494361E+03  0.10347494361E+03  0.00000000000E+00 0. -1.
         23    2    1    2    0    0 -0.11627532091E+02 -0.60659529191E+02  0.38953709331E+02  0.14484319879E+03  0.12508949909E+03 0.  0.
         23    2    1    2    0    0  0.11627532091E+02  0.60659529191E+02  0.11629410355E+02  0.11268980812E+03  0.93535937930E+02 0.  0.
          5    1    3    3  502    0 -0.32250637778E+01 -0.87927879922E+02 -0.93549835516E+01  0.88581607692E+02  0.41800000000E+01 0.  1.
         -5    1    3    3    0  502 -0.84024683127E+01  0.27268350732E+02  0.48308692883E+02  0.56261591103E+02  0.41800000000E+01 0.  1.
        -11    1    4    4    0    0  0.17931928497E+02  0.32794862260E+02  0.51503814431E+02  0.63637252857E+02  0.00000000000E+00 0.  1.
         11    1    4    4    0    0 -0.63043964068E+01  0.27864666931E+02 -0.39874404076E+02  0.49052555261E+02  0.00000000000E+00 0. -1.
</event>
<event>
 8    1  0.5951278E-006  0.1115503E+03  0.7561462E-02  0.1257726E+00
         -2   -1    0    0    0  501 -0.00000000000E+00  0.00000000000E+00  0.32376471388E+02  0.32376471388E+02  0.00000000000E+00 0.  1.
          2   -1    0    0  501    0  0.00000000000E+00 -0.00000000000E+00 -0.43345612793E+03  0.43345612793E+03  0.00000000000E+00 0. -1.
         23    2    1    2    0    0  0.22265087486E+01  0.31783795505E+02 -0.15350392156E+03  0.20056598898E+03  0.12509234590E+03 0.  0.
         23    2    1    2    0    0 -0.22265087486E+01 -0.31783795505E+02 -0.24757573498E+03  0.26526661034E+03  0.89763372329E+02 0.  0.
          5    1    3    3  502    0 -0.19417770023E+02  0.76466408208E+02 -0.87896991857E+02  0.11818424157E+03  0.41800000000E+01 0.  1.
         -5    1    3    3    0  502  0.21644278772E+02 -0.44682612704E+02 -0.65606929707E+02  0.82381747415E+02  0.41800000000E+01 0.  1.
        -11    1    4    4    0    0 -0.45433733637E+02 -0.18652089967E+02 -0.14781884098E+03  0.15576435523E+03  0.00000000000E+00 0. -1.
         11    1    4    4    0    0  0.43207224889E+02 -0.13131705538E+02 -0.99756894005E+02  0.10950225511E+03  0.00000000000E+00 0.  1.
</event>
<event>
 8    1  0.5951278E-006  0.8980480E+02  0.7561462E-02  0.1303325E+00
          1   -1    0    0  501    0  0.00000000000E+00  0.00000000000E+00  0.92598719588E+02  0.92598719588E+02  0.00000000000E+00 0. -1.
         -1   -1    0    0    0  501 -0.00000000000E+00 -0.00000000000E+00 -0.12635678181E+03  0.12635678181E+03  0.00000000000E+00 0.  1.
         23    2    1    2    0    0 -0.15111348365E+01  0.23965430886E+02 -0.36885191363E+02  0.13260524205E+03  0.12508799891E+03 0.  0.
         23    2    1    2    0    0  0.15111348365E+01 -0.23965430886E+02  0.31271291393E+01  0.86350259353E+02  0.82885239625E+02 0.  0.
          5    1    3    3  502    0 -0.61634118105E+02  0.25814575666E+02 -0.22315837739E+02  0.70573549191E+02  0.41800000000E+01 0.  1.
         -5    1    3    3    0  502  0.60122983268E+02 -0.18491447798E+01 -0.14569353624E+02  0.62031692856E+02  0.41800000000E+01 0.  1.
        -11    1    4    4    0    0  0.29319926611E+00  0.14186394430E+02 -0.31667001987E+02  0.34700702696E+02  0.00000000000E+00 0.  1.
         11    1    4    4    0    0  0.12179355704E+01 -0.38151825316E+02  0.34794131127E+02  0.51649556657E+02  0.00000000000E+00 0. -1.
</event>
<event>
 8    1  0.5951278E-006  0.8772195E+02  0.7561462E-02  0.1308464E+00
          2   -1    0    0  501    0  0.00000000000E+00  0.00000000000E+00  0.28102134450E+03  0.28102134450E+03  0.00000000000E+00 0. -1.
         -2   -1    0    0    0  501 -0.00000000000E+00 -0.00000000000E+00 -0.59761211926E+02  0.59761211926E+02  0.00000000000E+00 0.  1.
         23    2    1    2    0    0  0.89892841011E+01  0.60180166123E+02  0.72296161959E+02  0.15676741994E+03  0.12508728671E+03 0.  0.
         23    2    1    2    0    0 -0.89892841011E+01 -0.60180166123E+02  0.14896397062E+03  0.18401513649E+03  0.89268394701E+02 0.  0.
          5    1    3    3  502    0  0.17818641523E+02  0.14878057042E+02  0.10002064150E+03  0.10276410703E+03  0.41800000000E+01 0.  1.
         -5    1    3    3    0  502 -0.88293574219E+01  0.45302109081E+02 -0.27724479540E+02  0.54003312912E+02  0.41800000000E+01 0.  1.
        -11    1    4    4    0    0  0.37330563346E+02 -0.40805530817E+02  0.97648449119E+02  0.11222246620E+03  0.00000000000E+00 0.  1.
         11    1    4    4    0    0 -0.46319847447E+02 -0.19374635306E+02  0.51315521501E+02  0.71792670292E+02  0.00000000000E+00 0. -1.
</event>
<event>
 8    1  0.5951278E-006  0.1156836E+03  0.7561462E-02  0.1250392E+00
         -1   -1    0    0    0  501 -0.00000000000E+00  0.00000000000E+00  0.10147147721E+04  0.10147147721E+04  0.00000000000E+00 0.  1.
          1   -1    0    0  501    0  0.00000000000E+00 -0.00000000000E+00 -0.21851805646E+02  0.21851805646E+02  0.00000000000E+00 0. -1.
         23    2    1    2    0    0  0.61723472041E+02 -0.28998642433E+02  0.80214135802E+03  0.81469530746E+03  0.12508787907E+03 0.  0.
         23    2    1    2    0    0 -0.61723472041E+02  0.28998642433E+02  0.19072160847E+03  0.22187127032E+03  0.90561693846E+02 0.  0.
          5    1    3    3  502    0  0.68324973004E+02 -0.70669884695E+02  0.61426979996E+03  0.62209918348E+03  0.41800000000E+01 0. -1.
         -5    1    3    3    0  502 -0.66015009628E+01  0.41671242263E+02  0.18787155806E+03  0.19259612399E+03  0.41800000000E+01 0. -1.
        -11    1    4    4    0    0 -0.71213221463E+02  0.13608160930E+02  0.19045517215E+03  0.20378831555E+03  0.00000000000E+00 0.  1.
         11    1    4    4    0    0  0.94897494226E+01  0.15390481503E+02  0.26643632091E+00  0.18082954773E+02  0.00000000000E+00 0. -1.
</event>
<event>
 8    1  0.5951278E-006  0.1874265E+03  0.7561462E-02  0.1160803E+00
         -4   -1    0    0    0  501 -0.00000000000E+00  0.00000000000E+00  0.45004704358E+02  0.45004704358E+02  0.00000000000E+00 0. -1.
          4   -1    0    0  501    0  0.00000000000E+00 -0.00000000000E+00 -0.88417437082E+03  0.88417437082E+03  0.00000000000E+00 0.  1.
         23    2    1    2    0    0  0.25578102418E+02  0.15859515228E+03 -0.36513104881E+03  0.41806137272E+03  0.12509183388E+03 0.  0.
         23    2    1    2    0    0 -0.25578102418E+02 -0.15859515228E+03 -0.47403861764E+03  0.51111770245E+03  0.10354725052E+03 0.  0.
          5    1    3    3  502    0  0.43441503071E+02  0.17415887864E+03 -0.32258716275E+03  0.36918617142E+03  0.41800000000E+01 0. -1.
         -5    1    3    3    0  502 -0.17863400653E+02 -0.15563726355E+02 -0.42543886061E+02  0.48875201300E+02  0.41800000000E+01 0. -1.
        -11    1    4    4    0    0  0.70324458803E+01 -0.12212503243E+03 -0.21381273955E+03  0.24633283670E+03  0.00000000000E+00 0. -1.
         11    1    4    4    0    0 -0.32610548299E+02 -0.36470119850E+02 -0.26022587810E+03  0.26478486575E+03  0.00000000000E+00 0.  1.
</event>
<event>
 8    1  0.5951278E-006  0.9176658E+02  0.7561462E-02  0.1298629E+00
          1   -1    0    0  501    0  0.00000000000E+00  0.00000000000E+00  0.12586403853E+03  0.12586403853E+03  0.00000000000E+00 0. -1.
         -1   -1    0    0    0  501 -0.00000000000E+00 -0.00000000000E+00 -0.97585422347E+02  0.97585422347E+02  0.00000000000E+00 0.  1.
         23    2    1    2    0    0  0.55816478282E+01 -0.20436495807E+02  0.29345783033E+00  0.12687350086E+03  0.12509194198E+03 0.  0.
         23    2    1    2    0    0 -0.55816478282E+01  0.20436495807E+02  0.27985158354E+02  0.96575960022E+02  0.89971894571E+02 0.  0.
          5    1    3    3  502    0  0.52050622888E+02  0.28180899812E+02 -0.29688791360E+01  0.59411422307E+02  0.41800000000E+01 0.  1.
         -5    1    3    3    0  502 -0.46468975059E+02 -0.48617395619E+02  0.32623369663E+01  0.67462078550E+02  0.41800000000E+01 0.  1.
        -11    1    4    4    0    0  0.28803501734E+01  0.37582325178E+02 -0.21592412768E+02  0.43439151374E+02  0.00000000000E+00 0.  1.
         11    1    4    4    0    0 -0.84619980015E+01 -0.17145829371E+02  0.49577571122E+02  0.53136808648E+02  0.00000000000E+00 0. -1.
</event>
<event>
 8    1  0.5951278E-006  0.2322314E+03  0.7561462E-02  0.1125079E+00
         -1   -1    0    0    0  501 -0.00000000000E+00  0.00000000000E+00  0.70348530198E+02  0.70348530198E+02  0.00000000000E+00 0.  1.
          1   -1    0    0  501    0  0.00000000000E+00 -0.00000000000E+00 -0.11122045907E+04  0.11122045907E+04  0.00000000000E+00 0. -1.
         23    2    1    2    0    0 -0.15024381432E+03  0.14756544395E+03 -0.21968486645E+03  0.32901946329E+03  0.12507438861E+03 0.  0.
         23    2    1    2    0    0  0.15024381432E+03 -0.14756544395E+03 -0.82217119406E+03  0.85353365761E+03  0.90584040229E+02 0.  0.
          5    1    3    3  502    0 -0.16452412766E+03  0.15667050561E+03 -0.19987828079E+03  0.30262623060E+03  0.41800000000E+01 0.  1.
         -5    1    3    3    0  502  0.14280313338E+02 -0.91050616583E+01 -0.19806585657E+02  0.26393232698E+02  0.41800000000E+01 0.  1.
        -11    1    4    4    0    0  0.46766313535E+02 -0.89890770651E+02 -0.50257562280E+03  0.51268869245E+03  0.00000000000E+00 0.  1.
         11    1    4    4    0    0  0.10347750079E+03 -0.57674673304E+02 -0.31959557126E+03  0.34084496516E+03  0.00000000000E+00 0. -1.
</event>
<event>
 8    1  0.5951278E-006  0.1238796E+03  0.7561462E-02  0.1236831E+00
          1   -1    0    0  501    0  0.00000000000E+00  0.00000000000E+00  0.26899118362E+03  0.26899118362E+03  0.00000000000E+00 0. -1.
         -1   -1    0    0    0  501 -0.00000000000E+00 -0.00000000000E+00 -0.58559367634E+02  0.58559367634E+02  0.00000000000E+00 0.  1.
         23    2    1    2    0    0  0.81326826157E+01 -0.62297991514E+02  0.10441161837E+03  0.17462821727E+03  0.12508416345E+03 0.  0.
         23    2    1    2    0    0 -0.81326826157E+01  0.62297991514E+02  0.10602019762E+03  0.15292233398E+03  0.90541579697E+02 0.  0.
          5    1    3    3  502    0 -0.43674501232E+01  0.36998957268E+02  0.43366408627E+02  0.57324647898E+02  0.41800000000E+01 0.  1.
         -5    1    3    3    0  502  0.12500132739E+02 -0.99296948782E+02  0.61045209739E+02  0.11730356937E+03  0.41800000000E+01 0.  1.
        -11    1    4    4    0    0 -0.39118544422E+02  0.68139536383E+02  0.72635209545E+02  0.10700061029E+03  0.00000000000E+00 0.  1.
         11    1    4    4    0    0  0.30985861807E+02 -0.58415448686E+01  0.33384988077E+02  0.45921723697E+02  0.00000000000E+00 0. -1.
</event>
<event>
 8    1  0.5951278E-006  0.8633933E+02  0.7561462E-02  0.1311967E+00
         -2   -1    0    0    0  501 -0.00000000000E+00  0.00000000000E+00  0.49441814522E+02  0.49441814522E+02  0.00000000000E+00 0.  1.
          2   -1    0    0  501    0  0.00000000000E+00 -0.00000000000E+00 -0.24180476500E+03  0.24180476500E+03  0.00000000000E+00 0. -1.
         23    2    1    2    0    0  0.13770707651E+02 -0.12542523235E+02 -0.11123260591E+03  0.16844102101E+03  0.12511090145E+03 0.  0.
         23    2    1    2    0    0 -0.13770707651E+02  0.12542523235E+02 -0.81130344562E+02  0.12280555851E+03  0.90289119574E+02 0.  0.
          5    1    3    3  502    0  0.66831330431E+02  0.49103541399E+01 -0.79516909000E+02  0.10407184788E+03  0.41800000000E+01 0.  1.
         -5    1    3    3    0  502 -0.53060622780E+02 -0.17452877375E+02 -0.31715696912E+02  0.64369173127E+02  0.41800000000E+01 0.  1.
        -11    1    4    4    0    0  0.14449111497E+02 -0.61190499328E+01  0.14501159305E+02  0.21365935887E+02  0.00000000000E+00 0.  1.
         11    1    4    4    0    0 -0.28219819148E+02  0.18661573168E+02 -0.95631503867E+02  0.10143962262E+03  0.00000000000E+00 0. -1.
</event>
<event>
 8    1  0.5951278E-006  0.1023447E+03  0.7561462E-02  0.1275441E+00
         -4   -1    0    0    0  501 -0.00000000000E+00  0.00000000000E+00  0.23921030021E+02  0.23921030021E+02  0.00000000000E+00 0.  1.
          4   -1    0    0  501    0  0.00000000000E+00 -0.00000000000E+00 -0.56181563812E+03  0.56181563812E+03  0.00000000000E+00 0. -1.
         23    2    1    2    0    0 -0.74284817190E+01 -0.40808545259E+02 -0.33282712304E+03  0.35797027017E+03  0.12509316843E+03 0.  0.
         23    2    1    2    0    0  0.74284817190E+01  0.40808545259E+02 -0.20506748506E+03  0.22776639797E+03  0.90024101824E+02 0.  0.
          5    1    3    3  502    0  0.30052029550E+02 -0.57012143336E+02 -0.29554659052E+03  0.30252069109E+03  0.41800000000E+01 0. -1.
         -5    1    3    3    0  502 -0.37480511269E+02  0.16203598077E+02 -0.37280532522E+02  0.55449579085E+02  0.41800000000E+01 0. -1.
        -11    1    4    4    0    0  0.46058195666E+02  0.39059514608E+02 -0.12110058597E+03  0.13532315024E+03  0.00000000000E+00 0.  1.
         11    1    4    4    0    0 -0.38629713947E+02  0.17490306516E+01 -0.83966899090E+02  0.92443247728E+02  0.00000000000E+00 0. -1.
</event>
<event>
 7    1  0.5951278E-006  0.1613945E+03  0.7561462E-02  0.1187131E+00
          4   -1    0    0  501    0  0.00000000000E+00  0.00000000000E+00  0.69630026749E+03  0.69630026749E+03  0.00000000000E+00 0. -1.
         -4   -1    0    0    0  501 -0.00000000000E+00 -0.00000000000E+00 -0.64430173363E+02  0.64430173363E+02  0.00000000000E+00 0.  1.
         23    2    1    2    0    0 -0.60829019200E+02  0.74493207951E+02  0.30282317382E+03  0.33090594599E+03  0.92452489867E+02 0.  0.
          5    1    1    2  502    0 -0.37187393214E+02  0.28579784487E+02  0.27276650742E+03  0.27680091450E+03  0.41800000000E+01 0. -1.
         -5    1    1    2    0  502  0.98016412414E+02 -0.10307299244E+03  0.56280412886E+02  0.15302358036E+03  0.41800000000E+01 0.  1.
        -11    1    3    3    0    0 -0.52226468415E+02 -0.58939223775E+01  0.11874372393E+03  0.12985535914E+03  0.00000000000E+00 0.  1.
         11    1    3    3    0    0 -0.86025507852E+01  0.80387130329E+02  0.18407944989E+03  0.20105058685E+03  0.00000000000E+00 0. -1.
</event>
<event>
 8    1  0.5951278E-006  0.8515487E+02  0.7561462E-02  0.1315028E+00
          2   -1    0    0  501    0  0.00000000000E+00  0.00000000000E+00  0.84524535711E+02  0.84524535711E+02  0.00000000000E+00 0. -1.
         -2   -1    0    0    0  501 -0.00000000000E+00 -0.00000000000E+00 -0.18065246521E+03  0.18065246521E+03  0.00000000000E+00 0.  1.
         23    2    1    2    0    0  0.12553820139E+02  0.56826684856E+02 -0.69668555705E+02  0.15454689516E+03  0.12507663506E+03 0.  0.
         23    2    1    2    0    0 -0.12553820139E+02 -0.56826684856E+02 -0.26459373798E+02  0.11063010576E+03  0.90288710961E+02 0.  0.
          5    1    3    3  502    0  0.49234780028E+02  0.41128240683E+02 -0.89179473137E+02  0.10993655705E+03  0.41800000000E+01 0. -1.
         -5    1    3    3    0  502 -0.36680959890E+02  0.15698444173E+02  0.19510917433E+02  0.44610338117E+02  0.41800000000E+01 0. -1.
        -11    1    4    4    0    0 -0.13805049376E+02 -0.59854580135E+01 -0.51706590875E+02  0.53851431140E+02  0.00000000000E+00 0.  1.
         11    1    4    4    0    0  0.12512292374E+01 -0.50841226843E+02  0.25247217077E+02  0.56778674620E+02  0.00000000000E+00 0. -1.
</event>
<event>
 8    1  0.5951278E-006  0.1182667E+03  0.7561462E-02  0.1245984E+00
         -4   -1    0    0    0  501 -0.00000000000E+00  0.00000000000E+00  0.76389096828E+02  0.76389096828E+02  0.00000000000E+00 0. -1.
          4   -1    0    0  501    0  0.00000000000E+00 -0.00000000000E+00 -0.22273899867E+03  0.22273899867E+03  0.00000000000E+00 0.  1.
         23    2    1    2    0    0  0.39908626178E+02  0.46503842685E+02 -0.40234738559E+02  0.14490112288E+03  0.12498878108E+03 0.  0.
         23    2    1    2    0    0 -0.39908626178E+02 -0.46503842685E+02 -0.10611516328E+03  0.15422697262E+03  0.93649481461E+02 0.  0.
          5    1    3    3  502    0  0.74197764596E+02  0.93320393459E+01 -0.53985266869E+02  0.92327009419E+02  0.41800000000E+01 0.  1.
         -5    1    3    3    0  502 -0.34289138418E+02  0.37171803339E+02  0.13750528310E+02  0.52574113456E+02  0.41800000000E+01 0.  1.
        -11    1    4    4    0    0  0.19808348879E+02 -0.47179843668E+02 -0.38646913460E+02  0.64124038034E+02  0.00000000000E+00 0. -1.
         11    1    4    4    0    0 -0.59716975057E+02  0.67600098311E+00 -0.67468249824E+02  0.90102934589E+02  0.00000000000E+00 0.  1.
</event>
<event>
 8    1  0.5951278E-006  0.7113928E+02  0.7561462E-02  0.1356261E+00
          1   -1    0    0  501    0  0.00000000000E+00  0.00000000000E+00  0.32619642393E+03  0.32619642393E+03  0.00000000000E+00 0. -1.
         -1   -1    0    0    0  501 -0.00000000000E+00 -0.00000000000E+00 -0.40486449584E+02  0.40486449584E+02  0.00000000000E+00 0.  1.
         23    2    1    2    0    0  0.40653911601E+02  0.21468272207E+02  0.15822408662E+03  0.20686468946E+03  0.12507801932E+03 0.  0.
         23    2    1    2    0    0 -0.40653911601E+02 -0.21468272207E+02  0.12748588772E+03  0.15981818406E+03  0.84708754838E+02 0.  0.
          5    1    3    3  502    0  0.10084561685E+02 -0.43039444719E+01  0.16558036281E+03  0.16599563630E+03  0.41800000000E+01 0.  1.
         -5    1    3    3    0  502  0.30569349915E+02  0.25772216679E+02 -0.73562761862E+01  0.40869053159E+02  0.41800000000E+01 0.  1.
        -11    1    4    4    0    0 -0.25120911404E+02  0.28514587257E+02  0.27325000534E+02  0.46805956143E+02  0.00000000000E+00 0.  1.
         11    1    4    4    0    0 -0.15533000196E+02 -0.49982859464E+02  0.10016088719E+03  0.11301222791E+03  0.00000000000E+00 0. -1.
</event>
<event>
 7    1  0.5951278E-006  0.4626007E+03  0.7561462E-02  0.1024030E+00
         -2   -1    0    0    0  501 -0.00000000000E+00  0.00000000000E+00  0.22904978095E+03  0.22904978095E+03  0.00000000000E+00 0.  1.
          2   -1    0    0  501    0  0.00000000000E+00 -0.00000000000E+00 -0.11886276788E+04  0.11886276788E+04  0.00000000000E+00 0. -1.
         23    2    1    2    0    0  0.30488700861E+02 -0.45486402815E+03 -0.41143721162E+03  0.62284622257E+03  0.10404803161E+03 0.  0.
          5    1    1    2  502    0  0.16637319441E+02  0.25217209244E+02 -0.28952748397E+03  0.29112942897E+03  0.41800000000E+01 0. -1.
         -5    1    1    2    0  502 -0.47126020302E+02  0.42964681891E+03 -0.25861320221E+03  0.50370180816E+03  0.41800000000E+01 0.  1.
        -11    1    3    3    0    0  0.56977398081E+02 -0.30944816703E+03 -0.23525624085E+03  0.39287414120E+03  0.00000000000E+00 0.  1.
         11    1    3    3    0    0 -0.26488697220E+02 -0.14541586112E+03 -0.17618097078E+03  0.22997208137E+03  0.00000000000E+00 0. -1.
</event>
<event>
 8    1  0.5951278E-006  0.1020472E+03  0.7561462E-02  0.1276049E+00
          2   -1    0    0  501    0  0.00000000000E+00  0.00000000000E+00  0.11016938074E+03  0.11016938074E+03  0.00000000000E+00 0. -1.
         -2   -1    0    0    0  501 -0.00000000000E+00 -0.00000000000E+00 -0.11992345559E+03  0.11992345559E+03  0.00000000000E+00 0.  1.
         23    2    1    2    0    0 -0.18023247518E+02  0.33983910932E+02 -0.75404225848E+01  0.13108874731E+03  0.12509059934E+03 0.  0.
         23    2    1    2    0    0  0.18023247518E+02 -0.33983910932E+02 -0.22136522577E+01  0.99004089021E+02  0.91198496332E+02 0.  0.
          5    1    3    3  502    0  0.39425319372E+01 -0.35738592702E+02  0.31611892789E+02  0.48058035042E+02  0.41800000000E+01 0.  1.
         -5    1    3    3    0  502 -0.21965779455E+02  0.69722503634E+02 -0.39152315374E+02  0.83030712265E+02  0.41800000000E+01 0.  1.
        -11    1    4    4    0    0  0.44245084975E+02  0.82083057471E+01 -0.15477207469E+02  0.47587264880E+02  0.00000000000E+00 0. -1.
         11    1    4    4    0    0 -0.26221837457E+02 -0.42192216679E+02  0.13263555211E+02  0.51416824141E+02  0.00000000000E+00 0.  1.
</event>
<event>
 8    1  0.5951278E-006  0.1429992E+03  0.7561462E-02  0.1209349E+00
          1   -1    0    0  501    0  0.00000000000E+00  0.00000000000E+00  0.48599899315E+03  0.48599899315E+03  0.00000000000E+00 0. -1.
         -1   -1    0    0    0  501 -0.00000000000E+00 -0.00000000000E+00 -0.51045513757E+02  0.51045513757E+02  0.00000000000E+00 0.  1.
         23    2    1    2    0    0  0.15538418888E+02 -0.99102289856E+02  0.13608609128E+03  0.21030912251E+03  0.12509115259E+03 0.  0.
         23    2    1    2    0    0 -0.15538418888E+02  0.99102289856E+02  0.29886738811E+03  0.32673538440E+03  0.85857960741E+02 0.  0.
          5    1    3    3  502    0 -0.85288272672E+01 -0.12461827983E+03  0.10409713632E+03  0.16265344371E+03  0.41800000000E+01 0.  1.
         -5    1    3    3    0  502  0.24067246155E+02  0.25515989976E+02  0.31988954964E+02  0.47655678798E+02  0.41800000000E+01 0.  1.
        -11    1    4    4    0    0 -0.42452895909E+02  0.85676595420E+02  0.17661217704E+03  0.20083472920E+03  0.00000000000E+00 0.  1.
         11    1    4    4    0    0  0.26914477021E+02  0.13425694436E+02  0.12225521107E+03  0.12590065520E+03  0.00000000000E+00 0. -1.
</event>
<event>
 8    1  0.5951278E-006  0.1003588E+03  0.7561462E-02  0.1279543E+00
          2   -1    0    0  501    0  0.00000000000E+00  0.00000000000E+00  0.76428740547E+02  0.76428740547E+02  0.00000000000E+00 0. -1.
         -2   -1    0    0    0  501 -0.00000000000E+00 -0.00000000000E+00 -0.23402702192E+03  0.23402702192E+03  0.00000000000E+00 0.  1.
         23    2    1    2    0    0 -0.55918793445E+02  0.70275789712E+01 -0.14904843109E+03  0.20258809295E+03  0.12510076846E+03 0.  0.
         23    2    1    2    0    0  0.55918793445E+02 -0.70275789712E+01 -0.85498502848E+01  0.10786766951E+03  0.91575301583E+02 0.  0.
          5    1    3    3  502    0 -0.51838357913E+02 -0.54508145795E+02 -0.84829657804E+02  0.11345438093E+03  0.41800000000E+01 0. -1.
         -5    1    3    3    0  502 -0.40804355321E+01  0.61535724766E+02 -0.64218773281E+02  0.89133712019E+02  0.41800000000E+01 0. -1.
        -11    1    4    4    0    0  0.11392560242E+02 -0.14476920647E+02 -0.45782419983E+02  0.49349788650E+02  0.00000000000E+00 0.  1.
         11    1    4    4    0    0  0.44526233203E+02  0.74493416754E+01  0.37232569698E+02  0.58517880865E+02  0.00000000000E+00 0. -1.
</event>
<event>
 8    1  0.5951278E-006  0.1467985E+03  0.7561462E-02  0.1204463E+00
         -1   -1    0    0    0  501 -0.00000000000E+00  0.00000000000E+00  0.12690675618E+04  0.12690675618E+04  0.00000000000E+00 0.  1.
          1   -1    0    0  501    0  0.00000000000E+00 -0.00000000000E+00 -0.17718079515E+02  0.17718079515E+02  0.00000000000E+00 0. -1.
         23    2    1    2    0    0 -0.94674387447E+02  0.30380039277E+02  0.79923278656E+03  0.81505126081E+03  0.12509725899E+03 0.  0.
         23    2    1    2    0    0  0.94674387447E+02 -0.30380039277E+02  0.45211669576E+03  0.47173438055E+03  0.90761405769E+02 0.  0.
          5    1    3    3  502    0 -0.75942578792E+02 -0.40358722985E+02  0.40283409050E+03  0.41193309975E+03  0.41800000000E+01 0.  1.
         -5    1    3    3    0  502 -0.18731808655E+02  0.70738762262E+02  0.39639869606E+03  0.40311816106E+03  0.41800000000E+01 0.  1.
        -11    1    4    4    0    0  0.41031652337E+01 -0.42608538532E+02  0.12724293307E+03  0.13425009324E+03  0.00000000000E+00 0.  1.
         11    1    4    4    0    0  0.90571222214E+02  0.12228499255E+02  0.32487376270E+03  0.33748428730E+03  0.00000000000E+00 0. -1.
</event>
<event>
 8    1  0.5951278E-006  0.1111588E+03  0.7561462E-02  0.1258439E+00
         -1   -1    0    0    0  501 -0.00000000000E+00  0.00000000000E+00  0.30622614336E+02  0.30622614336E+02  0.00000000000E+00 0.  1.
          1   -1    0    0  501    0  0.00000000000E+00 -0.00000000000E+00 -0.47600936229E+03  0.47600936229E+03  0.00000000000E+00 0. -1.
         23    2    1    2    0    0  0.76230674015E-01 -0.52164047734E+02 -0.21163838434E+03  0.25131537017E+03  0.12509003105E+03 0.  0.
         23    2    1    2    0    0 -0.76230674015E-01  0.52164047734E+02 -0.23374836362E+03  0.25531660646E+03  0.88471342003E+02 0.  0.
          5    1    3    3  502    0 -0.37223825257E+02 -0.69025541680E+02 -0.74917032691E+02  0.10853650427E+03  0.41800000000E+01 0. -1.
         -5    1    3    3    0  502  0.37300055931E+02  0.16861493947E+02 -0.13672135165E+03  0.14277886590E+03  0.41800000000E+01 0. -1.
        -11    1    4    4    0    0 -0.43335460593E+02  0.15807731414E+02 -0.10043991563E+03  0.11052611985E+03  0.00000000000E+00 0.  1.
         11    1    4    4    0    0  0.43259229919E+02  0.36356316319E+02 -0.13330844798E+03  0.14479048661E+03  0.00000000000E+00 0. -1.
</event>
<event>
 8    1  0.5951278E-006  0.1209730E+03  0.7561462E-02  0.1241501E+00
         -1   -1    0    0    0  501 -0.00000000000E+00  0.00000000000E+00  0.25396916362E+03  0.25396916362E+03  0.00000000000E+00 0.  1.
          1   -1    0    0  501    0  0.00000000000E+00 -0.00000000000E+00 -0.14708477084E+03  0.14708477084E+03  0.00000000000E+00 0. -1.
         23    2    1    2    0    0  0.55737335547E+02 -0.90310699783E+02  0.18434016940E+03  0.24676291673E+03  0.12509183007E+03 0.  0.
         23    2    1    2    0    0 -0.55737335547E+02  0.90310699783E+02 -0.77455776621E+02  0.15429101773E+03  0.80892816440E+02 0.  0.
          5    1    3    3  502    0  0.59691381514E+02 -0.18465217388E+02  0.15811549847E+03  0.17006471867E+03  0.41800000000E+01 0.  1.
         -5    1    3    3    0  502 -0.39540459668E+01 -0.71845482395E+02  0.26224670931E+02  0.76698198059E+02  0.41800000000E+01 0.  1.
        -11    1    4    4    0    0 -0.96250365406E+01  0.28846104146E+02  0.15136364195E+02  0.33968346646E+02  0.00000000000E+00 0.  1.
         11    1    4    4    0    0 -0.46112299007E+02  0.61464595637E+02 -0.92592140815E+02  0.12032267109E+03  0.00000000000E+00 0. -1.
</event>
<event>
 8    1  0.5951278E-006  0.1191642E+03  0.7561462E-02  0.1244482E+00
          1   -1    0    0  501    0  0.00000000000E+00  0.00000000000E+00  0.60184288648E+02  0.60184288648E+02  0.00000000000E+00 0. -1.
         -1   -1    0    0    0  501 -0.00000000000E+00 -0.00000000000E+00 -0.47814725675E+03  0.47814725675E+03  0.00000000000E+00 0.  1.
         23    2    1    2    0    0 -0.47221514692E+02  0.55230553025E+02 -0.39190880205E+03  0.41775668636E+03  0.12509138436E+03 0.  0.
         23    2    1    2    0    0  0.47221514692E+02 -0.55230553025E+02 -0.26054166053E+02  0.12057485903E+03  0.92623925771E+02 0.  0.
          5    1    3    3  502    0 -0.68511521414E+02  0.69025817885E+02 -0.37390578143E+03  0.38636950952E+03  0.41800000000E+01 0. -1.
         -5    1    3    3    0  502  0.21290006722E+02 -0.13795264860E+02 -0.18003020623E+02  0.31387176846E+02  0.41800000000E+01 0. -1.
        -11    1    4    4    0    0  0.20202591542E+02 -0.77605999364E+02 -0.66073253170E+01  0.80464231744E+02  0.00000000000E+00 0.  1.
         11    1    4    4    0    0  0.27018923149E+02  0.22375446339E+02 -0.19446840737E+02  0.40110627291E+02  0.00000000000E+00 0. -1.
</event>
<event>
 7    1  0.5951278E-006  0.6365135E+02  0.7561462E-02  0.1383118E+00
         -2   -1    0    0    0  501 -0.00000000000E+00  0.00000000000E+00  0.90158493683E+02  0.90158493683E+02  0.00000000000E+00 0.  1.
          2   -1    0    0  501    0  0.00000000000E+00 -0.00000000000E+00 -0.10321021247E+03  0.10321021247E+03  0.00000000000E+00 0. -1.
         23    2    1    2    0    0 -0.21846725683E+02 -0.15693138576E+02  0.23544984468E+02  0.13009918466E+03  0.12509147667E+03 0.  0.
          5    1    3    3  502    0 -0.56519672796E+02 -0.27490690912E+02 -0.26169116122E+02  0.68209284840E+02  0.41800000000E+01 0. -1.
         -5    1    3    3    0  502  0.34672947113E+02  0.11797552336E+02  0.49714100590E+02  0.61889899823E+02  0.41800000000E+01 0. -1.
        -11    1    1    2    0    0  0.14915653820E+02  0.74256536575E+01  0.72092616278E+01  0.18154627904E+02  0.00000000000E+00 0.  1.
         11    1    1    2    0    0  0.69310718631E+01  0.82674849182E+01 -0.43805964881E+02  0.45114893585E+02  0.00000000000E+00 0. -1.
</event>
<event>
 8    1  0.5951278E-006  0.1413571E+03  0.7561462E-02  0.1211514E+00
          2   -1    0    0  501    0  0.00000000000E+00  0.00000000000E+00  0.17443894511E+03  0.17443894511E+03  0.00000000000E+00 0. -1.
         -2   -1    0    0    0  501 -0.00000000000E+00 -0.00000000000E+00 -0.12996628259E+03  0.12996628259E+03  0.00000000000E+00 0.  1.
         23    2    1    2    0    0 -0.95407688727E+02  0.19898060181E+02 -0.38080498791E+01  0.15862026761E+03  0.12508928086E+03 0.  0.
         23    2    1    2    0    0  0.95407688727E+02 -0.19898060181E+02  0.48280712405E+02  0.14578496009E+03  0.97075576383E+02 0.  0.
          5    1    3    3  502    0 -0.46609481545E+01  0.49314670923E+02 -0.31925624152E+02  0.59079430290E+02  0.41800000000E+01 0. -1.
         -5    1    3    3    0  502 -0.90746740573E+02 -0.29416610742E+02  0.28117574273E+02  0.99540837324E+02  0.41800000000E+01 0. -1.
        -11    1    4    4    0    0  0.11199488269E+03 -0.50304136591E+00  0.37919827019E+02  0.11824136366E+03  0.00000000000E+00 0. -1.
         11    1    4    4    0    0 -0.16587193959E+02 -0.19395018815E+02  0.10360885385E+02  0.27543596429E+02  0.00000000000E+00 0.  1.
</event>
<event>
 8    1  0.5951278E-006  0.7704817E+02  0.7561462E-02  0.1337643E+00
         -2   -1    0    0    0  501 -0.00000000000E+00  0.00000000000E+00  0.27018349320E+03  0.27018349320E+03  0.00000000000E+00 0.  1.
          2   -1    0    0  501    0  0.00000000000E+00 -0.00000000000E+00 -0.98349686261E+02  0.98349686261E+02  0.00000000000E+00 0. -1.
         23    2    1    2    0    0 -0.33526362840E+02  0.48444576672E+02  0.21264235369E+03  0.25364187229E+03  0.12508610947E+03 0.  0.
         23    2    1    2    0    0  0.33526362840E+02 -0.48444576672E+02 -0.40808546756E+02  0.11489130717E+03  0.89798557673E+02 0.  0.
          5    1    3    3  502    0  0.23563052458E+02  0.13020850794E+02  0.17380108039E+03  0.17592341499E+03  0.41800000000E+01 0. -1.
         -5    1    3    3    0  502 -0.57089415298E+02  0.35423725878E+02  0.38841273306E+02  0.77718457307E+02  0.41800000000E+01 0. -1.
        -11    1    4    4    0    0  0.14288287585E+02 -0.13561092466E+02  0.28680034327E+02  0.34793717249E+02  0.00000000000E+00 0.  1.
         11    1    4    4    0    0  0.19238075256E+02 -0.34883484206E+02 -0.69488581083E+02  0.80097589919E+02  0.00000000000E+00 0. -1.
</event>
<event>
 8    1  0.5951278E-006  0.1203078E+03  0.7561462E-02  0.1242590E+00
         -1   -1    0    0    0  501 -0.00000000000E+00  0.00000000000E+00  0.11097920227E+03  0.11097920227E+03  0.00000000000E+00 0.  1.
          1   -1    0    0  501    0  0.00000000000E+00 -0.00000000000E+00 -0.16411232340E+03  0.16411232340E+03  0.00000000000E+00 0. -1.
         23    2    1    2    0    0  0.34919053516E+02  0.55824829375E+02  0.15310543702E+02  0.14219035797E+03  0.12509169947E+03 0.  0.
         23    2    1    2    0    0 -0.34919053516E+02 -0.55824829375E+02 -0.68443664840E+02  0.13290116770E+03  0.92964688173E+02 0.  0.
          5    1    3    3  502    0 -0.21279793729E+02 -0.26582661302E+02  0.24167699537E+02  0.41964480265E+02  0.41800000000E+01 0. -1.
         -5    1    3    3    0  502  0.56198847245E+02  0.82407490677E+02 -0.88571558351E+01  0.10022587770E+03  0.41800000000E+01 0. -1.
        -11    1    4    4    0    0  0.25043041059E+02 -0.34924241375E+02 -0.51702784667E+02  0.67231201710E+02  0.00000000000E+00 0. -1.
         11    1    4    4    0    0 -0.59962094575E+02 -0.20900588000E+02 -0.16740880174E+02  0.65669965994E+02  0.00000000000E+00 0.  1.
</event>
<event>
 8    1  0.5951278E-006  0.1161573E+03  0.7561462E-02  0.1249574E+00
         -1   -1    0    0    0  501 -0.00000000000E+00  0.00000000000E+00  0.35451251550E+02  0.35451251550E+02  0.00000000000E+00 0.  1.
          1   -1    0    0  501    0  0.00000000000E+00 -0.00000000000E+00 -0.50851498690E+03  0.50851498690E+03  0.00000000000E+00 0. -1.
         23    2    1    2    0    0 -0.46594916247E+02 -0.58716880704E+02 -0.30089478408E+03  0.33436320484E+03  0.12506927428E+03 0.  0.
         23    2    1    2    0    0  0.46594916247E+02  0.58716880704E+02 -0.17216895127E+03  0.20960303360E+03  0.93126395908E+02 0.  0.
          5    1    3    3  502    0 -0.53173425490E+02 -0.88946140527E+02 -0.27464850507E+03  0.29357810346E+03  0.41800000000E+01 0.  1.
         -5    1    3    3    0  502  0.65785092433E+01  0.30229259823E+02 -0.26246279008E+02  0.40785101386E+02  0.41800000000E+01 0.  1.
        -11    1    4    4    0    0  0.23899613868E+01  0.52720145999E+02 -0.30230619400E+02  0.60819536819E+02  0.00000000000E+00 0.  1.
         11    1    4    4    0    0  0.44204954860E+02  0.59967347050E+01 -0.14193833187E+03  0.14878349678E+03  0.00000000000E+00 0. -1.
</event>
<event>
 8    1  0.5951278E-006  0.1567162E+03  0.7561462E-02  0.1192455E+00
         -2   -1    0    0    0  501 -0.00000000000E+00  0.00000000000E+00  0.43874302047E+02  0.43874302047E+02  0.00000000000E+00 0. -1.
          2   -1    0    0  501    0  0.00000000000E+00 -0.00000000000E+00 -0.71070701686E+03  0.71070701686E+03  0.00000000000E+00 0.  1.
         23    2    1    2    0    0  0.11169982197E+03  0.52251317338E+02 -0.21883720284E+03  0.28061405428E+03  0.12508987058E+03 0.  0.
         23    2    1    2    0    0 -0.11169982197E+03 -0.52251317338E+02 -0.44799551196E+03  0.47396726462E+03  0.93476942618E+02 0.  0.
          5    1    3    3  502    0 -0.26483217461E+02  0.17404300466E+02 -0.28673475242E+02  0.42940785557E+02  0.41800000000E+01 0. -1.
         -5    1    3    3    0  502  0.13818303943E+03  0.34847016872E+02 -0.19016372760E+03  0.23767326872E+03  0.41800000000E+01 0. -1.
        -11    1    4    4    0    0 -0.10095493430E+03 -0.17420657946E+02 -0.40423401660E+03  0.41701381063E+03  0.00000000000E+00 0.  1.
         11    1    4    4    0    0 -0.10744887666E+02 -0.34830659392E+02 -0.43761495368E+02  0.56953453991E+02  0.00000000000E+00 0. -1.
</event>
<event>
 7    1  0.5951278E-006  0.1172764E+03  0.7561462E-02  0.1247659E+00
          2   -1    0    0  501    0  0.00000000000E+00  0.00000000000E+00  0.40217987446E+03  0.40217987446E+03  0.00000000000E+00 0. -1.
         -2   -1    0    0    0  501 -0.00000000000E+00 -0.00000000000E+00 -0.49081098107E+02  0.49081098107E+02  0.00000000000E+00 0.  1.
         23    2    1    2    0    0 -0.27221173974E+02 -0.34793014210E+02  0.12473531034E+03  0.15362020597E+03  0.78030275438E+02 0.  0.
          5    1    1    2  502    0 -0.73834906828E+01 -0.52685215476E+02  0.30617645135E+01  0.53451797597E+02  0.41800000000E+01 0. -1.
         -5    1    1    2    0  502  0.34604664656E+02  0.87478229686E+02  0.22530170150E+03  0.24418896900E+03  0.41800000000E+01 0.  1.
        -11    1    3    3    0    0 -0.26372724151E+02 -0.58044544246E+02  0.10622285600E+03  0.12388698411E+03  0.00000000000E+00 0. -1.
         11    1    3    3    0    0 -0.84844982276E+00  0.23251530036E+02  0.18512454344E+02  0.29733221856E+02  0.00000000000E+00 0.  1.
</event>
<event>
 8    1  0.5951278E-006  0.1083113E+03  0.7561462E-02  0.1263729E+00
         -1   -1    0    0    0  501 -0.00000000000E+00  0.00000000000E+00  0.22798085431E+02  0.22798085431E+02  0.00000000000E+00 0.  1.
          1   -1    0    0  501    0  0.00000000000E+00 -0.00000000000E+00 -0.53526428124E+03  0.53526428124E+03  0.00000000000E+00 0. -1.
         23    2    1    2    0    0  0.20720687672E+02  0.24601865783E+02 -0.25908519262E+03  0.28410677391E+03  0.11205767822E+03 0.  0.
         23    2    1    2    0    0 -0.20720687672E+02 -0.24601865783E+02 -0.25338100319E+03  0.27395559276E+03  0.99071364847E+02 0.  0.
          5    1    3    3  502    0 -0.15681003534E+01 -0.43686844087E+02 -0.83351706613E+02  0.94212412559E+02  0.41800000000E+01 0. -1.
         -5    1    3    3    0  502  0.22288788026E+02  0.68288709870E+02 -0.17573348601E+03  0.18989436135E+03  0.41800000000E+01 0.  1.
        -11    1    4    4    0    0 -0.33087860082E+01  0.36790439613E+02 -0.61490943732E+02  0.71732981765E+02  0.00000000000E+00 0.  1.
         11    1    4    4    0    0 -0.17411901664E+02 -0.61392305396E+02 -0.19189005945E+03  0.20222261100E+03  0.00000000000E+00 0. -1.
</event>
<event>
 8    1  0.5951278E-006  0.1585527E+03  0.7561462E-02  0.1190341E+00
         -2   -1    0    0    0  501 -0.00000000000E+00  0.00000000000E+00  0.23035632801E+04  0.23035632801E+04  0.00000000000E+00 0.  1.
          2   -1    0    0  501    0  0.00000000000E+00 -0.00000000000E+00 -0.17736075204E+02  0.17736075204E+02  0.00000000000E+00 0. -1.
         23    2    1    2    0    0 -0.11692400095E+03 -0.65612596507E+02  0.17592257004E+04  0.17687555794E+04  0.12507997427E+03 0.  0.
         23    2    1    2    0    0  0.11692400095E+03  0.65612596507E+02  0.52660150448E+03  0.55254377587E+03  0.10009617832E+03 0.  0.
          5    1    3    3  502    0  0.20833477489E+02 -0.35159102490E+02  0.32025346723E+03  0.32287761140E+03  0.41800000000E+01 0.  1.
         -5    1    3    3    0  502 -0.13775747844E+03 -0.30453494017E+02  0.14389722332E+04  0.14458779680E+04  0.41800000000E+01 0.  1.
        -11    1    4    4    0    0  0.81216920001E+02  0.53135613866E+02  0.49133575647E+03  0.50082971871E+03  0.00000000000E+00 0.  1.
         11    1    4    4    0    0  0.35707080946E+02  0.12476982641E+02  0.35265748016E+02  0.51714057167E+02  0.00000000000E+00 0. -1.
</event>
<event>
 8    1  0.5951278E-006  0.1021819E+03  0.7561462E-02  0.1275773E+00
          2   -1    0    0  501    0  0.00000000000E+00  0.00000000000E+00  0.93013995098E+03  0.93013995098E+03  0.00000000000E+00 0. -1.
         -2   -1    0    0    0  501 -0.00000000000E+00 -0.00000000000E+00 -0.15616792535E+02  0.15616792535E+02  0.00000000000E+00 0.  1.
         23    2    1    2    0    0 -0.45406895460E+02 -0.16671859655E+02  0.43159606094E+03  0.45195434906E+03  0.12509131369E+03 0.  0.
         23    2    1    2    0    0  0.45406895460E+02  0.16671859655E+02  0.48292709751E+03  0.49380239445E+03  0.91008165569E+02 0.  0.
          5    1    3    3  502    0 -0.10658943327E+02  0.36275179659E+02  0.39814599394E+02  0.55065201871E+02  0.41800000000E+01 0. -1.
         -5    1    3    3    0  502 -0.34747952134E+02 -0.52947039314E+02  0.39178146154E+03  0.39688914719E+03  0.41800000000E+01 0. -1.
        -11    1    4    4    0    0  0.53913228573E+02 -0.25638537845E+02  0.29562151231E+03  0.30158920634E+03  0.00000000000E+00 0.  1.
         11    1    4    4    0    0 -0.85063331130E+01  0.42310397500E+02  0.18730558520E+03  0.19221318812E+03  0.00000000000E+00 0. -1.
</event>
<event>
 8    1  0.5951278E-006  0.8652652E+02  0.7561462E-02  0.1311488E+00
         -2   -1    0    0    0  501 -0.00000000000E+00  0.00000000000E+00  0.12832724040E+03  0.12832724040E+03  0.00000000000E+00 0.  1.
          2   -1    0    0  501    0  0.00000000000E+00 -0.00000000000E+00 -0.94897918035E+02  0.94897918035E+02  0.00000000000E+00 0. -1.
         23    2    1    2    0    0 -0.10299683376E+02  0.40579804001E+02  0.75312716374E+02  0.14036228245E+03  0.11080054655E+03 0.  0.
         23    2    1    2    0    0  0.10299683376E+02 -0.40579804001E+02 -0.41883394006E+02  0.82862875992E+02  0.57958895381E+02 0.  0.
          5    1    3    3  502    0  0.39626412539E+02 -0.91027064699E+01  0.51813099880E+02  0.65993799368E+02  0.41800000000E+01 0. -1.
         -5    1    3    3    0  502 -0.49926095915E+02  0.49682510471E+02  0.23499616494E+02  0.74368483078E+02  0.41800000000E+01 0.  1.
        -11    1    4    4    0    0  0.12040397021E+01 -0.49126442108E+02 -0.12157003711E+02  0.50622621081E+02  0.00000000000E+00 0. -1.
         11    1    4    4    0    0  0.90956436742E+01  0.85466381071E+01 -0.29726390295E+02  0.32240254911E+02  0.00000000000E+00 0.  1.
</event>
<event>
 7    1  0.5951278E-006  0.1439915E+03  0.7561462E-02  0.1208057E+00
         -2   -1    0    0    0  501 -0.00000000000E+00  0.00000000000E+00  0.69377331825E+02  0.69377331825E+02  0.00000000000E+00 0.  1.
          2   -1    0    0  501    0  0.00000000000E+00 -0.00000000000E+00 -0.57186802761E+03  0.57186802761E+03  0.00000000000E+00 0. -1.
         23    2    1    2    0    0  0.36640555560E+02  0.56908724773E+02 -0.42353868763E+03  0.43835592545E+03  0.90497315930E+02 0.  0.
          5    1    1    2  502    0  0.49182625226E+02  0.28244304344E+02 -0.55896112767E+02  0.79740323391E+02  0.41800000000E+01 0. -1.
         -5    1    1    2    0  502 -0.85823180786E+02 -0.85153029117E+02 -0.23055895387E+02  0.12314911059E+03  0.41800000000E+01 0.  1.
        -11    1    3    3    0    0  0.57515860554E+02  0.65850512473E+02 -0.28976635873E+03  0.30266963320E+03  0.00000000000E+00 0. -1.
         11    1    3    3    0    0 -0.20875304994E+02 -0.89417876998E+01 -0.13377232890E+03  0.13568629225E+03  0.00000000000E+00 0.  1.
</event>
<event>
 8    1  0.5951278E-006  0.2144653E+03  0.7561462E-02  0.1138078E+00
          2   -1    0    0  501    0  0.00000000000E+00  0.00000000000E+00  0.73018769802E+03  0.73018769802E+03  0.00000000000E+00 0. -1.
         -2   -1    0    0    0  501 -0.00000000000E+00 -0.00000000000E+00 -0.65385366571E+02  0.65385366571E+02  0.00000000000E+00 0.  1.
         23    2    1    2    0    0 -0.15503060745E+03  0.10978989632E+03  0.29074122651E+03  0.36914332228E+03  0.12509205017E+03 0.  0.
         23    2    1    2    0    0  0.15503060745E+03 -0.10978989632E+03  0.37406110495E+03  0.42642974231E+03  0.76369524773E+02 0.  0.
          5    1    3    3  502    0 -0.48236035892E+02  0.10694607677E+03  0.18253948402E+03  0.21703067553E+03  0.41800000000E+01 0.  1.
         -5    1    3    3    0  502 -0.10679457156E+03  0.28438195475E+01  0.10820174248E+03  0.15211264675E+03  0.41800000000E+01 0.  1.
        -11    1    4    4    0    0  0.16245627704E+03 -0.95316702795E+02  0.34011255363E+03  0.38878511406E+03  0.00000000000E+00 0. -1.
         11    1    4    4    0    0 -0.74256695840E+01 -0.14473193524E+02  0.33948551315E+02  0.37644628248E+02  0.00000000000E+00 0.  1.
</event>
<event>
 8    1  0.5951278E-006  0.1497329E+03  0.7561462E-02  0.1200802E+00
          2   -1    0    0  501    0  0.00000000000E+00  0.00000000000E+00  0.28159941485E+03  0.28159941485E+03  0.00000000000E+00 0. -1.
         -2   -1    0    0    0  501 -0.00000000000E+00 -0.00000000000E+00 -0.13845029324E+03  0.13845029324E+03  0.00000000000E+00 0.  1.
         23    2    1    2    0    0 -0.45468827693E+02  0.10187495265E+03 -0.53687589447E+02  0.17599379457E+03  0.12508212581E+03 0.  0.
         23    2    1    2    0    0  0.45468827693E+02 -0.10187495265E+03  0.19683671105E+03  0.24405591352E+03  0.91502337883E+02 0.  0.
          5    1    3    3  502    0  0.37784154081E+00  0.11778274846E+03 -0.46765116783E+02  0.12679655811E+03  0.41800000000E+01 0.  1.
         -5    1    3    3    0  502 -0.45846669234E+02 -0.15907795816E+02 -0.69224726640E+01  0.49197236461E+02  0.41800000000E+01 0.  1.
        -11    1    4    4    0    0 -0.40913851692E+01 -0.77612039093E+02  0.65650083226E+02  0.10173643139E+03  0.00000000000E+00 0.  1.
         11    1    4    4    0    0  0.49560212862E+02 -0.24262913554E+02  0.13118662783E+03  0.14231948213E+03  0.00000000000E+00 0. -1.
</event>
<event>
 8    1  0.5951278E-006  0.1161587E+03  0.7561462E-02  0.1249572E+00
          1   -1    0    0  501    0  0.00000000000E+00  0.00000000000E+00  0.35127069971E+03  0.35127069971E+03  0.00000000000E+00 0. -1.
         -1   -1    0    0    0  501 -0.00000000000E+00 -0.00000000000E+00 -0.57447634234E+02  0.57447634234E+02  0.00000000000E+00 0.  1.
         23    2    1    2    0    0  0.61890867613E+01 -0.91877307867E+02  0.18913918462E+03  0.24474595044E+03  0.12508878688E+03 0.  0.
         23    2    1    2    0    0 -0.61890867613E+01  0.91877307867E+02  0.10468388086E+03  0.16397238351E+03  0.86304595153E+02 0.  0.
          5    1    3    3  502    0  0.45300774240E+02 -0.18656796859E+02  0.13955188376E+03  0.14796093023E+03  0.41800000000E+01 0.  1.
         -5    1    3    3    0  502 -0.39111687479E+02 -0.73220511008E+02  0.49587300862E+02  0.96785020207E+02  0.41800000000E+01 0.  1.
        -11    1    4    4    0    0  0.10546129651E+02  0.52116591175E+01 -0.12565524311E+02  0.17212630321E+02  0.00000000000E+00 0.  1.
         11    1    4    4    0    0 -0.16735216412E+02  0.86665648750E+02  0.11724940517E+03  0.14675975318E+03  0.00000000000E+00 0. -1.
</event>
<event>
 8    1  0.5951278E-006  0.9723702E+02  0.7561462E-02  0.1286216E+00
          1   -1    0    0  501    0  0.00000000000E+00  0.00000000000E+00  0.12206921011E+03  0.12206921011E+03  0.00000000000E+00 0. -1.
         -1   -1    0    0    0  501 -0.00000000000E+00 -0.00000000000E+00 -0.13367664134E+03  0.13367664134E+03  0.00000000000E+00 0.  1.
         23    2    1    2    0    0  0.69086094926E+02 -0.14530067588E+02 -0.46317131523E+02  0.15090545385E+03  0.12507265070E+03 0.  0.
         23    2    1    2    0    0 -0.69086094926E+02  0.14530067588E+02  0.34709700301E+02  0.10484039760E+03  0.69301762587E+02 0.  0.
          5    1    3    3  502    0 -0.35277580008E+01  0.26280189678E+02  0.28293855165E+02  0.39001385695E+02  0.41800000000E+01 0.  1.
         -5    1    3    3    0  502  0.72613852927E+02 -0.40810257266E+02 -0.74610986688E+02  0.11190406815E+03  0.41800000000E+01 0.  1.
        -11    1    4    4    0    0 -0.12303327907E+01  0.16304410814E+02  0.33127604301E+02  0.36943006070E+02  0.00000000000E+00 0.  1.
         11    1    4    4    0    0 -0.67855762136E+02 -0.17743432262E+01  0.15820960009E+01  0.67897391531E+02  0.00000000000E+00 0. -1.
</event>
<event>
 8    1  0.5951278E-006  0.2103309E+03  0.7561462E-02  0.1141304E+00
         -1   -1    0    0    0  501 -0.00000000000E+00  0.00000000000E+00  0.32371163591E+02  0.32371163591E+02  0.00000000000E+00 0.  1.
          1   -1    0    0  501    0  0.00000000000E+00 -0.00000000000E+00 -0.14353432540E+04  0.14353432540E+04  0.00000000000E+00 0. -1.
         23    2    1    2    0    0 -0.13057689335E+03  0.12650212132E+03 -0.85582030679E+03  0.88382035322E+03  0.12512756483E+03 0.  0.
         23    2    1    2    0    0  0.13057689335E+03 -0.12650212132E+03 -0.54715178359E+03  0.58389406434E+03  0.92217635573E+02 0.  0.
          5    1    3    3  502    0 -0.17829044292E+02  0.99952483584E+02 -0.47519421951E+03  0.48593764255E+03  0.41800000000E+01 0. -1.
         -5    1    3    3    0  502 -0.11274784906E+03  0.26549637734E+02 -0.38062608728E+03  0.39788271067E+03  0.41800000000E+01 0. -1.
        -11    1    4    4    0    0 -0.16230941471E+01  0.11744551442E+02 -0.45246025153E+02  0.46773622003E+02  0.00000000000E+00 0.  1.
         11    1    4    4    0    0  0.13219998750E+03 -0.13824667276E+03 -0.50190575844E+03  0.53712044234E+03  0.00000000000E+00 0. -1.
</event>
<event>
 8    1  0.5951278E-006  0.2035395E+03  0.7561462E-02  0.1146787E+00
          2   -1    0    0  501    0  0.00000000000E+00  0.00000000000E+00  0.22157647812E+03  0.22157647812E+03  0.00000000000E+00 0. -1.
         -2   -1    0    0    0  501 -0.00000000000E+00 -0.00000000000E+00 -0.21609423221E+03  0.21609423221E+03  0.00000000000E+00 0.  1.
         23    2    1    2    0    0 -0.18747266477E+03  0.26842548306E+02  0.14439013394E+02  0.22742400891E+03  0.12508665911E+03 0.  0.
         23    2    1    2    0    0  0.18747266477E+03 -0.26842548306E+02 -0.89567674869E+01  0.21024670142E+03  0.90867647372E+02 0.  0.
          5    1    3    3  502    0 -0.35098499074E+02 -0.34603115251E+02 -0.29119789321E+02  0.57399605856E+02  0.41800000000E+01 0. -1.
         -5    1    3    3    0  502 -0.15237416569E+03  0.61445663556E+02  0.43558802714E+02  0.17002440305E+03  0.41800000000E+01 0. -1.
        -11    1    4    4    0    0  0.12837300661E+03 -0.36314466170E+02 -0.44498044384E+02  0.14063586041E+03  0.00000000000E+00 0.  1.
         11    1    4    4    0    0  0.59099658157E+02  0.94719178644E+01  0.35541276897E+02  0.69610841008E+02  0.00000000000E+00 0. -1.
</event>
<event>
 8    1  0.5951278E-006  0.1050789E+03  0.7561462E-02  0.1269964E+00
         -2   -1    0    0    0  501 -0.00000000000E+00  0.00000000000E+00  0.37518414872E+02  0.37518414872E+02  0.00000000000E+00 0.  1.
          2   -1    0    0  501    0  0.00000000000E+00 -0.00000000000E+00 -0.46989044667E+03  0.46989044667E+03  0.00000000000E+00 0. -1.
         23    2    1    2    0    0  0.74257542022E+02 -0.15630150232E+02 -0.23628606679E+03  0.27791698884E+03  0.12509301811E+03 0.  0.
         23    2    1    2    0    0 -0.74257542022E+02  0.15630150232E+02 -0.19608596501E+03  0.22949187271E+03  0.91969178653E+02 0.  0.
          5    1    3    3  502    0 -0.86247452989E+01 -0.14592550416E+02  0.85189733341E+01  0.19426118135E+02  0.41800000000E+01 0.  1.
         -5    1    3    3    0  502  0.82882287321E+02 -0.10375998161E+01 -0.24480504013E+03  0.25849087070E+03  0.41800000000E+01 0.  1.
        -11    1    4    4    0    0 -0.33556072759E+02 -0.32470994572E+02 -0.13022570200E+03  0.13834416854E+03  0.00000000000E+00 0. -1.
         11    1    4    4    0    0 -0.40701469263E+02  0.48101144804E+02 -0.65860263012E+02  0.91147704171E+02  0.00000000000E+00 0.  1.
</event>
<event>
 8    1  0.5951278E-006  0.1219988E+03  0.7561462E-02  0.1239836E+00
         -1   -1    0    0    0  501 -0.00000000000E+00  0.00000000000E+00  0.44624823802E+02  0.44624823802E+02  0.00000000000E+00 0.  1.
          1   -1    0    0  501    0  0.00000000000E+00 -0.00000000000E+00 -0.49376689644E+03  0.49376689644E+03  0.00000000000E+00 0. -1.
         23    2    1    2    0    0 -0.59067104101E+02 -0.18485205850E+02 -0.96813996486E+02  0.16985746398E+03  0.12509189634E+03 0.  0.
         23    2    1    2    0    0  0.59067104101E+02  0.18485205850E+02 -0.35232807615E+03  0.36853425627E+03  0.88610378476E+02 0.  0.
          5    1    3    3  502    0 -0.44662865682E+02  0.49809789421E+02 -0.31074225682E+02  0.73884143054E+02  0.41800000000E+01 0.  1.
         -5    1    3    3    0  502 -0.14404238419E+02 -0.68294995271E+02 -0.65739770804E+02  0.95973320923E+02  0.41800000000E+01 0.  1.
        -11    1    4    4    0    0 -0.22789617506E+02  0.95162155556E+01 -0.10469925886E+03  0.10757257936E+03  0.00000000000E+00 0.  1.
         11    1    4    4    0    0  0.81856721607E+02  0.89689902947E+01 -0.24762881729E+03  0.26096167691E+03  0.00000000000E+00 0. -1.
</event>
<event>
 8    1  0.5951278E-006  0.7880668E+02  0.7561462E-02  0.1332472E+00
         -1   -1    0    0    0  501 -0.00000000000E+00  0.00000000000E+00  0.36535711118E+02  0.36535711118E+02  0.00000000000E+00 0.  1.
          1   -1    0    0  501    0  0.00000000000E+00 -0.00000000000E+00 -0.35058008149E+03  0.35058008149E+03  0.00000000000E+00 0. -1.
         23    2    1    2    0    0 -0.30045434957E+02  0.47863564150E+01 -0.16715715256E+03  0.21097843994E+03  0.12507897945E+03 0.  0.
         23    2    1    2    0    0  0.30045434957E+02 -0.47863564150E+01 -0.14688721781E+03  0.17613735266E+03  0.92319417660E+02 0.  0.
          5    1    3    3  502    0 -0.47712800892E+02 -0.27661323587E+02 -0.19397081793E+02  0.58612109445E+02  0.41800000000E+01 0.  1.
         -5    1    3    3    0  502  0.17667365934E+02  0.32447680002E+02 -0.14776007077E+03  0.15236633050E+03  0.41800000000E+01 0.  1.
        -11    1    4    4    0    0  0.28610319120E+02  0.23362415140E+02 -0.12757421121E+02  0.39078185667E+02  0.00000000000E+00 0.  1.
         11    1    4    4    0    0  0.14351158369E+01 -0.28148771555E+02 -0.13412979669E+03  0.13705916700E+03  0.00000000000E+00 0. -1.
</event>
<event>
 8    1  0.5951278E-006  0.9413092E+02  0.7561462E-02  0.1293146E+00
          1   -1    0    0  501    0  0.00000000000E+00  0.00000000000E+00  0.51685038125E+03  0.51685038125E+03  0.00000000000E+00 0. -1.
         -1   -1    0    0    0  501 -0.00000000000E+00 -0.00000000000E+00 -0.30292098815E+02  0.30292098815E+02  0.00000000000E+00 0.  1.
         23    2    1    2    0    0  0.48069018479E+02  0.45464995492E+01  0.19148970614E+03  0.23376673447E+03  0.12508907782E+03 0.  0.
         23    2    1    2    0    0 -0.48069018479E+02 -0.45464995492E+01  0.29506857629E+03  0.31337574559E+03  0.93848772060E+02 0.  0.
          5    1    3    3  502    0  0.77538486229E+02 -0.15906374539E+01  0.58193499162E+02  0.97050001127E+02  0.41800000000E+01 0.  1.
         -5    1    3    3    0  502 -0.29469467750E+02  0.61371370031E+01  0.13329620698E+03  0.13671673334E+03  0.41800000000E+01 0.  1.
        -11    1    4    4    0    0  0.15286686827E+02 -0.69725638499E+01  0.66488166672E+01  0.18069482667E+02  0.00000000000E+00 0.  1.
         11    1    4    4    0    0 -0.63355705306E+02  0.24260643008E+01  0.28841975962E+03  0.29530626292E+03  0.00000000000E+00 0. -1.
</event>
<event>
 8    1  0.5951278E-006  0.1236788E+03  0.7561462E-02  0.1237149E+00
          2   -1    0    0  501    0  0.00000000000E+00  0.00000000000E+00  0.23213326533E+03  0.23213326533E+03  0.00000000000E+00 0. -1.
         -2   -1    0    0    0  501 -0.00000000000E+00 -0.00000000000E+00 -0.76526587069E+02  0.76526587069E+02  0.00000000000E+00 0.  1.
         23    2    1    2    0    0 -0.13151072551E+01 -0.64891690079E+02  0.40230735934E+02  0.14655570273E+03  0.12508957167E+03 0.  0.
         23    2    1    2    0    0  0.13151072551E+01  0.64891690079E+02  0.11537594233E+03  0.16210414967E+03  0.93560068001E+02 0.  0.
          5    1    3    3  502    0  0.59410542709E+02 -0.16654688941E+02  0.28183950242E+02  0.67961744386E+02  0.41800000000E+01 0. -1.
         -5    1    3    3    0  502 -0.60725649964E+02 -0.48237001137E+02  0.12046785692E+02  0.78593958342E+02  0.41800000000E+01 0. -1.
        -11    1    4    4    0    0  0.16299608971E+02 -0.17611760496E+02  0.68462305292E+01  0.24954403075E+02  0.00000000000E+00 0.  1.
         11    1    4    4    0    0 -0.14984501716E+02  0.82503450575E+02  0.10852971180E+03  0.13714974659E+03  0.00000000000E+00 0. -1.
</event>
<event>
 8    1  0.5951278E-006  0.1581012E+03  0.7561462E-02  0.1190857E+00
         -1   -1    0    0    0  501 -0.00000000000E+00  0.00000000000E+00  0.40728329330E+02  0.40728329330E+02  0.00000000000E+00 0.  1.
          1   -1    0    0  501    0  0.00000000000E+00 -0.00000000000E+00 -0.81494457997E+03  0.81494457997E+03  0.00000000000E+00 0. -1.
         23    2    1    2    0    0  0.91637016550E+02 -0.86437777990E+02 -0.22387555458E+03  0.28332320017E+03  0.11951125282E+03 0.  0.
         23    2    1    2    0    0 -0.91637016550E+02  0.86437777990E+02 -0.55034069606E+03  0.57234970913E+03  0.94023803022E+02 0.  0.
          5    1    3    3  502    0 -0.26288021419E+02 -0.29336264878E+02 -0.31899265256E+02  0.50859728971E+02  0.41800000000E+01 0. -1.
         -5    1    3    3    0  502  0.11792503797E+03 -0.57101513112E+02 -0.19197628932E+03  0.23246347120E+03  0.41800000000E+01 0.  1.
        -11    1    4    4    0    0 -0.94360919623E+02  0.46008401944E+02 -0.47839170556E+03  0.48977482597E+03  0.00000000000E+00 0. -1.
         11    1    4    4    0    0  0.27239030724E+01  0.40429376046E+02 -0.71948990496E+02  0.82574883160E+02  0.00000000000E+00 0.  1.
</event>
<event>
 8    1  0.5951278E-006  0.1078734E+03  0.7561462E-02  0.1264560E+00
          1   -1    0    0  501    0  0.00000000000E+00  0.00000000000E+00  0.82932638593E+02  0.82932638593E+02  0.00000000000E+00 0. -1.
         -1   -1    0    0    0  501 -0.00000000000E+00 -0.00000000000E+00 -0.16822847660E+03  0.16822847660E+03  0.00000000000E+00 0.  1.
         23    2    1    2    0    0 -0.14724758703E+02 -0.43742321063E+02 -0.48124221571E+02  0.14174978606E+03  0.12508737736E+03 0.  0.
         23    2    1    2    0    0  0.14724758703E+02  0.43742321063E+02 -0.37171616432E+02  0.10941132913E+03  0.91972282258E+02 0.  0.
          5    1    3    3  502    0 -0.64457296699E+02 -0.20192473936E+01 -0.40469598346E+02  0.76250122938E+02  0.41800000000E+01 0.  1.
         -5    1    3    3    0  502  0.49732537996E+02 -0.41723073670E+02 -0.76546232251E+01  0.65499663119E+02  0.41800000000E+01 0.  1.
        -11    1    4    4    0    0 -0.19475370575E+01  0.61605830489E+02 -0.52160638996E+02  0.80745300243E+02  0.00000000000E+00 0.  1.
         11    1    4    4    0    0  0.16672295760E+02 -0.17863509426E+02  0.14989022564E+02  0.28666028891E+02  0.00000000000E+00 0. -1.
</event>
<event>
 8    1  0.5951278E-006  0.1030408E+03  0.7561462E-02  0.1274029E+00
          2   -1    0    0  501    0  0.00000000000E+00  0.00000000000E+00  0.77410503960E+02  0.77410503960E+02  0.00000000000E+00 0. -1.
         -2   -1    0    0    0  501 -0.00000000000E+00 -0.00000000000E+00 -0.17370255182E+03  0.17370255182E+03  0.00000000000E+00 0.  1.
         23    2    1    2    0    0 -0.23550358206E+02  0.30246551921E+02 -0.92723350077E+02  0.15114125710E+03  0.11303356437E+03 0.  0.
         23    2    1    2    0    0  0.23550358206E+02 -0.30246551921E+02 -0.35686977884E+01  0.99971798685E+02  0.92261322631E+02 0.  0.
          5    1    3    3  502    0 -0.60120770951E+02  0.46246385567E+02 -0.43176547437E+02  0.87378040298E+02  0.41800000000E+01 0.  1.
         -5    1    3    3    0  502  0.36570412745E+02 -0.15999833646E+02 -0.49546802640E+02  0.63763216801E+02  0.41800000000E+01 0.  1.
        -11    1    4    4    0    0 -0.16242116603E+02 -0.44766557684E+02  0.19823428666E+02  0.51583130602E+02  0.00000000000E+00 0.  1.
         11    1    4    4    0    0  0.39792474809E+02  0.14520005762E+02 -0.23392126455E+02  0.48388668083E+02  0.00000000000E+00 0. -1.
</event>
<event>
 8    1  0.5951278E-006  0.1313838E+03  0.7561462E-02  0.1225417E+00
         -2   -1    0    0    0  501 -0.00000000000E+00  0.00000000000E+00  0.29524057427E+02  0.29524057427E+02  0.00000000000E+00 0.  1.
          2   -1    0    0  501    0  0.00000000000E+00 -0.00000000000E+00 -0.64385571931E+03  0.64385571931E+03  0.00000000000E+00 0. -1.
         23    2    1    2    0    0  0.29592913483E+02  0.63825652691E+02 -0.30029567359E+03  0.33282887635E+03  0.12509242538E+03 0.  0.
         23    2    1    2    0    0 -0.29592913483E+02 -0.63825652691E+02 -0.31403598829E+03  0.34055090038E+03  0.11138608235E+03 0.  0.
          5    1    3    3  502    0  0.31053396593E+02 -0.32565571950E+02 -0.12192884127E+03  0.13003439795E+03  0.41800000000E+01 0. -1.
         -5    1    3    3    0  502 -0.14604831093E+01  0.96391224641E+02 -0.17836683232E+03  0.20279447840E+03  0.41800000000E+01 0. -1.
        -11    1    4    4    0    0 -0.63358216011E+02 -0.59722588617E+02 -0.27655347598E+03  0.28993598639E+03  0.00000000000E+00 0. -1.
         11    1    4    4    0    0  0.33765302528E+02 -0.41030640739E+01 -0.37482512315E+02  0.50614913998E+02  0.00000000000E+00 0.  1.
</event>
<event>
 8    1  0.5951278E-006  0.1151984E+03  0.7561462E-02  0.1251235E+00
         -1   -1    0    0    0  501 -0.00000000000E+00  0.00000000000E+00  0.10585162769E+03  0.10585162769E+03  0.00000000000E+00 0.  1.
          1   -1    0    0  501    0  0.00000000000E+00 -0.00000000000E+00 -0.15631202161E+03  0.15631202161E+03  0.00000000000E+00 0. -1.
         23    2    1    2    0    0  0.15182211636E+02  0.40652280340E+02  0.23930583965E+02  0.13455142741E+03  0.12509319055E+03 0.  0.
         23    2    1    2    0    0 -0.15182211636E+02 -0.40652280340E+02 -0.74390977894E+02  0.12761222189E+03  0.94168753501E+02 0.  0.
          5    1    3    3  502    0  0.35460027880E+02  0.78732476816E+02  0.28354167881E+02  0.90981579009E+02  0.41800000000E+01 0.  1.
         -5    1    3    3    0  502 -0.20277816244E+02 -0.38080196476E+02 -0.44235839153E+01  0.43569848404E+02  0.41800000000E+01 0.  1.
        -11    1    4    4    0    0  0.36427631803E+02 -0.31558719991E+02 -0.51166138879E+02  0.70291528181E+02  0.00000000000E+00 0. -1.
         11    1    4    4    0    0 -0.51609843439E+02 -0.90935603490E+01 -0.23224839015E+02  0.57320693706E+02  0.00000000000E+00 0.  1.
</event>
<event>
 8    1  0.5951278E-006  0.9260844E+02  0.7561462E-02  0.1296655E+00
         -2   -1    0    0    0  501 -0.00000000000E+00  0.00000000000E+00  0.58967761466E+02  0.58967761466E+02  0.00000000000E+00 0.  1.
          2   -1    0    0  501    0  0.00000000000E+00 -0.00000000000E+00 -0.36477378822E+03  0.36477378822E+03  0.00000000000E+00 0. -1.
         23    2    1    2    0    0  0.54589877441E+01  0.71500944278E+02 -0.64222743570E+02  0.15784112783E+03  0.12508826989E+03 0.  0.
         23    2    1    2    0    0 -0.54589877441E+01 -0.71500944278E+02 -0.24158328318E+03  0.26590042185E+03  0.84843185039E+02 0.  0.
          5    1    3    3  502    0 -0.19035278879E+02  0.42169899610E+02  0.30528527796E+02  0.55588719040E+02  0.41800000000E+01 0. -1.
         -5    1    3    3    0  502  0.24494266623E+02  0.29331044669E+02 -0.94751271366E+02  0.10225240879E+03  0.41800000000E+01 0. -1.
        -11    1    4    4    0    0  0.14299598028E+02  0.93529320588E+01 -0.99632622899E+01  0.19779343703E+02  0.00000000000E+00 0.  1.
         11    1    4    4    0    0 -0.19758585773E+02 -0.80853876337E+02 -0.23162002089E+03  0.24612107815E+03  0.00000000000E+00 0. -1.
</event>
<event>
 8    1  0.5951278E-006  0.1166333E+03  0.7561462E-02  0.1248757E+00
         -1   -1    0    0    0  501 -0.00000000000E+00  0.00000000000E+00  0.21513800818E+02  0.21513800818E+02  0.00000000000E+00 0.  1.
          1   -1    0    0  501    0  0.00000000000E+00 -0.00000000000E+00 -0.76608963097E+03  0.76608963097E+03  0.00000000000E+00 0. -1.
         23    2    1    2    0    0  0.52434831475E+02 -0.40595429750E+02 -0.46633445657E+03  0.48735307226E+03  0.12509113151E+03 0.  0.
         23    2    1    2    0    0 -0.52434831475E+02  0.40595429750E+02 -0.27824137358E+03  0.30025035953E+03  0.91294117876E+02 0.  0.
          5    1    3    3  502    0  0.32573188965E+02 -0.74247386517E+02 -0.16962821126E+03  0.18805554897E+03  0.41800000000E+01 0. -1.
         -5    1    3    3    0  502  0.19861642510E+02  0.33651956766E+02 -0.29670624531E+03  0.29929752328E+03  0.41800000000E+01 0. -1.
        -11    1    4    4    0    0 -0.54955254619E+02  0.66774955750E+02 -0.20933387385E+03  0.22649425040E+03  0.00000000000E+00 0. -1.
         11    1    4    4    0    0  0.25204231436E+01 -0.26179526000E+02 -0.68907499732E+02  0.73756109128E+02  0.00000000000E+00 0.  1.
</event>
<event>
 8    1  0.5951278E-006  0.1708630E+03  0.7561462E-02  0.1176951E+00
         -1   -1    0    0    0  501 -0.00000000000E+00  0.00000000000E+00  0.73386246184E+03  0.73386246184E+03  0.00000000000E+00 0.  1.
          1   -1    0    0  501    0  0.00000000000E+00 -0.00000000000E+00 -0.44365136032E+02  0.44365136032E+02  0.00000000000E+00 0. -1.
         23    2    1    2    0    0  0.34753577719E+02  0.13751886836E+03  0.41244252233E+03  0.45373583714E+03  0.12509246722E+03 0.  0.
         23    2    1    2    0    0 -0.34753577719E+02 -0.13751886836E+03  0.27705480347E+03  0.32449176074E+03  0.91740331029E+02 0.  0.
          5    1    3    3  502    0  0.37672933210E+02  0.25988572682E+01  0.30783696885E+02  0.48899001520E+02  0.41800000000E+01 0.  1.
         -5    1    3    3    0  502 -0.29193554913E+01  0.13492001109E+03  0.38165882545E+03  0.40483683562E+03  0.41800000000E+01 0.  1.
        -11    1    4    4    0    0 -0.65321737106E+02 -0.77460366429E+02  0.15843619551E+03  0.18806665242E+03  0.00000000000E+00 0. -1.
         11    1    4    4    0    0  0.30568159388E+02 -0.60058501931E+02  0.11861860796E+03  0.13642510831E+03  0.00000000000E+00 0.  1.
</event>
<event>
 8    1  0.5951278E-006  0.1239011E+03  0.7561462E-02  0.1236797E+00
          1   -1    0    0  501    0  0.00000000000E+00  0.00000000000E+00  0.63948462438E+03  0.63948462438E+03  0.00000000000E+00 0. -1.
         -1   -1    0    0    0  501 -0.00000000000E+00 -0.00000000000E+00 -0.28914434695E+02  0.28914434695E+02  0.00000000000E+00 0.  1.
         23    2    1    2    0    0 -0.80212361603E+02  0.19790388302E+01  0.28435457077E+03  0.32084843539E+03  0.12509299352E+03 0.  0.
         23    2    1    2    0    0  0.80212361603E+02 -0.19790388302E+01  0.32621561892E+03  0.34755062369E+03  0.89089092756E+02 0.  0.
          5    1    3    3  502    0 -0.73776946309E+02  0.50234950913E+02  0.23492697446E+03  0.25134586495E+03  0.41800000000E+01 0.  1.
         -5    1    3    3    0  502 -0.64354152942E+01 -0.48255912082E+02  0.49427596308E+02  0.69502570440E+02  0.41800000000E+01 0.  1.
        -11    1    4    4    0    0  0.15997331293E+02 -0.34188487667E+02  0.18829857355E+03  0.19204457842E+03  0.00000000000E+00 0. -1.
         11    1    4    4    0    0  0.64215030310E+02  0.32209448837E+02  0.13791704537E+03  0.15550604527E+03  0.00000000000E+00 0.  1.
</event>
<event>
 8    1  0.5951278E-006  0.9099017E+02  0.7561462E-02  0.1300471E+00
         -2   -1    0    0    0  501 -0.00000000000E+00  0.00000000000E+00  0.92200666429E+02  0.92200666429E+02  0.00000000000E+00 0.  1.
          2   -1    0    0  501    0  0.00000000000E+00 -0.00000000000E+00 -0.13618377585E+03  0.13618377585E+03  0.00000000000E+00 0. -1.
         23    2    1    2    0    0  0.44167520248E+01  0.21901727328E+02 -0.16910365655E+02  0.12944591106E+03  0.12637677819E+03 0.  0.
         23    2    1    2    0    0 -0.44167520248E+01 -0.21901727328E+02 -0.27072743766E+02  0.98938531221E+02  0.92502465626E+02 0.  0.
          5    1    3    3  502    0  0.26362280757E+02 -0.43131180589E+02  0.16037016463E+02  0.53197057087E+02  0.41800000000E+01 0. -1.
         -5    1    3    3    0  502 -0.21945528733E+02  0.65032907916E+02 -0.32947382118E+02  0.76248853971E+02  0.41800000000E+01 0.  1.
        -11    1    4    4    0    0 -0.17227636007E+02 -0.38117257753E+02 -0.51885582970E+02  0.66647059208E+02  0.00000000000E+00 0. -1.
         11    1    4    4    0    0  0.12810883983E+02  0.16215530425E+02  0.24812839204E+02  0.32291472013E+02  0.00000000000E+00 0.  1.
</event>
<event>
 8    1  0.5951278E-006  0.1311516E+03  0.7561462E-02  0.1225757E+00
          2   -1    0    0  501    0  0.00000000000E+00  0.00000000000E+00  0.78451300481E+02  0.78451300481E+02  0.00000000000E+00 0. -1.
         -2   -1    0    0    0  501 -0.00000000000E+00 -0.00000000000E+00 -0.31934868737E+03  0.31934868737E+03  0.00000000000E+00 0.  1.
         23    2    1    2    0    0 -0.50576774574E+02  0.69788256210E+02 -0.20225071702E+03  0.25294583226E+03  0.12509128944E+03 0.  0.
         23    2    1    2    0    0  0.50576774574E+02 -0.69788256210E+02 -0.38646669869E+02  0.14485415558E+03  0.10982144812E+03 0.  0.
          5    1    3    3  502    0 -0.75340329529E+02  0.16330931756E+02 -0.56459448418E+02  0.95645210550E+02  0.41800000000E+01 0.  1.
         -5    1    3    3    0  502  0.24763554955E+02  0.53457324454E+02 -0.14579126860E+03  0.15730062171E+03  0.41800000000E+01 0.  1.
        -11    1    4    4    0    0  0.77754608971E+02 -0.50626193620E+02  0.14084612838E+01  0.92794258765E+02  0.00000000000E+00 0. -1.
         11    1    4    4    0    0 -0.27177834397E+02 -0.19162062590E+02 -0.40055131152E+02  0.52059896819E+02  0.00000000000E+00 0.  1.
</event>
<event>
 8    1  0.5951278E-006  0.1123325E+03  0.7561462E-02  0.1256310E+00
         -2   -1    0    0    0  501 -0.00000000000E+00  0.00000000000E+00  0.18347159445E+03  0.18347159445E+03  0.00000000000E+00 0.  1.
          2   -1    0    0  501    0  0.00000000000E+00 -0.00000000000E+00 -0.73334206089E+02  0.73334206089E+02  0.00000000000E+00 0. -1.
         23    2    1    2    0    0 -0.13826858758E+02 -0.43341025938E+02  0.58491683230E+02  0.14539773843E+03  0.12509835643E+03 0.  0.
         23    2    1    2    0    0  0.13826858758E+02  0.43341025938E+02  0.51645705136E+02  0.11140806211E+03  0.87606226330E+02 0.  0.
          5    1    3    3  502    0  0.67329818885E+01 -0.85006703066E+02  0.28808093526E+02  0.90104668380E+02  0.41800000000E+01 0.  1.
         -5    1    3    3    0  502 -0.20559840647E+02  0.41665677128E+02  0.29683589704E+02  0.55293070051E+02  0.41800000000E+01 0.  1.
        -11    1    4    4    0    0 -0.10928242871E+02  0.61166285998E+02  0.51812075882E+02  0.80902609613E+02  0.00000000000E+00 0.  1.
         11    1    4    4    0    0  0.24755101629E+02 -0.17825260060E+02 -0.16637074639E+00  0.30505452498E+02  0.00000000000E+00 0. -1.
</event>
<event>
 8    1  0.5951278E-006  0.7813903E+02  0.7561462E-02  0.1334417E+00
          2   -1    0    0  501    0  0.00000000000E+00  0.00000000000E+00  0.36111248024E+02  0.36111248024E+02  0.00000000000E+00 0. -1.
         -2   -1    0    0    0  501 -0.00000000000E+00 -0.00000000000E+00 -0.32514801643E+03  0.32514801643E+03  0.00000000000E+00 0.  1.
         23    2    1    2    0    0  0.56517758006E+01  0.87259657441E+01 -0.18614391333E+03  0.22451508418E+03  0.12509748801E+03 0.  0.
         23    2    1    2    0    0 -0.56517758006E+01 -0.87259657441E+01 -0.10289285508E+03  0.13674418027E+03  0.89464776115E+02 0.  0.
          5    1    3    3  502    0  0.27009449944E+02 -0.23539757139E+02 -0.18087053101E+01  0.36116123371E+02  0.41800000000E+01 0.  1.
         -5    1    3    3    0  502 -0.21357674143E+02  0.32265722883E+02 -0.18433520802E+03  0.18839896081E+03  0.41800000000E+01 0.  1.
        -11    1    4    4    0    0 -0.42879138183E+02 -0.10035046880E+02 -0.25586540166E+02  0.50931264415E+02  0.00000000000E+00 0. -1.
         11    1    4    4    0    0  0.37227362383E+02  0.13090811362E+01 -0.77306314909E+02  0.85812915859E+02  0.00000000000E+00 0.  1.
</event>
<event>
 8    1  0.6166082E-006  0.1849231E+03  0.7561462E-02  0.1163122E+00
          2   -1    0    0  501    0  0.00000000000E+00  0.00000000000E+00  0.55819861872E+03  0.55819861872E+03  0.00000000000E+00 0. -1.
         -2   -1    0    0    0  501 -0.00000000000E+00 -0.00000000000E+00 -0.85284073487E+02  0.85284073487E+02  0.00000000000E+00 0.  1.
         23    2    1    2    0    0  0.17340778011E+03  0.14030314849E+02  0.14160362892E+03  0.25683873702E+03  0.12508973248E+03 0.  0.
         23    2    1    2    0    0 -0.17340778011E+03 -0.14030314849E+02  0.33131091632E+03  0.38664395519E+03  0.97260047705E+02 0.  0.
          5    1    3    3  502    0  0.14088540110E+03  0.47676021269E+02  0.14747206227E+03  0.20949267481E+03  0.41800000000E+01 0. -1.
         -5    1    3    3    0  502  0.32522379003E+02 -0.33645706420E+02 -0.58684333533E+01  0.47346062207E+02  0.41800000000E+01 0. -1.
        -11    1    4    4    0    0 -0.11507336787E+03 -0.12082898620E+02  0.11709206808E+03  0.16461600421E+03  0.00000000000E+00 0.  1.
         11    1    4    4    0    0 -0.58334412235E+02 -0.19474162288E+01  0.21421884824E+03  0.22202795099E+03  0.00000000000E+00 0. -1.
</event>
<event>
 8    1  0.5951278E-006  0.1580332E+03  0.7561462E-02  0.1190935E+00
          2   -1    0    0  501    0  0.00000000000E+00  0.00000000000E+00  0.23969099267E+03  0.23969099267E+03  0.00000000000E+00 0. -1.
         -2   -1    0    0    0  501 -0.00000000000E+00 -0.00000000000E+00 -0.38787261062E+03  0.38787261062E+03  0.00000000000E+00 0.  1.
         23    2    1    2    0    0 -0.11786731745E+03 -0.17434311315E+02 -0.34261991010E+03  0.38176583510E+03  0.11899617774E+03 0.  0.
         23    2    1    2    0    0  0.11786731745E+03  0.17434311315E+02  0.19443829215E+03  0.24579776820E+03  0.91725861470E+02 0.  0.
          5    1    3    3  502    0  0.20920123132E+02  0.12145371696E+02 -0.32805447065E+02  0.40973544668E+02  0.41800000000E+01 0. -1.
         -5    1    3    3    0  502 -0.13878744058E+03 -0.29579683011E+02 -0.30981446303E+03  0.34079229043E+03  0.41800000000E+01 0.  1.
        -11    1    4    4    0    0  0.91148582850E+02 -0.29280006926E+02  0.13645177746E+03  0.16668674372E+03  0.00000000000E+00 0. -1.
         11    1    4    4    0    0  0.26718734600E+02  0.46714318241E+02  0.57986514690E+02  0.79111024473E+02  0.00000000000E+00 0.  1.
</event>
<event>
 8    1  0.5951278E-006  0.6786421E+02  0.7561462E-02  0.1367510E+00
         -1   -1    0    0    0  501 -0.00000000000E+00  0.00000000000E+00  0.21263366020E+03  0.21263366020E+03  0.00000000000E+00 0.  1.
          1   -1    0    0  501    0  0.00000000000E+00 -0.00000000000E+00 -0.76590934118E+02  0.76590934118E+02  0.00000000000E+00 0. -1.
         23    2    1    2    0    0 -0.20401235841E+02  0.44230545924E+02  0.13139615057E+03  0.18784363153E+03  0.12509088658E+03 0.  0.
         23    2    1    2    0    0  0.20401235841E+02 -0.44230545924E+02  0.46465755116E+01  0.10138096279E+03  0.88791651270E+02 0.  0.
          5    1    3    3  502    0  0.26929098262E+02  0.14720642575E+02  0.12812469356E+03  0.13181533731E+03  0.41800000000E+01 0.  1.
         -5    1    3    3    0  502 -0.47330334103E+02  0.29509903348E+02  0.32714570095E+01  0.56028294217E+02  0.41800000000E+01 0.  1.
        -11    1    4    4    0    0  0.15917482534E+02 -0.30914139165E+02 -0.40919403922E+02  0.53697745463E+02  0.00000000000E+00 0. -1.
         11    1    4    4    0    0  0.44837533070E+01 -0.13316406759E+02  0.45565979433E+02  0.47683217324E+02  0.00000000000E+00 0.  1.
</event>
<event>
 8    1  0.5951278E-006  0.1064139E+03  0.7561462E-02  0.1267359E+00
          1   -1    0    0  501    0  0.00000000000E+00  0.00000000000E+00  0.51997037056E+02  0.51997037056E+02  0.00000000000E+00 0. -1.
         -1   -1    0    0    0  501 -0.00000000000E+00 -0.00000000000E+00 -0.29427230525E+03  0.29427230525E+03  0.00000000000E+00 0.  1.
         23    2    1    2    0    0 -0.24469300004E+02  0.51625921980E+02 -0.14118072750E+03  0.19708813320E+03  0.12509097476E+03 0.  0.
         23    2    1    2    0    0  0.24469300004E+02 -0.51625921980E+02 -0.10109454070E+03  0.14918120911E+03  0.93653320979E+02 0.  0.
          5    1    3    3  502    0  0.43351202663E+02 -0.15525234610E+01 -0.80707317464E+02  0.91721756382E+02  0.41800000000E+01 0. -1.
         -5    1    3    3    0  502 -0.67820502668E+02  0.53178445441E+02 -0.60473410036E+02  0.10536637681E+03  0.41800000000E+01 0. -1.
        -11    1    4    4    0    0  0.32102006014E+02 -0.13701398418E+01 -0.92120130371E+02  0.97562977060E+02  0.00000000000E+00 0.  1.
         11    1    4    4    0    0 -0.76327060101E+01 -0.50255782138E+02 -0.89744103245E+01  0.51618232051E+02  0.00000000000E+00 0. -1.
</event>
<event>
 8    1  0.5951278E-006  0.1425477E+03  0.7561462E-02  0.1209941E+00
         -3   -1    0    0    0  501 -0.00000000000E+00  0.00000000000E+00  0.14810239266E+03  0.14810239266E+03  0.00000000000E+00 0.  1.
          3   -1    0    0  501    0  0.00000000000E+00 -0.00000000000E+00 -0.16787410278E+03  0.16787410278E+03  0.00000000000E+00 0. -1.
         23    2    1    2    0    0  0.10036049739E+03 -0.38729278074E+02  0.24318685038E+02  0.16677331561E+03  0.12509897657E+03 0.  0.
         23    2    1    2    0    0 -0.10036049739E+03  0.38729278074E+02 -0.44090395161E+02  0.14920317983E+03  0.93517054644E+02 0.  0.
          5    1    3    3  502    0  0.99801353789E+02  0.37596464492E+01  0.55097226850E+02  0.11413860857E+03  0.41800000000E+01 0.  1.
         -5    1    3    3    0  502  0.55914360252E+00 -0.42488924523E+02 -0.30778541813E+02  0.52634707037E+02  0.41800000000E+01 0.  1.
        -11    1    4    4    0    0 -0.84002751015E+02 -0.15828459680E+02 -0.29214197459E+02  0.90335328898E+02  0.00000000000E+00 0.  1.
         11    1    4    4    0    0 -0.16357746376E+02  0.54557737754E+02 -0.14876197702E+02  0.58867850932E+02  0.00000000000E+00 0. -1.
</event>
<event>
 8    1  0.5951278E-006  0.1163332E+03  0.7561462E-02  0.1249272E+00
         -1   -1    0    0    0  501 -0.00000000000E+00  0.00000000000E+00  0.88714546002E+03  0.88714546002E+03  0.00000000000E+00 0.  1.
          1   -1    0    0  501    0  0.00000000000E+00 -0.00000000000E+00 -0.20514420514E+02  0.20514420514E+02  0.00000000000E+00 0. -1.
         23    2    1    2    0    0  0.37196478796E+02 -0.65721303852E+02  0.56281699427E+03  0.58147512350E+03  0.12508989726E+03 0.  0.
         23    2    1    2    0    0 -0.37196478796E+02  0.65721303852E+02  0.30381404523E+03  0.32618475703E+03  0.91600512130E+02 0.  0.
          5    1    3    3  502    0 -0.14655656734E+02 -0.87016872256E+02  0.38403563313E+03  0.39406543143E+03  0.41800000000E+01 0.  1.
         -5    1    3    3    0  502  0.51852135530E+02  0.21295568404E+02  0.17878136114E+03  0.18740969207E+03  0.41800000000E+01 0.  1.
        -11    1    4    4    0    0 -0.18315242540E+02  0.66738360411E+02  0.29867811522E+03  0.30659105233E+03  0.00000000000E+00 0.  1.
         11    1    4    4    0    0 -0.18881236256E+02 -0.10170565594E+01  0.51359300135E+01  0.19593704696E+02  0.00000000000E+00 0. -1.
</event>
<event>
 8    1  0.5951278E-006  0.1179672E+03  0.7561462E-02  0.1246489E+00
          4   -1    0    0  501    0  0.00000000000E+00  0.00000000000E+00  0.13854106125E+03  0.13854106125E+03  0.00000000000E+00 0.  1.
         -4   -1    0    0    0  501 -0.00000000000E+00 -0.00000000000E+00 -0.12252066426E+03  0.12252066426E+03  0.00000000000E+00 0. -1.
         23    2    1    2    0    0 -0.60588404577E+02  0.30035735163E+02 -0.16905376046E+02  0.14320414002E+03  0.12509409987E+03 0.  0.
         23    2    1    2    0    0  0.60588404577E+02 -0.30035735163E+02  0.32925773028E+02  0.11785758549E+03  0.90737003326E+02 0.  0.
          5    1    3    3  502    0  0.11109743816E+02 -0.39962294089E+02 -0.12968844325E+01  0.41708100721E+02  0.41800000000E+01 0.  1.
         -5    1    3    3    0  502 -0.71698148393E+02  0.69998029252E+02 -0.15608491613E+02  0.10149603929E+03  0.41800000000E+01 0.  1.
        -11    1    4    4    0    0  0.57038559101E+02  0.63575873528E+01  0.51261727826E+02  0.76951808822E+02  0.00000000000E+00 0.  1.
         11    1    4    4    0    0  0.35498454761E+01 -0.36393322516E+02 -0.18335954798E+02  0.40905776671E+02  0.00000000000E+00 0. -1.
</event>
<event>
 8    1  0.5951278E-006  0.1126502E+03  0.7561462E-02  0.1255739E+00
         -2   -1    0    0    0  501 -0.00000000000E+00  0.00000000000E+00  0.19448413289E+02  0.19448413289E+02  0.00000000000E+00 0.  1.
          2   -1    0    0  501    0  0.00000000000E+00 -0.00000000000E+00 -0.90649740999E+03  0.90649740999E+03  0.00000000000E+00 0. -1.
         23    2    1    2    0    0 -0.82862732600E+01  0.63432433838E+02 -0.35649979406E+03  0.38318334466E+03  0.12508012022E+03 0.  0.
         23    2    1    2    0    0  0.82862732600E+01 -0.63432433838E+02 -0.53054920265E+03  0.54276247862E+03  0.94954282606E+02 0.  0.
          5    1    3    3  502    0  0.84397862400E+00  0.86003489884E+02 -0.34562776611E+03  0.35619283777E+03  0.41800000000E+01 0. -1.
         -5    1    3    3    0  502 -0.91302518840E+01 -0.22571056047E+02 -0.10872027949E+02  0.26990506891E+02  0.41800000000E+01 0. -1.
        -11    1    4    4    0    0 -0.37210205706E+02 -0.98403345594E+00 -0.16995578581E+03  0.17398430061E+03  0.00000000000E+00 0.  1.
         11    1    4    4    0    0  0.45496478966E+02 -0.62448400382E+02 -0.36059341684E+03  0.36877817801E+03  0.00000000000E+00 0. -1.
</event>
<event>
 8    1  0.5951278E-006  0.1118419E+03  0.7561462E-02  0.1257196E+00
          2   -1    0    0  501    0  0.00000000000E+00  0.00000000000E+00  0.96710192098E+02  0.96710192098E+02  0.00000000000E+00 0. -1.
         -2   -1    0    0    0  501 -0.00000000000E+00 -0.00000000000E+00 -0.15567036934E+03  0.15567036934E+03  0.00000000000E+00 0.  1.
         23    2    1    2    0    0  0.82049507139E+01 -0.56204066102E+02 -0.26215480297E+02  0.13986343934E+03  0.12509321322E+03 0.  0.
         23    2    1    2    0    0 -0.82049507139E+01  0.56204066102E+02 -0.32744696947E+02  0.11251712210E+03  0.91442163826E+02 0.  0.
          5    1    3    3  502    0  0.59579650947E+02 -0.43812445949E+01  0.55989184848E+01  0.60147738107E+02  0.41800000000E+01 0.  1.
         -5    1    3    3    0  502 -0.51374700233E+02 -0.51822821507E+02 -0.31814398782E+02  0.79715701231E+02  0.41800000000E+01 0.  1.
        -11    1    4    4    0    0  0.29522952396E+02  0.39827103067E+02 -0.47657421629E+02  0.68767962695E+02  0.00000000000E+00 0.  1.
         11    1    4    4    0    0 -0.37727903110E+02  0.16376963035E+02  0.14912724682E+02  0.43749159406E+02  0.00000000000E+00 0. -1.
</event>
<event>
 8    1  0.5951278E-006  0.1402824E+03  0.7561462E-02  0.1212949E+00
         -2   -1    0    0    0  501 -0.00000000000E+00  0.00000000000E+00  0.20437932153E+03  0.20437932153E+03  0.00000000000E+00 0.  1.
          2   -1    0    0  501    0  0.00000000000E+00 -0.00000000000E+00 -0.11417302237E+03  0.11417302237E+03  0.00000000000E+00 0. -1.
         23    2    1    2    0    0  0.10127921526E+03 -0.24273345636E+02  0.72153094242E+02  0.17804490973E+03  0.12508895282E+03 0.  0.
         23    2    1    2    0    0 -0.10127921526E+03  0.24273345636E+02  0.18053204925E+02  0.14050743417E+03  0.92572923134E+02 0.  0.
          5    1    3    3  502    0  0.21196001661E+02 -0.57528710101E+02 -0.53295304472E+01  0.61682244342E+02  0.41800000000E+01 0. -1.
         -5    1    3    3    0  502  0.80083213602E+02  0.33255364465E+02  0.77482624689E+02  0.11636266538E+03  0.41800000000E+01 0. -1.
        -11    1    4    4    0    0 -0.55983591910E+02 -0.28443956810E+02 -0.13414313228E+02  0.64211876172E+02  0.00000000000E+00 0.  1.
         11    1    4    4    0    0 -0.45295623354E+02  0.52717302447E+02  0.31467518152E+02  0.76295558003E+02  0.00000000000E+00 0. -1.
</event>
<event>
 8    1  0.5951278E-006  0.9187065E+02  0.7561462E-02  0.1298384E+00
          1   -1    0    0  501    0  0.00000000000E+00  0.00000000000E+00  0.60751586906E+02  0.60751586906E+02  0.00000000000E+00 0. -1.
         -1   -1    0    0    0  501 -0.00000000000E+00 -0.00000000000E+00 -0.22958069541E+03  0.22958069541E+03  0.00000000000E+00 0.  1.
         23    2    1    2    0    0 -0.31784706919E+02  0.46213732126E+02 -0.11975788284E+03  0.17348161712E+03  0.11228510295E+03 0.  0.
         23    2    1    2    0    0  0.31784706919E+02 -0.46213732126E+02 -0.49071225669E+02  0.11685066520E+03  0.90000645210E+02 0.  0.
          5    1    3    3  502    0  0.22255559307E+02  0.96979667484E+01  0.11246797265E+02  0.27079943276E+02  0.41800000000E+01 0. -1.
         -5    1    3    3    0  502 -0.54040266226E+02  0.36515765378E+02 -0.13100468010E+03  0.14640167384E+03  0.41800000000E+01 0.  1.
        -11    1    4    4    0    0  0.11322723181E+01 -0.60093562817E+02 -0.35040865011E+01  0.60206286672E+02  0.00000000000E+00 0.  1.
         11    1    4    4    0    0  0.30652434601E+02  0.13879830691E+02 -0.45567139168E+02  0.56644378529E+02  0.00000000000E+00 0. -1.
</event>
<event>
 8    1  0.5951278E-006  0.1128106E+03  0.7561462E-02  0.1255452E+00
          1   -1    0    0  501    0  0.00000000000E+00  0.00000000000E+00  0.74282160368E+03  0.74282160368E+03  0.00000000000E+00 0. -1.
         -1   -1    0    0    0  501 -0.00000000000E+00 -0.00000000000E+00 -0.26900600559E+02  0.26900600559E+02  0.00000000000E+00 0.  1.
         23    2    1    2    0    0 -0.80025401917E+02 -0.37767229676E+02  0.33475359508E+03  0.36815478352E+03  0.12509015397E+03 0.  0.
         23    2    1    2    0    0  0.80025401917E+02  0.37767229676E+02  0.38116740804E+03  0.40156742072E+03  0.90207382413E+02 0.  0.
          5    1    3    3  502    0 -0.54350938292E+02  0.76138546009E+01  0.30079816387E+03  0.30579241826E+03  0.41800000000E+01 0. -1.
         -5    1    3    3    0  502 -0.25674463625E+02 -0.45381084277E+02  0.33955431210E+02  0.62362365263E+02  0.41800000000E+01 0. -1.
        -11    1    4    4    0    0  0.68981894623E+02 -0.95897424005E+01  0.15054677562E+03  0.16587584693E+03  0.00000000000E+00 0.  1.
         11    1    4    4    0    0  0.11043507295E+02  0.47356972077E+02  0.23062063242E+03  0.23569157379E+03  0.00000000000E+00 0. -1.
</event>
<event>
 8    1  0.5951278E-006  0.9832082E+02  0.7561462E-02  0.1283867E+00
          1   -1    0    0  501    0  0.00000000000E+00  0.00000000000E+00  0.50143967117E+03  0.50143967117E+03  0.00000000000E+00 0. -1.
         -1   -1    0    0    0  501 -0.00000000000E+00 -0.00000000000E+00 -0.26666454836E+02  0.26666454836E+02  0.00000000000E+00 0.  1.
         23    2    1    2    0    0  0.18892798658E+02  0.23876083887E+02  0.21414115172E+03  0.24986299200E+03  0.12509227270E+03 0.  0.
         23    2    1    2    0    0 -0.18892798658E+02 -0.23876083887E+02  0.26063206462E+03  0.27824313401E+03  0.92537361609E+02 0.  0.
          5    1    3    3  502    0 -0.22418578315E+02 -0.28403268958E+02  0.14243489751E+02  0.39111222704E+02  0.41800000000E+01 0.  1.
         -5    1    3    3    0  502  0.41311376973E+02  0.52279352845E+02  0.19989766197E+03  0.21075176930E+03  0.41800000000E+01 0.  1.
        -11    1    4    4    0    0 -0.39838864007E+02  0.20189929817E+02  0.85772901341E+02  0.96704492946E+02  0.00000000000E+00 0.  1.
         11    1    4    4    0    0  0.20946065350E+02 -0.44066013704E+02  0.17485916328E+03  0.18153864106E+03  0.00000000000E+00 0. -1.
</event>
<event>
 8    1  0.5951278E-006  0.1795395E+03  0.7561462E-02  0.1168249E+00
          3   -1    0    0  501    0  0.00000000000E+00  0.00000000000E+00  0.14009140719E+03  0.14009140719E+03  0.00000000000E+00 0. -1.
         -3   -1    0    0    0  501 -0.00000000000E+00 -0.00000000000E+00 -0.27055903195E+03  0.27055903195E+03  0.00000000000E+00 0.  1.
         23    2    1    2    0    0 -0.88318118695E+01  0.14492692065E+03 -0.14076494168E+03  0.23778344477E+03  0.12507751423E+03 0.  0.
         23    2    1    2    0    0  0.88318118695E+01 -0.14492692065E+03  0.10297316924E+02  0.17286699436E+03  0.93247786968E+02 0.  0.
          5    1    3    3  502    0 -0.26793583372E+01  0.16763907809E+03 -0.12456140685E+03  0.20890920502E+03  0.41800000000E+01 0. -1.
         -5    1    3    3    0  502 -0.61524535324E+01 -0.22712157439E+02 -0.16203534834E+02  0.28874239750E+02  0.41800000000E+01 0. -1.
        -11    1    4    4    0    0 -0.22954549956E+02 -0.13059895806E+03  0.25156933468E+02  0.13496618284E+03  0.00000000000E+00 0. -1.
         11    1    4    4    0    0  0.31786361826E+02 -0.14327962594E+02 -0.14859616544E+02  0.37900811522E+02  0.00000000000E+00 0.  1.
</event>
<event>
 8    1  0.5951278E-006  0.9633605E+02  0.7561462E-02  0.1288195E+00
          3   -1    0    0  501    0  0.00000000000E+00  0.00000000000E+00  0.18929129810E+02  0.18929129810E+02  0.00000000000E+00 0. -1.
         -3   -1    0    0    0  501 -0.00000000000E+00 -0.00000000000E+00 -0.93137539441E+03  0.93137539441E+03  0.00000000000E+00 0.  1.
         23    2    1    2    0    0  0.71527788406E+02  0.28115430682E+02 -0.56275978449E+03  0.58159401830E+03  0.12508527142E+03 0.  0.
         23    2    1    2    0    0 -0.71527788406E+02 -0.28115430682E+02 -0.34968648011E+03  0.36871050592E+03  0.88091434588E+02 0.  0.
          5    1    3    3  502    0  0.46743920508E+02  0.21028552218E+02 -0.55023299436E+03  0.55263099316E+03  0.41800000000E+01 0.  1.
         -5    1    3    3    0  502  0.24783867898E+02  0.70868784638E+01 -0.12526790123E+02  0.28963025137E+02  0.41800000000E+01 0.  1.
        -11    1    4    4    0    0 -0.85589184246E+02 -0.21648957391E+01 -0.22941171705E+03  0.24486717043E+03  0.00000000000E+00 0.  1.
         11    1    4    4    0    0  0.14061395841E+02 -0.25950534943E+02 -0.12027476306E+03  0.12384333549E+03  0.00000000000E+00 0. -1.
</event>
<event>
 7    1  0.5951278E-006  0.1084098E+03  0.7561462E-02  0.1263543E+00
          2   -1    0    0  501    0  0.00000000000E+00  0.00000000000E+00  0.27916995414E+02  0.27916995414E+02  0.00000000000E+00 0. -1.
         -2   -1    0    0    0  501 -0.00000000000E+00 -0.00000000000E+00 -0.60688088629E+03  0.60688088629E+03  0.00000000000E+00 0.  1.
         23    2    1    2    0    0 -0.26156116544E+02  0.39987887852E+01 -0.10104623704E+03  0.13889567869E+03  0.91550722518E+02 0.  0.
          5    1    1    2  502    0 -0.21003907525E+02  0.47542849778E+02 -0.11460028763E+03  0.12590546065E+03  0.41800000000E+01 0. -1.
         -5    1    1    2    0  502  0.47160024069E+02 -0.51541638563E+02 -0.36331736621E+03  0.36999674237E+03  0.41800000000E+01 0.  1.
        -11    1    3    3    0    0  0.30673478653E+02 -0.15807914550E+02 -0.29454118073E+02  0.45368464009E+02  0.00000000000E+00 0. -1.
         11    1    3    3    0    0 -0.56829595197E+02  0.19806703335E+02 -0.71592118966E+02  0.93527214677E+02  0.00000000000E+00 0.  1.
</event>
<event>
 8    1  0.5951278E-006  0.6432373E+02  0.7561462E-02  0.1380534E+00
         -4   -1    0    0    0  501 -0.00000000000E+00  0.00000000000E+00  0.67542935569E+02  0.67542935569E+02  0.00000000000E+00 0.  1.
          4   -1    0    0  501    0  0.00000000000E+00 -0.00000000000E+00 -0.17630925239E+03  0.17630925239E+03  0.00000000000E+00 0. -1.
         23    2    1    2    0    0  0.21526559404E+02  0.17254662823E+02 -0.63853376284E+02  0.14312886031E+03  0.12508997099E+03 0.  0.
         23    2    1    2    0    0 -0.21526559404E+02 -0.17254662823E+02 -0.44912940536E+02  0.10072332765E+03  0.85830649284E+02 0.  0.
          5    1    3    3  502    0  0.22478199895E+02  0.13990655634E+01  0.35597583535E+02  0.42330688732E+02  0.41800000000E+01 0.  1.
         -5    1    3    3    0  502 -0.95164049117E+00  0.15855597259E+02 -0.99450959819E+02  0.10079817158E+03  0.41800000000E+01 0.  1.
        -11    1    4    4    0    0  0.22325735572E+02 -0.35404856448E+02 -0.14231054176E+02  0.44209334217E+02  0.00000000000E+00 0.  1.
         11    1    4    4    0    0 -0.43852294976E+02  0.18150193625E+02 -0.30681886360E+02  0.56513993434E+02  0.00000000000E+00 0. -1.
</event>
<event>
 8    1  0.5951278E-006  0.1684786E+03  0.7561462E-02  0.1179444E+00
         -2   -1    0    0    0  501 -0.00000000000E+00  0.00000000000E+00  0.54189787254E+02  0.54189787254E+02  0.00000000000E+00 0.  1.
          2   -1    0    0  501    0  0.00000000000E+00 -0.00000000000E+00 -0.70368400721E+03  0.70368400721E+03  0.00000000000E+00 0. -1.
         23    2    1    2    0    0  0.11725864693E+03 -0.75732237170E+02 -0.18493723015E+03  0.26331357069E+03  0.12508914976E+03 0.  0.
         23    2    1    2    0    0 -0.11725864693E+03  0.75732237170E+02 -0.46455698980E+03  0.49456022377E+03  0.96393236990E+02 0.  0.
          5    1    3    3  502    0  0.14917401028E+02 -0.63685287858E+02 -0.13202685514E+03  0.14740050075E+03  0.41800000000E+01 0. -1.
         -5    1    3    3    0  502  0.10234124590E+03 -0.12046949312E+02 -0.52910375017E+02  0.11591306994E+03  0.41800000000E+01 0. -1.
        -11    1    4    4    0    0 -0.46531592038E+02  0.85047138310E+02 -0.29789061987E+03  0.31326829747E+03  0.00000000000E+00 0. -1.
         11    1    4    4    0    0 -0.70727054888E+02 -0.93149011399E+01 -0.16666636993E+03  0.18129192630E+03  0.00000000000E+00 0.  1.
</event>
<event>
 8    1  0.5951278E-006  0.9986234E+02  0.7561462E-02  0.1280586E+00
         -2   -1    0    0    0  501 -0.00000000000E+00  0.00000000000E+00  0.19753769794E+02  0.19753769794E+02  0.00000000000E+00 0.  1.
          2   -1    0    0  501    0  0.00000000000E+00 -0.00000000000E+00 -0.63167265978E+03  0.63167265978E+03  0.00000000000E+00 0. -1.
         23    2    1    2    0    0 -0.25810878187E+02 -0.26317219700E+02 -0.36236223763E+03  0.38511367828E+03  0.12508939383E+03 0.  0.
         23    2    1    2    0    0  0.25810878187E+02  0.26317219700E+02 -0.24955665236E+03  0.26631275130E+03  0.85353156264E+02 0.  0.
          5    1    3    3  502    0 -0.25380845742E+02  0.48759097160E+02 -0.14642431528E+03  0.15645826726E+03  0.41800000000E+01 0. -1.
         -5    1    3    3    0  502 -0.43003244498E+00 -0.75076316860E+02 -0.21593792235E+03  0.22865541102E+03  0.41800000000E+01 0. -1.
        -11    1    4    4    0    0 -0.16845616640E+01 -0.17550087056E+02 -0.81613466885E+01  0.19428095209E+02  0.00000000000E+00 0.  1.
         11    1    4    4    0    0  0.27495439851E+02  0.43867306757E+02 -0.24139530567E+03  0.24688465609E+03  0.00000000000E+00 0. -1.
</event>
<event>
 8    1  0.5951278E-006  0.1233594E+03  0.7561462E-02  0.1237656E+00
         -2   -1    0    0    0  501 -0.00000000000E+00  0.00000000000E+00  0.55009175026E+02  0.55009175026E+02  0.00000000000E+00 0.  1.
          2   -1    0    0  501    0  0.00000000000E+00 -0.00000000000E+00 -0.29627987825E+03  0.29627987825E+03  0.00000000000E+00 0. -1.
         23    2    1    2    0    0  0.48959867872E+02  0.47824534843E+02 -0.12655747895E+03  0.19065046531E+03  0.12508616891E+03 0.  0.
         23    2    1    2    0    0 -0.48959867872E+02 -0.47824534843E+02 -0.11471322428E+03  0.16063858796E+03  0.89226550551E+02 0.  0.
          5    1    3    3  502    0  0.87931764805E+02  0.23696177260E+02 -0.57915188931E+02  0.10800530351E+03  0.41800000000E+01 0. -1.
         -5    1    3    3    0  502 -0.38971896932E+02  0.24128357583E+02 -0.68642290015E+02  0.82645161798E+02  0.41800000000E+01 0. -1.
        -11    1    4    4    0    0  0.20929257871E+02  0.54752181871E+01 -0.39145098114E+02  0.44725278709E+02  0.00000000000E+00 0.  1.
         11    1    4    4    0    0 -0.69889125743E+02 -0.53299753030E+02 -0.75568126161E+02  0.11591330925E+03  0.00000000000E+00 0. -1.
</event>
<event>
 8    1  0.5951278E-006  0.1491868E+03  0.7561462E-02  0.1201476E+00
         -1   -1    0    0    0  501 -0.00000000000E+00  0.00000000000E+00  0.21313617984E+03  0.21313617984E+03  0.00000000000E+00 0.  1.
          1   -1    0    0  501    0  0.00000000000E+00 -0.00000000000E+00 -0.14042757035E+03  0.14042757035E+03  0.00000000000E+00 0. -1.
         23    2    1    2    0    0 -0.57168072187E+02  0.11603906824E+03  0.95828318448E+02  0.20387625007E+03  0.12509678209E+03 0.  0.
         23    2    1    2    0    0  0.57168072187E+02 -0.11603906824E+03 -0.23119708960E+02  0.14968750012E+03  0.71683839975E+02 0.  0.
          5    1    3    3  502    0  0.76137016909E+01  0.87045129697E+02  0.99746510869E+02  0.13267125494E+03  0.41800000000E+01 0. -1.
         -5    1    3    3    0  502 -0.64781773878E+02  0.28993938540E+02 -0.39181924207E+01  0.71204995125E+02  0.41800000000E+01 0. -1.
        -11    1    4    4    0    0 -0.15316195208E+01 -0.55333944296E+02 -0.33351605021E+02  0.64626007205E+02  0.00000000000E+00 0. -1.
         11    1    4    4    0    0  0.58699691708E+02 -0.60705123941E+02  0.10231896061E+02  0.85061492911E+02  0.00000000000E+00 0.  1.
</event>
<event>
 7    1  0.5951278E-006  0.1327118E+03  0.7561462E-02  0.1223486E+00
          1   -1    0    0  501    0  0.00000000000E+00  0.00000000000E+00  0.30702547629E+03  0.30702547629E+03  0.00000000000E+00 0. -1.
         -1   -1    0    0    0  501 -0.00000000000E+00 -0.00000000000E+00 -0.71310558467E+02  0.71310558467E+02  0.00000000000E+00 0.  1.
         23    2    1    2    0    0 -0.22109314702E+02  0.54290388718E+02  0.10786134938E+03  0.15265849815E+03  0.90742924044E+02 0.  0.
          5    1    1    2  502    0 -0.45299418639E+02  0.27445018511E+02  0.10431772370E+03  0.11706804111E+03  0.41800000000E+01 0. -1.
         -5    1    1    2    0  502  0.67408733341E+02 -0.81735407229E+02  0.23535844744E+02  0.10860949550E+03  0.41800000000E+01 0.  1.
        -11    1    3    3    0    0 -0.75005796310E+01  0.78030771967E+02  0.90882475881E+02  0.12001951712E+03  0.00000000000E+00 0.  1.
         11    1    3    3    0    0 -0.14608735071E+02 -0.23740383249E+02  0.16978873498E+02  0.32638981026E+02  0.00000000000E+00 0. -1.
</event>
<event>
 8    1  0.5951278E-006  0.8694492E+02  0.7561462E-02  0.1310423E+00
         -1   -1    0    0    0  501 -0.00000000000E+00  0.00000000000E+00  0.70390700244E+03  0.70390700244E+03  0.00000000000E+00 0.  1.
          1   -1    0    0  501    0  0.00000000000E+00 -0.00000000000E+00 -0.19505812076E+02  0.19505812076E+02  0.00000000000E+00 0. -1.
         23    2    1    2    0    0  0.36975288787E+01  0.19477412080E+02  0.51058327436E+03  0.52605756692E+03  0.12509293488E+03 0.  0.
         23    2    1    2    0    0 -0.36975288787E+01 -0.19477412080E+02  0.17381791600E+03  0.19735524760E+03  0.91342128991E+02 0.  0.
          5    1    3    3  502    0 -0.35920402518E+02  0.34924390148E+02  0.88225953490E+02  0.10154447111E+03  0.41800000000E+01 0.  1.
         -5    1    3    3    0  502  0.39617931397E+02 -0.15446978069E+02  0.42235732087E+03  0.42451309581E+03  0.41800000000E+01 0.  1.
        -11    1    4    4    0    0 -0.30756479317E+02  0.17254347280E+02  0.29434681806E+02  0.45935541937E+02  0.00000000000E+00 0. -1.
         11    1    4    4    0    0  0.27058950439E+02 -0.36731759359E+02  0.14438323420E+03  0.15141970566E+03  0.00000000000E+00 0.  1.
</event>
<event>
 7    1  0.5951278E-006  0.1335511E+03  0.7561462E-02  0.1222280E+00
         -1   -1    0    0    0  501 -0.00000000000E+00  0.00000000000E+00  0.47064426924E+03  0.47064426924E+03  0.00000000000E+00 0.  1.
          1   -1    0    0  501    0  0.00000000000E+00 -0.00000000000E+00 -0.48534315679E+02  0.48534315679E+02  0.00000000000E+00 0. -1.
         23    2    1    2    0    0 -0.39955765861E+02 -0.62058066712E+02  0.92372947952E+02  0.14825658854E+03  0.89440414036E+02 0.  0.
          5    1    1    2  502    0 -0.96453373804E+00 -0.44736662425E+02  0.16012190174E+03  0.16630933560E+03  0.41800000000E+01 0. -1.
         -5    1    1    2    0  502  0.40920299599E+02  0.10679472914E+03  0.16961510386E+03  0.20461266077E+03  0.41800000000E+01 0.  1.
        -11    1    3    3    0    0 -0.56467447968E+01  0.18934369117E+02  0.43155334382E+02  0.47463448529E+02  0.00000000000E+00 0.  1.
         11    1    3    3    0    0 -0.34309021064E+02 -0.80992435829E+02  0.49217613570E+02  0.10079314001E+03  0.00000000000E+00 0. -1.
</event>
<event>
 8    1  0.5951278E-006  0.1052470E+03  0.7561462E-02  0.1269634E+00
          1   -1    0    0  501    0  0.00000000000E+00  0.00000000000E+00  0.28911143603E+03  0.28911143603E+03  0.00000000000E+00 0. -1.
         -1   -1    0    0    0  501 -0.00000000000E+00 -0.00000000000E+00 -0.57976173323E+02  0.57976173323E+02  0.00000000000E+00 0.  1.
         23    2    1    2    0    0  0.16959082646E+02 -0.53278673426E+02  0.84649545172E+02  0.16105682033E+03  0.12509007295E+03 0.  0.
         23    2    1    2    0    0 -0.16959082646E+02  0.53278673426E+02  0.14648571754E+03  0.18603078903E+03  0.10011574051E+03 0.  0.
          5    1    3    3  502    0  0.48561387512E+02 -0.28996258618E+02 -0.10622656494E+02  0.57700126533E+02  0.41800000000E+01 0. -1.
         -5    1    3    3    0  502 -0.31602304866E+02 -0.24282414808E+02  0.95272201667E+02  0.10335669379E+03  0.41800000000E+01 0. -1.
        -11    1    4    4    0    0 -0.34318189376E+02 -0.19100635690E+02  0.62428363936E+02  0.73755494911E+02  0.00000000000E+00 0. -1.
         11    1    4    4    0    0  0.17359106729E+02  0.72379309115E+02  0.84057353600E+02  0.11227529412E+03  0.00000000000E+00 0.  1.
</event>
<event>
 8    1  0.5951278E-006  0.8482419E+02  0.7561462E-02  0.1315893E+00
         -1   -1    0    0    0  501 -0.00000000000E+00  0.00000000000E+00  0.79808768773E+02  0.79808768773E+02  0.00000000000E+00 0.  1.
          1   -1    0    0  501    0  0.00000000000E+00 -0.00000000000E+00 -0.18354865230E+03  0.18354865230E+03  0.00000000000E+00 0. -1.
         23    2    1    2    0    0 -0.47987732908E+01  0.19770327628E+00 -0.73764920128E+00  0.12518860856E+03  0.12509426956E+03 0.  0.
         23    2    1    2    0    0  0.47987732908E+01 -0.19770327628E+00 -0.10300223432E+03  0.13816881251E+03  0.91967892020E+02 0.  0.
          5    1    3    3  502    0  0.34433217862E+02  0.23903564754E+02  0.44061382637E+02  0.60958221269E+02  0.41800000000E+01 0.  1.
         -5    1    3    3    0  502 -0.39231991153E+02 -0.23705861478E+02 -0.44799031839E+02  0.64230387294E+02  0.41800000000E+01 0.  1.
        -11    1    4    4    0    0  0.31614307748E+02 -0.28459017429E+02 -0.21121019109E+02  0.47491868521E+02  0.00000000000E+00 0.  1.
         11    1    4    4    0    0 -0.26815534457E+02  0.28261314152E+02 -0.81881215216E+02  0.90676943988E+02  0.00000000000E+00 0. -1.
</event>
<event>
 8    1  0.5951278E-006  0.1607376E+03  0.7561462E-02  0.1187867E+00
         -2   -1    0    0    0  501 -0.00000000000E+00  0.00000000000E+00  0.38511645380E+02  0.38511645380E+02  0.00000000000E+00 0.  1.
          2   -1    0    0  501    0  0.00000000000E+00 -0.00000000000E+00 -0.90437694008E+03  0.90437694008E+03  0.00000000000E+00 0. -1.
         23    2    1    2    0    0  0.13093106090E+03 -0.75990050074E+02 -0.41425316012E+03  0.45844174642E+03  0.12508286764E+03 0.  0.
         23    2    1    2    0    0 -0.13093106090E+03  0.75990050074E+02 -0.45161213458E+03  0.48444683904E+03  0.88418263560E+02 0.  0.
          5    1    3    3  502    0  0.21141830055E+02 -0.36034401174E+01 -0.23537423014E+03  0.23638625673E+03  0.41800000000E+01 0. -1.
         -5    1    3    3    0  502  0.10978923085E+03 -0.72386609956E+02 -0.17887892998E+03  0.22205548969E+03  0.41800000000E+01 0. -1.
        -11    1    4    4    0    0 -0.13854012031E+03  0.61271019904E+02 -0.43643399186E+03  0.46197633280E+03  0.00000000000E+00 0. -1.
         11    1    4    4    0    0  0.76090594015E+01  0.14719030170E+02 -0.15178142720E+02  0.22470506237E+02  0.00000000000E+00 0.  1.
</event>
<event>
 8    1  0.5951278E-006  0.8316269E+02  0.7561462E-02  0.1320308E+00
          1   -1    0    0  501    0  0.00000000000E+00  0.00000000000E+00  0.83852798023E+02  0.83852798023E+02  0.00000000000E+00 0. -1.
         -1   -1    0    0    0  501 -0.00000000000E+00 -0.00000000000E+00 -0.45788218163E+03  0.45788218163E+03  0.00000000000E+00 0.  1.
         23    2    1    2    0    0  0.21502337120E+02 -0.14326993564E+02 -0.41979144601E+03  0.43621901392E+03  0.11573485525E+03 0.  0.
         23    2    1    2    0    0 -0.21502337120E+02  0.14326993564E+02  0.45762062399E+02  0.10551596573E+03  0.91497756386E+02 0.  0.
          5    1    3    3  502    0  0.36944341523E+02  0.43493943984E+02 -0.23810663756E+03  0.24488538296E+03  0.41800000000E+01 0. -1.
         -5    1    3    3    0  502 -0.15442004402E+02 -0.57820937548E+02 -0.18168480844E+03  0.19133363096E+03  0.41800000000E+01 0.  1.
        -11    1    4    4    0    0  0.10156427607E+01 -0.13374704154E+02  0.64025987618E+02  0.65415910388E+02  0.00000000000E+00 0. -1.
         11    1    4    4    0    0 -0.22517979881E+02  0.27701697717E+02 -0.18263925219E+02  0.40100055346E+02  0.00000000000E+00 0.  1.
</event>
<event>
 8    1  0.5951278E-006  0.9385393E+02  0.7561462E-02  0.1293778E+00
         -3   -1    0    0    0  501 -0.00000000000E+00  0.00000000000E+00  0.12511108602E+03  0.12511108602E+03  0.00000000000E+00 0.  1.
          3   -1    0    0  501    0  0.00000000000E+00 -0.00000000000E+00 -0.17767926061E+03  0.17767926061E+03  0.00000000000E+00 0. -1.
         23    2    1    2    0    0  0.82550033580E+01  0.49438805682E+02  0.61592963431E+02  0.14817327526E+03  0.12509710536E+03 0.  0.
         23    2    1    2    0    0 -0.82550033580E+01 -0.49438805682E+02 -0.11416113801E+03  0.15461707137E+03  0.91440323383E+02 0.  0.
          5    1    3    3  502    0  0.29212715858E+02 -0.53800187781E+01  0.80873801155E+02  0.86257587974E+02  0.41800000000E+01 0.  1.
         -5    1    3    3    0  502 -0.20957712500E+02  0.54818824460E+02 -0.19280837724E+02  0.61915687283E+02  0.41800000000E+01 0.  1.
        -11    1    4    4    0    0 -0.34584630476E+02 -0.60996901372E+02 -0.56003552205E+02  0.89739158129E+02  0.00000000000E+00 0.  1.
         11    1    4    4    0    0  0.26329627118E+02  0.11558095690E+02 -0.58157585808E+02  0.64877913246E+02  0.00000000000E+00 0. -1.
</event>
<event>
 8    1  0.5951278E-006  0.1349937E+03  0.7561462E-02  0.1220229E+00
          2   -1    0    0  501    0  0.00000000000E+00  0.00000000000E+00  0.54494926677E+03  0.54494926677E+03  0.00000000000E+00 0.  1.
         -2   -1    0    0    0  501 -0.00000000000E+00 -0.00000000000E+00 -0.41590986728E+02  0.41590986728E+02  0.00000000000E+00 0. -1.
         23    2    1    2    0    0 -0.97721409543E+01 -0.99550917319E+02  0.21007991348E+03  0.26416866472E+03  0.12508250676E+03 0.  0.
         23    2    1    2    0    0  0.97721409543E+01  0.99550917319E+02  0.29327836656E+03  0.32237158877E+03  0.88912097466E+02 0.  0.
          5    1    3    3  502    0  0.22204879048E+02 -0.10184452473E+03  0.20686241890E+03  0.23167843366E+03  0.41800000000E+01 0.  1.
         -5    1    3    3    0  502 -0.31977020002E+02  0.22936074144E+01  0.32174945799E+01  0.32490231063E+02  0.41800000000E+01 0.  1.
        -11    1    4    4    0    0  0.46166483904E+02  0.30652347986E+02  0.13575165880E+03  0.14662681726E+03  0.00000000000E+00 0. -1.
         11    1    4    4    0    0 -0.36394342950E+02  0.68898569334E+02  0.15752670776E+03  0.17574477151E+03  0.00000000000E+00 0.  1.
</event>
<event>
 8    1  0.5951278E-006  0.9626068E+02  0.7561462E-02  0.1288362E+00
          2   -1    0    0  501    0  0.00000000000E+00  0.00000000000E+00  0.39534421102E+03  0.39534421102E+03  0.00000000000E+00 0. -1.
         -2   -1    0    0    0  501 -0.00000000000E+00 -0.00000000000E+00 -0.30728654695E+02  0.30728654695E+02  0.00000000000E+00 0.  1.
         23    2    1    2    0    0  0.14335942571E+02  0.73656697700E+01  0.18193406861E+03  0.22137768028E+03  0.12509316394E+03 0.  0.
         23    2    1    2    0    0 -0.14335942571E+02 -0.73656697700E+01  0.18268148771E+03  0.20469518543E+03  0.90927557128E+02 0.  0.
          5    1    3    3  502    0  0.54454973734E+02 -0.12544087076E+02  0.16337323113E+03  0.17271648252E+03  0.41800000000E+01 0. -1.
         -5    1    3    3    0  502 -0.40119031163E+02  0.19909756846E+02  0.18560837474E+02  0.48661197754E+02  0.41800000000E+01 0. -1.
        -11    1    4    4    0    0 -0.25672050470E+02 -0.45213155864E+02  0.11724867226E+03  0.12825963818E+03  0.00000000000E+00 0. -1.
         11    1    4    4    0    0  0.11336107899E+02  0.37847486094E+02  0.65432815450E+02  0.76435547252E+02  0.00000000000E+00 0.  1.
</event>
<event>
 8    1  0.5951278E-006  0.4171113E+03  0.7561462E-02  0.1038011E+00
         -1   -1    0    0    0  501 -0.00000000000E+00  0.00000000000E+00  0.21148320063E+03  0.21148320063E+03  0.00000000000E+00 0.  1.
          1   -1    0    0  501    0  0.00000000000E+00 -0.00000000000E+00 -0.10523268206E+04  0.10523268206E+04  0.00000000000E+00 0. -1.
         23    2    1    2    0    0  0.36929745754E+03 -0.16789291337E+03 -0.13629555809E+03  0.44586182823E+03  0.12509056003E+03 0.  0.
         23    2    1    2    0    0 -0.36929745754E+03  0.16789291337E+03 -0.70454806183E+03  0.81794819295E+03  0.89903461642E+02 0.  0.
          5    1    3    3  502    0  0.37898779384E+03 -0.16200754202E+03 -0.13490134165E+03  0.43369809307E+03  0.41800000000E+01 0.  1.
         -5    1    3    3    0  502 -0.96903363003E+01 -0.58853713580E+01 -0.13942164412E+01  0.12163735163E+02  0.41800000000E+01 0.  1.
        -11    1    4    4    0    0 -0.33364612468E+03  0.16957019732E+03 -0.67412664185E+03  0.77105156610E+03  0.00000000000E+00 0. -1.
         11    1    4    4    0    0 -0.35651332866E+02 -0.16772839486E+01 -0.30421419982E+02  0.46896626854E+02  0.00000000000E+00 0.  1.
</event>
<event>
 8    1  0.5951278E-006  0.2193976E+03  0.7561462E-02  0.1134333E+00
         -3   -1    0    0    0  501 -0.00000000000E+00  0.00000000000E+00  0.69228718425E+03  0.69228718425E+03  0.00000000000E+00 0.  1.
          3   -1    0    0  501    0  0.00000000000E+00 -0.00000000000E+00 -0.14983372637E+03  0.14983372637E+03  0.00000000000E+00 0. -1.
         23    2    1    2    0    0  0.11368075592E+03 -0.17821291372E+03  0.56000653267E+03  0.61150466987E+03  0.12508991868E+03 0.  0.
         23    2    1    2    0    0 -0.11368075592E+03  0.17821291372E+03 -0.17553074794E+02  0.23061624075E+03  0.90512889582E+02 0.  0.
          5    1    3    3  502    0  0.48174028216E+02 -0.73873841400E+02  0.39941555056E+03  0.40905786371E+03  0.41800000000E+01 0. -1.
         -5    1    3    3    0  502  0.65506727700E+02 -0.10433907232E+03  0.16059098211E+03  0.20244680616E+03  0.41800000000E+01 0. -1.
        -11    1    4    4    0    0  0.50817103716E+01  0.58095860275E+02  0.10879919886E+02  0.59323902586E+02  0.00000000000E+00 0.  1.
         11    1    4    4    0    0 -0.11876246629E+03  0.12011705345E+03 -0.28432994679E+02  0.17129233817E+03  0.00000000000E+00 0. -1.
</event>
<event>
 8    1  0.5951278E-006  0.1557329E+03  0.7561462E-02  0.1193600E+00
         -1   -1    0    0    0  501 -0.00000000000E+00  0.00000000000E+00  0.54288893595E+02  0.54288893595E+02  0.00000000000E+00 0.  1.
          1   -1    0    0  501    0  0.00000000000E+00 -0.00000000000E+00 -0.62159766372E+03  0.62159766372E+03  0.00000000000E+00 0. -1.
         23    2    1    2    0    0  0.12784470185E+03 -0.66365042823E+02 -0.22435285912E+03  0.29450295614E+03  0.12509675887E+03 0.  0.
         23    2    1    2    0    0 -0.12784470185E+03  0.66365042823E+02 -0.34295591100E+03  0.38138360117E+03  0.84179021458E+02 0.  0.
          5    1    3    3  502    0 -0.61224644073E+00 -0.31770915653E+02  0.17880063331E+01  0.32100393982E+02  0.41800000000E+01 0. -1.
         -5    1    3    3    0  502  0.12845694829E+03 -0.34594127170E+02 -0.22614086546E+03  0.26240256216E+03  0.41800000000E+01 0. -1.
        -11    1    4    4    0    0 -0.36523014082E+02  0.64347881154E+01 -0.23830492376E+02  0.44082075978E+02  0.00000000000E+00 0.  1.
         11    1    4    4    0    0 -0.91321687766E+02  0.59930254708E+02 -0.31912541862E+03  0.33730152519E+03  0.00000000000E+00 0. -1.
</event>
<event>
 6    1  0.1203505E-005  0.1028085E+03  0.7561462E-02  0.1274499E+00
          2   -1    0    0  501    0  0.00000000000E+00  0.00000000000E+00  0.46129001972E+03  0.46129001972E+03  0.00000000000E+00 0. -1.
         -2   -1    0    0    0  501 -0.00000000000E+00 -0.00000000000E+00 -0.35416044432E+02  0.35416044432E+02  0.00000000000E+00 0.  1.
          5    1    1    2  502    0 -0.15640016979E+02 -0.86980695274E+02  0.25532663595E+03  0.27022104823E+03  0.41800000000E+01 0. -1.
         -5    1    1    2    0  502 -0.21637336331E+02  0.71877645126E+02  0.32010989744E+02  0.81711358187E+02  0.41800000000E+01 0.  1.
        -11    1    1    2    0    0  0.13281425966E+02  0.11750727491E+02  0.62835855052E+02  0.65290279157E+02  0.00000000000E+00 0. -1.
         11    1    1    2    0    0  0.23995927344E+02  0.33523226568E+01  0.75700494544E+02  0.79483378580E+02  0.00000000000E+00 0.  1.
</event>
<event>
 8    1  0.5951278E-006  0.1198147E+03  0.7561462E-02  0.1243403E+00
          2   -1    0    0  501    0  0.00000000000E+00  0.00000000000E+00  0.61395018657E+03  0.61395018657E+03  0.00000000000E+00 0. -1.
         -2   -1    0    0    0  501 -0.00000000000E+00 -0.00000000000E+00 -0.34541508254E+02  0.34541508254E+02  0.00000000000E+00 0.  1.
         23    2    1    2    0    0 -0.62068799769E+02  0.47227476338E+02  0.17788670468E+03  0.23102898895E+03  0.12509094135E+03 0.  0.
         23    2    1    2    0    0  0.62068799769E+02 -0.47227476338E+02  0.40152197363E+03  0.41746270587E+03  0.83499970400E+02 0.  0.
          5    1    3    3  502    0  0.25041656132E+02  0.28421772533E+02  0.77060098813E+01  0.38881058165E+02  0.41800000000E+01 0. -1.
         -5    1    3    3    0  502 -0.87110455901E+02  0.18805703805E+02  0.17018069480E+03  0.19214793079E+03  0.41800000000E+01 0. -1.
        -11    1    4    4    0    0  0.61466135263E+02 -0.67919763815E+02  0.29306010007E+03  0.30704299757E+03  0.00000000000E+00 0. -1.
         11    1    4    4    0    0  0.60266450616E+00  0.20692287477E+02  0.10846187356E+03  0.11041970830E+03  0.00000000000E+00 0.  1.
</event>
<event>
 8    1  0.5951278E-006  0.1161499E+03  0.7561462E-02  0.1249587E+00
         -2   -1    0    0    0  501 -0.00000000000E+00  0.00000000000E+00  0.16325124962E+03  0.16325124962E+03  0.00000000000E+00 0.  1.
          2   -1    0    0  501    0  0.00000000000E+00 -0.00000000000E+00 -0.10589361294E+03  0.10589361294E+03  0.00000000000E+00 0. -1.
         23    2    1    2    0    0  0.36768704871E+02  0.26185948390E+02  0.91558471851E+02  0.16147280890E+03  0.12511144110E+03 0.  0.
         23    2    1    2    0    0 -0.36768704871E+02 -0.26185948390E+02 -0.34200835169E+02  0.10767205367E+03  0.91574737038E+02 0.  0.
          5    1    3    3  502    0 -0.28564518049E+02  0.52763392866E+02  0.56816003939E+02  0.82737162277E+02  0.41800000000E+01 0. -1.
         -5    1    3    3    0  502  0.65333222921E+02 -0.26577444476E+02  0.34742467912E+02  0.78735646620E+02  0.41800000000E+01 0. -1.
        -11    1    4    4    0    0 -0.60308285648E+02  0.71064304740E+01 -0.26122517532E+02  0.66105798491E+02  0.00000000000E+00 0. -1.
         11    1    4    4    0    0  0.23539580776E+02 -0.33292378864E+02 -0.80783176368E+01  0.41566255177E+02  0.00000000000E+00 0.  1.
</event>
<event>
 8    1  0.5951278E-006  0.1189373E+03  0.7561462E-02  0.1244861E+00
         -2   -1    0    0    0  501 -0.00000000000E+00  0.00000000000E+00  0.88898000478E+02  0.88898000478E+02  0.00000000000E+00 0. -1.
          2   -1    0    0  501    0  0.00000000000E+00 -0.00000000000E+00 -0.18024336142E+03  0.18024336142E+03  0.00000000000E+00 0.  1.
         23    2    1    2    0    0  0.57988570155E+01 -0.59425299241E+02 -0.21872572190E+02  0.14032072907E+03  0.12508598907E+03 0.  0.
         23    2    1    2    0    0 -0.57988570155E+01  0.59425299241E+02 -0.69472788756E+02  0.12882063283E+03  0.90572038360E+02 0.  0.
          5    1    3    3  502    0 -0.32693506505E+01  0.39104215654E+02 -0.87481797536E+01  0.40420680160E+02  0.41800000000E+01 0.  1.
         -5    1    3    3    0  502  0.90682076659E+01 -0.98529514895E+02 -0.13124392436E+02  0.99900048912E+02  0.41800000000E+01 0.  1.
        -11    1    4    4    0    0  0.31766220876E+02  0.52227398059E+02 -0.66695529091E+02  0.90471473391E+02  0.00000000000E+00 0.  1.
         11    1    4    4    0    0 -0.37565077892E+02  0.71979011822E+01 -0.27772596649E+01  0.38349159439E+02  0.00000000000E+00 0. -1.
</event>
<event>
 8    1  0.5951278E-006  0.1125135E+03  0.7561462E-02  0.1255985E+00
         -1   -1    0    0    0  501 -0.00000000000E+00  0.00000000000E+00  0.20065892623E+02  0.20065892623E+02  0.00000000000E+00 0.  1.
          1   -1    0    0  501    0  0.00000000000E+00 -0.00000000000E+00 -0.69727525275E+03  0.69727525275E+03  0.00000000000E+00 0. -1.
         23    2    1    2    0    0  0.15004715508E+02 -0.32188100654E+02 -0.28931769521E+03  0.31720191455E+03  0.12510439848E+03 0.  0.
         23    2    1    2    0    0 -0.15004715508E+02  0.32188100654E+02 -0.38789166492E+03  0.40013923083E+03  0.91598280679E+02 0.  0.
          5    1    3    3  502    0  0.56924775104E+02  0.21291507922E+02 -0.15682200806E+03  0.16823903513E+03  0.41800000000E+01 0.  1.
         -5    1    3    3    0  502 -0.41920059596E+02 -0.53479608577E+02 -0.13249568715E+03  0.14896287941E+03  0.41800000000E+01 0.  1.
        -11    1    4    4    0    0  0.37406155181E+02  0.77566329564E+01 -0.19746628115E+03  0.20112761619E+03  0.00000000000E+00 0. -1.
         11    1    4    4    0    0 -0.52410870690E+02  0.24431467698E+02 -0.19042538377E+03  0.19901161465E+03  0.00000000000E+00 0.  1.
</event>
<event>
 8    1  0.5951278E-006  0.1195245E+03  0.7561462E-02  0.1243884E+00
         -2   -1    0    0    0  501 -0.00000000000E+00  0.00000000000E+00  0.47679228436E+02  0.47679228436E+02  0.00000000000E+00 0.  1.
          2   -1    0    0  501    0  0.00000000000E+00 -0.00000000000E+00 -0.47460135776E+03  0.47460135776E+03  0.00000000000E+00 0. -1.
         23    2    1    2    0    0 -0.54928785842E+02 -0.77475718646E+02 -0.15848928209E+03  0.22313341693E+03  0.12510000288E+03 0.  0.
         23    2    1    2    0    0  0.54928785842E+02  0.77475718646E+02 -0.26843284723E+03  0.29914716926E+03  0.91723371675E+02 0.  0.
          5    1    3    3  502    0  0.50047465278E+00  0.74157305079E+01  0.17794006759E+02  0.19731766530E+02  0.41800000000E+01 0. -1.
         -5    1    3    3    0  502 -0.55429260495E+02 -0.84891449154E+02 -0.17628328885E+03  0.20340165040E+03  0.41800000000E+01 0. -1.
        -11    1    4    4    0    0 -0.23147951905E+02  0.29169114036E+02 -0.10878157960E+03  0.11497868042E+03  0.00000000000E+00 0. -1.
         11    1    4    4    0    0  0.78076737747E+02  0.48306604610E+02 -0.15965126764E+03  0.18416848885E+03  0.00000000000E+00 0.  1.
</event>
<event>
 8    1  0.5951278E-006  0.1094288E+03  0.7561462E-02  0.1261631E+00
          1   -1    0    0  501    0  0.00000000000E+00  0.00000000000E+00  0.10719000233E+03  0.10719000233E+03  0.00000000000E+00 0. -1.
         -1   -1    0    0    0  501 -0.00000000000E+00 -0.00000000000E+00 -0.12976123851E+03  0.12976123851E+03  0.00000000000E+00 0.  1.
         23    2    1    2    0    0 -0.39220017566E+02  0.23470623718E+02 -0.21344369890E+02  0.13486123072E+03  0.12507153741E+03 0.  0.
         23    2    1    2    0    0  0.39220017566E+02 -0.23470623718E+02 -0.12268662902E+01  0.10209001011E+03  0.91278612001E+02 0.  0.
          5    1    3    3  502    0 -0.75029435273E+02  0.40684062784E+02  0.72084272823E+01  0.85755716696E+02  0.41800000000E+01 0. -1.
         -5    1    3    3    0  502  0.35809417708E+02 -0.17213439066E+02 -0.28552797172E+02  0.49105514022E+02  0.41800000000E+01 0. -1.
        -11    1    4    4    0    0  0.31994930456E+02 -0.53625999592E+02 -0.20327319023E+02  0.65670566511E+02  0.00000000000E+00 0.  1.
         11    1    4    4    0    0  0.72250871097E+01  0.30155375874E+02  0.19100452733E+02  0.36419443604E+02  0.00000000000E+00 0. -1.
</event>
<event>
 8    1  0.5951278E-006  0.8215795E+02  0.7561462E-02  0.1323037E+00
         -2   -1    0    0    0  501 -0.00000000000E+00  0.00000000000E+00  0.14867334897E+02  0.14867334897E+02  0.00000000000E+00 0.  1.
          2   -1    0    0  501    0  0.00000000000E+00 -0.00000000000E+00 -0.79263027288E+03  0.79263027288E+03  0.00000000000E+00 0. -1.
         23    2    1    2    0    0 -0.13024499900E+02 -0.64049781167E+01 -0.42166822284E+03  0.44006946486E+03  0.12508550036E+03 0.  0.
         23    2    1    2    0    0  0.13024499900E+02  0.64049781167E+01 -0.35609471513E+03  0.36742814292E+03  0.89383067285E+02 0.  0.
          5    1    3    3  502    0  0.29945140560E+02 -0.44947027261E+01 -0.21020372156E+02  0.37097739032E+02  0.41800000000E+01 0. -1.
         -5    1    3    3    0  502 -0.42969640459E+02 -0.19102753906E+01 -0.40064785069E+03  0.40297172582E+03  0.41800000000E+01 0. -1.
        -11    1    4    4    0    0 -0.38274197675E+02 -0.29539360211E+01 -0.14715205137E+03  0.15207684297E+03  0.00000000000E+00 0. -1.
         11    1    4    4    0    0  0.51298697575E+02  0.93589141378E+01 -0.20894266376E+03  0.21535129994E+03  0.00000000000E+00 0.  1.
</event>
<event>
 8    1  0.5951278E-006  0.1029436E+03  0.7561462E-02  0.1274225E+00
         -2   -1    0    0    0  501 -0.00000000000E+00  0.00000000000E+00  0.34668009899E+03  0.34668009899E+03  0.00000000000E+00 0.  1.
          2   -1    0    0  501    0  0.00000000000E+00 -0.00000000000E+00 -0.48530888186E+02  0.48530888186E+02  0.00000000000E+00 0. -1.
         23    2    1    2    0    0  0.23974965381E+02  0.66311731374E+02  0.13565601088E+03  0.19757611037E+03  0.12514679947E+03 0.  0.
         23    2    1    2    0    0 -0.23974965381E+02 -0.66311731374E+02  0.16249319992E+03  0.19763487680E+03  0.87655346814E+02 0.  0.
          5    1    3    3  502    0  0.52111185206E+02 -0.30963593497E+01  0.13259043566E+02  0.54022566591E+02  0.41800000000E+01 0. -1.
         -5    1    3    3    0  502 -0.28136219825E+02  0.69408090724E+02  0.12239696732E+03  0.14355354378E+03  0.41800000000E+01 0. -1.
        -11    1    4    4    0    0  0.65140679709E+01 -0.31780968373E+02  0.14463665845E+03  0.14823031404E+03  0.00000000000E+00 0.  1.
         11    1    4    4    0    0 -0.30489033352E+02 -0.34530763001E+02  0.17856541463E+02  0.49404562757E+02  0.00000000000E+00 0. -1.
</event>
<event>
 8    1  0.5951278E-006  0.1086456E+03  0.7561462E-02  0.1263099E+00
          2   -1    0    0  501    0  0.00000000000E+00  0.00000000000E+00  0.55469604504E+02  0.55469604504E+02  0.00000000000E+00 0. -1.
         -2   -1    0    0    0  501 -0.00000000000E+00 -0.00000000000E+00 -0.28069488307E+03  0.28069488307E+03  0.00000000000E+00 0.  1.
         23    2    1    2    0    0  0.53556805535E+02 -0.38431297774E+02 -0.20990772632E+03  0.24655410338E+03  0.11127612617E+03 0.  0.
         23    2    1    2    0    0 -0.53556805535E+02  0.38431297774E+02 -0.15317552239E+02  0.89610384188E+02  0.58737530421E+02 0.  0.
          5    1    3    3  502    0  0.57508601682E+02  0.26987579154E+02 -0.10373367734E+03  0.12171161370E+03  0.41800000000E+01 0. -1.
         -5    1    3    3    0  502 -0.39517961469E+01 -0.65418876928E+02 -0.10617404899E+03  0.12484248968E+03  0.41800000000E+01 0.  1.
        -11    1    4    4    0    0 -0.44113994230E+02  0.54012013109E+02 -0.15277672002E+02  0.71391521267E+02  0.00000000000E+00 0. -1.
         11    1    4    4    0    0 -0.94428113047E+01 -0.15580715335E+02 -0.39880236529E-01  0.18218862921E+02  0.00000000000E+00 0.  1.
</event>
<event>
 8    1  0.5951278E-006  0.1110139E+03  0.7561462E-02  0.1258704E+00
          3   -1    0    0  501    0  0.00000000000E+00  0.00000000000E+00  0.21700761889E+03  0.21700761889E+03  0.00000000000E+00 0. -1.
         -3   -1    0    0    0  501 -0.00000000000E+00 -0.00000000000E+00 -0.61644318725E+02  0.61644318725E+02  0.00000000000E+00 0.  1.
         23    2    1    2    0    0  0.74496829256E+01 -0.34135566069E+02  0.61696791322E+02  0.14378847493E+03  0.12509155374E+03 0.  0.
         23    2    1    2    0    0 -0.74496829256E+01  0.34135566069E+02  0.93666508841E+02  0.13486346268E+03  0.90520738189E+02 0.  0.
          5    1    3    3  502    0 -0.55622228218E+02 -0.31808635495E+02  0.17272765224E+02  0.66493927410E+02  0.41800000000E+01 0. -1.
         -5    1    3    3    0  502  0.63071911144E+02 -0.23269305743E+01  0.44424026099E+02  0.77294547518E+02  0.41800000000E+01 0. -1.
        -11    1    4    4    0    0  0.39180280477E+02  0.26529604852E+02  0.31760125198E+02  0.56987892262E+02  0.00000000000E+00 0. -1.
         11    1    4    4    0    0 -0.46629963403E+02  0.76059612177E+01  0.61906383642E+02  0.77875570423E+02  0.00000000000E+00 0.  1.
</event>
<event>
 7    1  0.5951278E-006  0.4342969E+03  0.7561462E-02  0.1032511E+00
          2   -1    0    0  501    0  0.00000000000E+00  0.00000000000E+00  0.14281893601E+04  0.14281893601E+04  0.00000000000E+00 0. -1.
         -2   -1    0    0    0  501 -0.00000000000E+00 -0.00000000000E+00 -0.13285474258E+03  0.13285474258E+03  0.00000000000E+00 0.  1.
         23    2    1    2    0    0 -0.68614827696E+02 -0.23087507515E+02  0.21451690480E+03  0.24378155149E+03  0.90393112661E+02 0.  0.
          5    1    1    2  502    0  0.75548411615E+02  0.38421447812E+03  0.54736302105E+03  0.67301714459E+03  0.41800000000E+01 0. -1.
         -5    1    1    2    0  502 -0.69335839190E+01 -0.36112697060E+03  0.53345469171E+03  0.64424540665E+03  0.41800000000E+01 0.  1.
        -11    1    3    3    0    0 -0.89459012942E+02 -0.75361748782E+01  0.16407468518E+03  0.18702997419E+03  0.00000000000E+00 0.  1.
         11    1    3    3    0    0  0.20844185246E+02 -0.15551332637E+02  0.50442219619E+02  0.56751577295E+02  0.00000000000E+00 0. -1.
</event>
<event>
 8    1  0.5951278E-006  0.9472037E+02  0.7561462E-02  0.1291807E+00
          1   -1    0    0  501    0  0.00000000000E+00  0.00000000000E+00  0.13825052022E+03  0.13825052022E+03  0.00000000000E+00 0. -1.
         -1   -1    0    0    0  501 -0.00000000000E+00 -0.00000000000E+00 -0.13127007487E+03  0.13127007487E+03  0.00000000000E+00 0.  1.
         23    2    1    2    0    0 -0.18661021527E+02 -0.34487537304E+02 -0.65658531729E+02  0.14661417949E+03  0.12508817244E+03 0.  0.
         23    2    1    2    0    0  0.18661021527E+02  0.34487537304E+02  0.72638977083E+02  0.12290641560E+03  0.91060101306E+02 0.  0.
          5    1    3    3  502    0 -0.21900488233E+02 -0.66909608190E+02 -0.83445556825E+02  0.10925731283E+03  0.41800000000E+01 0. -1.
         -5    1    3    3    0  502  0.32394667055E+01  0.32422070886E+02  0.17787025096E+02  0.37356866662E+02  0.41800000000E+01 0. -1.
        -11    1    4    4    0    0 -0.15992562337E+02 -0.17422406647E+02  0.52072246692E+02  0.57191093529E+02  0.00000000000E+00 0. -1.
         11    1    4    4    0    0  0.34653583865E+02  0.51909943951E+02  0.20566730391E+02  0.65715322069E+02  0.00000000000E+00 0.  1.
</event>
<event>
 8    1  0.5951278E-006  0.9185071E+02  0.7561462E-02  0.1298431E+00
         -2   -1    0    0    0  501 -0.00000000000E+00  0.00000000000E+00  0.53103044985E+02  0.53103044985E+02  0.00000000000E+00 0. -1.
          2   -1    0    0  501    0  0.00000000000E+00 -0.00000000000E+00 -0.26685546004E+03  0.26685546004E+03  0.00000000000E+00 0.  1.
         23    2    1    2    0    0  0.25068221530E+02  0.34813721462E+02 -0.82036498181E+02  0.15562110370E+03  0.12509008734E+03 0.  0.
         23    2    1    2    0    0 -0.25068221530E+02 -0.34813721462E+02 -0.13171591688E+03  0.16433740133E+03  0.88415427292E+02 0.  0.
          5    1    3    3  502    0 -0.28801355786E+02  0.66623110607E+01  0.20593522905E+02  0.36269409554E+02  0.41800000000E+01 0. -1.
         -5    1    3    3    0  502  0.53869577316E+02  0.28151410401E+02 -0.10263002109E+03  0.11935169415E+03  0.41800000000E+01 0. -1.
        -11    1    4    4    0    0 -0.55016385366E+02 -0.15047901389E+02 -0.53139190296E+02  0.77955214965E+02  0.00000000000E+00 0. -1.
         11    1    4    4    0    0  0.29948163836E+02 -0.19765820073E+02 -0.78576726581E+02  0.86382186361E+02  0.00000000000E+00 0.  1.
</event>
<event>
 8    1  0.5951278E-006  0.1346538E+03  0.7561462E-02  0.1220709E+00
         -2   -1    0    0    0  501 -0.00000000000E+00  0.00000000000E+00  0.24595300767E+03  0.24595300767E+03  0.00000000000E+00 0.  1.
          2   -1    0    0  501    0  0.00000000000E+00 -0.00000000000E+00 -0.10638600771E+03  0.10638600771E+03  0.00000000000E+00 0. -1.
         23    2    1    2    0    0 -0.86586063412E+02 -0.56126919473E+02  0.14455892635E+03  0.21724088268E+03  0.12509572516E+03 0.  0.
         23    2    1    2    0    0  0.86586063412E+02  0.56126919473E+02 -0.49919263878E+01  0.13509813270E+03  0.87058650706E+02 0.  0.
          5    1    3    3  502    0  0.13203079831E+02 -0.46025156624E+02  0.92305510385E+02  0.10406928465E+03  0.41800000000E+01 0. -1.
         -5    1    3    3    0  502 -0.99789143243E+02 -0.10101762848E+02  0.52253415965E+02  0.11317159804E+03  0.41800000000E+01 0. -1.
        -11    1    4    4    0    0  0.96807905012E+02  0.51096102666E+02 -0.24807623401E+02  0.11224081414E+03  0.00000000000E+00 0. -1.
         11    1    4    4    0    0 -0.10221841600E+02  0.50308168064E+01  0.19815697013E+02  0.22857318556E+02  0.00000000000E+00 0.  1.
</event>
<event>
 7    1  0.5951278E-006  0.1027870E+03  0.7561462E-02  0.1274542E+00
          1   -1    0    0  501    0  0.00000000000E+00  0.00000000000E+00  0.28527643621E+03  0.28527643621E+03  0.00000000000E+00 0. -1.
         -1   -1    0    0    0  501 -0.00000000000E+00 -0.00000000000E+00 -0.55375662727E+02  0.55375662727E+02  0.00000000000E+00 0.  1.
         23    2    1    2    0    0  0.28311738177E+02 -0.35450234173E+02  0.13836872776E+03  0.17187542226E+03  0.91307077129E+02 0.  0.
          5    1    1    2  502    0  0.31468024385E+02 -0.33936996220E+02  0.13521883395E+02  0.48397004057E+02  0.41800000000E+01 0. -1.
         -5    1    1    2    0  502 -0.59779762562E+02  0.69387230393E+02  0.78010162327E+02  0.12037967262E+03  0.41800000000E+01 0.  1.
        -11    1    3    3    0    0 -0.94089098096E+01 -0.27238295265E+02  0.12896085116E+03  0.13214141457E+03  0.00000000000E+00 0.  1.
         11    1    3    3    0    0  0.37720647986E+02 -0.82119389079E+01  0.94078766033E+01  0.39734007693E+02  0.00000000000E+00 0. -1.
</event>
<event>
 8    1  0.5951278E-006  0.1070889E+03  0.7561462E-02  0.1266058E+00
         -1   -1    0    0    0  501 -0.00000000000E+00  0.00000000000E+00  0.34292369882E+02  0.34292369882E+02  0.00000000000E+00 0.  1.
          1   -1    0    0  501    0  0.00000000000E+00 -0.00000000000E+00 -0.36613676021E+03  0.36613676021E+03  0.00000000000E+00 0. -1.
         23    2    1    2    0    0  0.14971754245E+02  0.67649750106E+01 -0.15993183072E+03  0.20370442226E+03  0.12508949939E+03 0.  0.
         23    2    1    2    0    0 -0.14971754245E+02 -0.67649750106E+01 -0.17191255961E+03  0.19672470784E+03  0.94216581392E+02 0.  0.
          5    1    3    3  502    0  0.39415001377E+02 -0.49769685977E+02 -0.69667237629E+02  0.94348080927E+02  0.41800000000E+01 0. -1.
         -5    1    3    3    0  502 -0.24443247132E+02  0.56534660988E+02 -0.90264593089E+02  0.10935634133E+03  0.41800000000E+01 0. -1.
        -11    1    4    4    0    0  0.89422324476E+01 -0.43817044574E+02 -0.12294961410E+03  0.13083005971E+03  0.00000000000E+00 0. -1.
         11    1    4    4    0    0 -0.23913986693E+02  0.37052069564E+02 -0.48962945509E+02  0.65894648124E+02  0.00000000000E+00 0.  1.
</event>
<event>
 8    1  0.5951278E-006  0.1683988E+03  0.7561462E-02  0.1179528E+00
         -2   -1    0    0    0  501 -0.00000000000E+00  0.00000000000E+00  0.11802198036E+03  0.11802198036E+03  0.00000000000E+00 0.  1.
          2   -1    0    0  501    0  0.00000000000E+00 -0.00000000000E+00 -0.33866855954E+03  0.33866855954E+03  0.00000000000E+00 0. -1.
         23    2    1    2    0    0  0.10669824498E+03  0.12530982372E+03 -0.75519594773E+02  0.22008499961E+03  0.12508849050E+03 0.  0.
         23    2    1    2    0    0 -0.10669824498E+03 -0.12530982372E+03 -0.14512698440E+03  0.23660554029E+03  0.88505777709E+02 0.  0.
          5    1    3    3  502    0  0.48431529815E+02  0.81997272194E+02  0.22588357398E+02  0.97963625992E+02  0.41800000000E+01 0.  1.
         -5    1    3    3    0  502  0.58266715165E+02  0.43312551531E+02 -0.98107952171E+02  0.12212137362E+03  0.41800000000E+01 0.  1.
        -11    1    4    4    0    0 -0.14066036572E+02 -0.41549704910E+02  0.16389050561E+01  0.43896666988E+02  0.00000000000E+00 0.  1.
         11    1    4    4    0    0 -0.92632208409E+02 -0.83760118815E+02 -0.14676588946E+03  0.19270887330E+03  0.00000000000E+00 0. -1.
</event>
<event>
 8    1  0.5951278E-006  0.1029687E+03  0.7561462E-02  0.1274174E+00
         -2   -1    0    0    0  501 -0.00000000000E+00  0.00000000000E+00  0.17691270718E+03  0.17691270718E+03  0.00000000000E+00 0.  1.
          2   -1    0    0  501    0  0.00000000000E+00 -0.00000000000E+00 -0.85878834971E+02  0.85878834971E+02  0.00000000000E+00 0. -1.
         23    2    1    2    0    0 -0.55642392751E+02  0.12908220598E+02  0.50595756828E+02  0.14652789754E+03  0.12509115124E+03 0.  0.
         23    2    1    2    0    0  0.55642392751E+02 -0.12908220598E+02  0.40438115382E+02  0.11626364461E+03  0.92840162929E+02 0.  0.
          5    1    3    3  502    0 -0.28096571870E+02  0.47676326105E+02  0.76865225731E+02  0.94806037510E+02  0.41800000000E+01 0.  1.
         -5    1    3    3    0  502 -0.27545820881E+02 -0.34768105507E+02 -0.26269468903E+02  0.51721860030E+02  0.41800000000E+01 0.  1.
        -11    1    4    4    0    0 -0.24599669557E+02 -0.61714863155E+01 -0.16268728507E+01  0.25414124045E+02  0.00000000000E+00 0. -1.
         11    1    4    4    0    0  0.80242062309E+02 -0.67367342827E+01  0.42064988233E+02  0.90849520567E+02  0.00000000000E+00 0.  1.
</event>
<event>
 7    1  0.5951278E-006  0.3411026E+02  0.7561462E-02  0.1556647E+00
         -4   -1    0    0    0  501 -0.00000000000E+00  0.00000000000E+00  0.72365460436E+02  0.72365460436E+02  0.00000000000E+00 0.  1.
          4   -1    0    0  501    0  0.00000000000E+00 -0.00000000000E+00 -0.11800005063E+03  0.11800005063E+03  0.00000000000E+00 0. -1.
         23    2    1    2    0    0  0.13032641527E+02  0.25335911811E+02  0.43803717097E+01  0.12682452901E+03  0.12350512269E+03 0.  0.
          5    1    3    3  502    0  0.44239495366E+01  0.15191338422E+02 -0.59360889314E+02  0.61575446995E+02  0.41800000000E+01 0. -1.
         -5    1    3    3    0  502  0.86086919909E+01  0.10144573389E+02  0.63741261023E+02  0.65249082016E+02  0.41800000000E+01 0.  1.
        -11    1    1    2    0    0  0.14353053937E+01 -0.23246939104E+02 -0.38220769748E+02  0.44758323465E+02  0.00000000000E+00 0. -1.
         11    1    1    2    0    0 -0.14467946921E+02 -0.20889727068E+01 -0.11794192153E+02  0.18782658588E+02  0.00000000000E+00 0.  1.
</event>
<event>
 8    1  0.5951278E-006  0.1806306E+03  0.7561462E-02  0.1167194E+00
          1   -1    0    0  501    0  0.00000000000E+00  0.00000000000E+00  0.72473104373E+02  0.72473104373E+02  0.00000000000E+00 0. -1.
         -1   -1    0    0    0  501 -0.00000000000E+00 -0.00000000000E+00 -0.63398795363E+03  0.63398795363E+03  0.00000000000E+00 0.  1.
         23    2    1    2    0    0  0.15641874876E+03 -0.78747848135E+02 -0.38817312948E+03  0.44383976953E+03  0.12508922425E+03 0.  0.
         23    2    1    2    0    0 -0.15641874876E+03  0.78747848135E+02 -0.17334171978E+03  0.26262128847E+03  0.90854503428E+02 0.  0.
          5    1    3    3  502    0  0.37524559662E+02 -0.27139808031E+01 -0.85450874326E+01  0.38806561157E+02  0.41800000000E+01 0. -1.
         -5    1    3    3    0  502  0.11889418909E+03 -0.76033867332E+02 -0.37962804204E+03  0.40503320838E+03  0.41800000000E+01 0. -1.
        -11    1    4    4    0    0 -0.13640823636E+03  0.85628434601E+02 -0.10794270315E+03  0.19388414819E+03  0.00000000000E+00 0. -1.
         11    1    4    4    0    0 -0.20010512401E+02 -0.68805864666E+01 -0.65399016639E+02  0.68737140281E+02  0.00000000000E+00 0.  1.
</event>
<event>
 8    1  0.5951278E-006  0.7616845E+02  0.7561462E-02  0.1340290E+00
         -2   -1    0    0    0  501 -0.00000000000E+00  0.00000000000E+00  0.54482319028E+03  0.54482319028E+03  0.00000000000E+00 0.  1.
          2   -1    0    0  501    0  0.00000000000E+00 -0.00000000000E+00 -0.21582315910E+02  0.21582315910E+02  0.00000000000E+00 0. -1.
         23    2    1    2    0    0  0.27321922935E+02 -0.13997915066E+02  0.32285507611E+03  0.34795493338E+03  0.12607460648E+03 0.  0.
         23    2    1    2    0    0 -0.27321922935E+02  0.13997915066E+02  0.20038579826E+03  0.21845057281E+03  0.81386457815E+02 0.  0.
          5    1    3    3  502    0  0.47979041512E+02 -0.19803271473E+01  0.36215651281E+02  0.60290595599E+02  0.41800000000E+01 0. -1.
         -5    1    3    3    0  502 -0.20657118578E+02 -0.12017587918E+02  0.28663942483E+03  0.28766433778E+03  0.41800000000E+01 0.  1.
        -11    1    4    4    0    0 -0.41837474628E+02  0.34861180289E+02  0.17167880002E+03  0.18010909625E+03  0.00000000000E+00 0.  1.
         11    1    4    4    0    0  0.14515551693E+02 -0.20863265224E+02  0.28706998239E+02  0.38341476558E+02  0.00000000000E+00 0. -1.
</event>
<event>
 8    1  0.5951278E-006  0.9534296E+02  0.7561462E-02  0.1290406E+00
          1   -1    0    0  501    0  0.00000000000E+00  0.00000000000E+00  0.55774995644E+02  0.55774995644E+02  0.00000000000E+00 0. -1.
         -1   -1    0    0    0  501 -0.00000000000E+00 -0.00000000000E+00 -0.31436761945E+03  0.31436761945E+03  0.00000000000E+00 0.  1.
         23    2    1    2    0    0 -0.53564851762E+02 -0.34171985643E+01 -0.21270228714E+03  0.25251231933E+03  0.12505733831E+03 0.  0.
         23    2    1    2    0    0  0.53564851762E+02  0.34171985643E+01 -0.45890336664E+02  0.11763029577E+03  0.94074932329E+02 0.  0.
          5    1    3    3  502    0  0.27289973454E+02 -0.25869973545E+02 -0.12691721843E+03  0.13243659206E+03  0.41800000000E+01 0. -1.
         -5    1    3    3    0  502 -0.80854825216E+02  0.22452774981E+02 -0.85785068714E+02  0.12007572727E+03  0.41800000000E+01 0. -1.
        -11    1    4    4    0    0  0.47245316852E+02  0.19835390692E+02 -0.70638736798E+02  0.87266223848E+02  0.00000000000E+00 0.  1.
         11    1    4    4    0    0  0.63195349101E+01 -0.16418192128E+02  0.24748400134E+02  0.30364071918E+02  0.00000000000E+00 0. -1.
</event>
<event>
 8    1  0.5951278E-006  0.9868230E+02  0.7561462E-02  0.1283092E+00
         -2   -1    0    0    0  501 -0.00000000000E+00  0.00000000000E+00  0.45909199800E+02  0.45909199800E+02  0.00000000000E+00 0.  1.
          2   -1    0    0  501    0  0.00000000000E+00 -0.00000000000E+00 -0.40083854728E+03  0.40083854728E+03  0.00000000000E+00 0. -1.
         23    2    1    2    0    0 -0.29137751216E+02 -0.52291153824E+02 -0.10529689500E+03  0.17412094451E+03  0.12508914384E+03 0.  0.
         23    2    1    2    0    0  0.29137751216E+02  0.52291153824E+02 -0.24963245248E+03  0.27262680257E+03  0.91791278637E+02 0.  0.
          5    1    3    3  502    0 -0.42994714281E+02 -0.89098422685E+01  0.14067475142E+02  0.46295755769E+02  0.41800000000E+01 0.  1.
         -5    1    3    3    0  502  0.13856963064E+02 -0.43381311556E+02 -0.11936437015E+03  0.12782518875E+03  0.41800000000E+01 0.  1.
        -11    1    4    4    0    0  0.49010222202E+02  0.66849923404E+02 -0.21220238598E+03  0.22781739783E+03  0.00000000000E+00 0. -1.
         11    1    4    4    0    0 -0.19872470985E+02 -0.14558769580E+02 -0.37430066502E+02  0.44809404739E+02  0.00000000000E+00 0.  1.
</event>
<event>
 8    1  0.5951278E-006  0.7071773E+02  0.7561462E-02  0.1357669E+00
         -1   -1    0    0    0  501 -0.00000000000E+00  0.00000000000E+00  0.15112224969E+04  0.15112224969E+04  0.00000000000E+00 0.  1.
          1   -1    0    0  501    0  0.00000000000E+00 -0.00000000000E+00 -0.91157764834E+01  0.91157764834E+01  0.00000000000E+00 0. -1.
         23    2    1    2    0    0  0.18863420853E+02  0.43338639502E+01  0.11730689793E+04  0.11784694682E+04  0.11101732433E+03 0.  0.
         23    2    1    2    0    0 -0.18863420853E+02 -0.43338639502E+01  0.32903774111E+03  0.34186880516E+03  0.90740475222E+02 0.  0.
          5    1    3    3  502    0 -0.13789646304E+02  0.68483080344E+01  0.23368849353E+02  0.28295391643E+02  0.41800000000E+01 0. -1.
         -5    1    3    3    0  502  0.32653067157E+02 -0.25144440842E+01  0.11497001299E+04  0.11501740766E+04  0.41800000000E+01 0.  1.
        -11    1    4    4    0    0 -0.46341934985E+02  0.24681013066E+02  0.17272817636E+03  0.18053185385E+03  0.00000000000E+00 0.  1.
         11    1    4    4    0    0  0.27478514132E+02 -0.29014877016E+02  0.15630956475E+03  0.16133695131E+03  0.00000000000E+00 0. -1.
</event>
<event>
 8    1  0.5951278E-006  0.1149143E+03  0.7561462E-02  0.1251731E+00
          2   -1    0    0  501    0  0.00000000000E+00  0.00000000000E+00  0.79044533163E+02  0.79044533163E+02  0.00000000000E+00 0. -1.
         -2   -1    0    0    0  501 -0.00000000000E+00 -0.00000000000E+00 -0.37468944452E+03  0.37468944452E+03  0.00000000000E+00 0.  1.
         23    2    1    2    0    0  0.70178452017E+02 -0.47982326687E+02 -0.29182157104E+03  0.32868489737E+03  0.12508642465E+03 0.  0.
         23    2    1    2    0    0 -0.70178452017E+02  0.47982326687E+02 -0.38233403142E+01  0.12504908031E+03  0.91626064819E+02 0.  0.
          5    1    3    3  502    0  0.41105962031E+02  0.24293478024E+02 -0.32571043396E+02  0.57950137678E+02  0.41800000000E+01 0. -1.
         -5    1    3    3    0  502  0.29072489986E+02 -0.72275804711E+02 -0.25925052765E+03  0.27073475969E+03  0.41800000000E+01 0. -1.
        -11    1    4    4    0    0 -0.79954945009E+02  0.34147625640E+02 -0.31606576992E+02  0.92508536241E+02  0.00000000000E+00 0.  1.
         11    1    4    4    0    0  0.97764929919E+01  0.13834701046E+02  0.27783236677E+02  0.32540544072E+02  0.00000000000E+00 0. -1.
</event>
<event>
 8    1  0.5951278E-006  0.3100209E+03  0.7561462E-02  0.1080336E+00
          1   -1    0    0  501    0  0.00000000000E+00  0.00000000000E+00  0.95873806612E+03  0.95873806612E+03  0.00000000000E+00 0. -1.
         -1   -1    0    0    0  501 -0.00000000000E+00 -0.00000000000E+00 -0.10241342344E+03  0.10241342344E+03  0.00000000000E+00 0.  1.
         23    2    1    2    0    0  0.14216981912E+03 -0.25510420424E+03  0.47001816927E+03  0.56732690427E+03  0.12510924978E+03 0.  0.
         23    2    1    2    0    0 -0.14216981912E+03  0.25510420424E+03  0.38630647341E+03  0.49382458528E+03  0.96641694635E+02 0.  0.
          5    1    3    3  502    0  0.13393548843E+03 -0.11308013477E+03  0.25426158956E+03  0.30885637482E+03  0.41800000000E+01 0. -1.
         -5    1    3    3    0  502  0.82343306907E+01 -0.14202406946E+03  0.21575657971E+03  0.25847052945E+03  0.41800000000E+01 0. -1.
        -11    1    4    4    0    0 -0.35297022845E+02  0.14382084826E+03  0.14395563617E+03  0.20652733814E+03  0.00000000000E+00 0.  1.
         11    1    4    4    0    0 -0.10687279627E+03  0.11128335598E+03  0.24235083725E+03  0.28729724714E+03  0.00000000000E+00 0. -1.
</event>
<event>
 8    1  0.5951278E-006  0.1112293E+03  0.7561462E-02  0.1258310E+00
          1   -1    0    0  501    0  0.00000000000E+00  0.00000000000E+00  0.36395151331E+03  0.36395151331E+03  0.00000000000E+00 0. -1.
         -1   -1    0    0    0  501 -0.00000000000E+00 -0.00000000000E+00 -0.42880792699E+02  0.42880792699E+02  0.00000000000E+00 0.  1.
         23    2    1    2    0    0 -0.37759577791E+02 -0.32408041093E+02  0.11732672479E+03  0.17858782627E+03  0.12510789144E+03 0.  0.
         23    2    1    2    0    0  0.37759577791E+02  0.32408041093E+02  0.20374399582E+03  0.22824447974E+03  0.90043655274E+02 0.  0.
          5    1    3    3  502    0 -0.65931273655E+02  0.15517259308E+02  0.98760889791E+02  0.11982864405E+03  0.41800000000E+01 0.  1.
         -5    1    3    3    0  502  0.28171695863E+02 -0.47925300401E+02  0.18565834999E+02  0.58759182223E+02  0.41800000000E+01 0.  1.
        -11    1    4    4    0    0  0.82205504181E+00  0.55356341967E+02  0.14458938076E+03  0.15482599717E+03  0.00000000000E+00 0. -1.
         11    1    4    4    0    0  0.36937522750E+02 -0.22948300874E+02  0.59154615064E+02  0.73418482573E+02  0.00000000000E+00 0.  1.
</event>
<event>
 8    1  0.5951278E-006  0.1464297E+03  0.7561462E-02  0.1204930E+00
         -2   -1    0    0    0  501 -0.00000000000E+00  0.00000000000E+00  0.37310687819E+02  0.37310687819E+02  0.00000000000E+00 0.  1.
          2   -1    0    0  501    0  0.00000000000E+00 -0.00000000000E+00 -0.78825333115E+03  0.78825333115E+03  0.00000000000E+00 0. -1.
         23    2    1    2    0    0  0.70434491325E+02  0.10133766374E+03 -0.28599819420E+03  0.33566865710E+03  0.12509252821E+03 0.  0.
         23    2    1    2    0    0 -0.70434491325E+02 -0.10133766374E+03 -0.46494444913E+03  0.48989536186E+03  0.92702670626E+02 0.  0.
          5    1    3    3  502    0 -0.44847296752E+01  0.49173467378E+02 -0.21305104118E+03  0.21873811108E+03  0.41800000000E+01 0. -1.
         -5    1    3    3    0  502  0.74919221000E+02  0.52164196362E+02 -0.72947153022E+02  0.11693054602E+03  0.41800000000E+01 0. -1.
        -11    1    4    4    0    0  0.12764572613E+02  0.75910517266E+01 -0.77749989533E+02  0.79155664691E+02  0.00000000000E+00 0. -1.
         11    1    4    4    0    0 -0.83199063938E+02 -0.10892871547E+03 -0.38719445960E+03  0.41073969717E+03  0.00000000000E+00 0.  1.
</event>
<event>
 7    1  0.5951278E-006  0.1413930E+03  0.7561462E-02  0.1211467E+00
          1   -1    0    0  501    0  0.00000000000E+00  0.00000000000E+00  0.40452247018E+03  0.40452247018E+03  0.00000000000E+00 0. -1.
         -1   -1    0    0    0  501 -0.00000000000E+00 -0.00000000000E+00 -0.61732168631E+02  0.61732168631E+02  0.00000000000E+00 0.  1.
         23    2    1    2    0    0  0.77109941774E+02  0.41905034653E+02  0.21851499734E+03  0.25123895691E+03  0.87579874151E+02 0.  0.
          5    1    1    2  502    0  0.36631352766E+02  0.22664070725E+02  0.19918924163E+02  0.47641914814E+02  0.41800000000E+01 0. -1.
         -5    1    1    2    0  502 -0.11374129454E+03 -0.64569105378E+02  0.10435638004E+03  0.16737376709E+03  0.41800000000E+01 0.  1.
        -11    1    3    3    0    0  0.45001776762E+02  0.57450022600E+02  0.19577502626E+03  0.20893426219E+03  0.00000000000E+00 0. -1.
         11    1    3    3    0    0  0.32108165012E+02 -0.15544987947E+02  0.22739971079E+02  0.42304694720E+02  0.00000000000E+00 0.  1.
</event>
<event>
 8    1  0.5951278E-006  0.8444657E+02  0.7561462E-02  0.1316886E+00
          2   -1    0    0  501    0  0.00000000000E+00  0.00000000000E+00  0.52753150030E+02  0.52753150030E+02  0.00000000000E+00 0. -1.
         -2   -1    0    0    0  501 -0.00000000000E+00 -0.00000000000E+00 -0.29173945139E+03  0.29173945139E+03  0.00000000000E+00 0.  1.
         23    2    1    2    0    0 -0.61587485974E+02 -0.44666285418E+01 -0.14711871962E+03  0.20274173906E+03  0.12508927171E+03 0.  0.
         23    2    1    2    0    0  0.61587485974E+02  0.44666285418E+01 -0.91867581732E+02  0.14175086235E+03  0.88547643702E+02 0.  0.
          5    1    3    3  502    0 -0.30509341106E+02  0.10309511761E+02  0.15843762446E+02  0.36133130724E+02  0.41800000000E+01 0.  1.
         -5    1    3    3    0  502 -0.31078144868E+02 -0.14776140302E+02 -0.16296248207E+03  0.16660860834E+03  0.41800000000E+01 0.  1.
        -11    1    4    4    0    0  0.63374586478E+02  0.34168199437E+02 -0.41093730842E+02  0.82900535454E+02  0.00000000000E+00 0. -1.
         11    1    4    4    0    0 -0.17871005039E+01 -0.29701570895E+02 -0.50773850890E+02  0.58850326898E+02  0.00000000000E+00 0.  1.
</event>
<event>
 8    1  0.5951278E-006  0.2019786E+03  0.7561462E-02  0.1148080E+00
         -2   -1    0    0    0  501 -0.00000000000E+00  0.00000000000E+00  0.53267192034E+02  0.53267192034E+02  0.00000000000E+00 0.  1.
          2   -1    0    0  501    0  0.00000000000E+00 -0.00000000000E+00 -0.91024196829E+03  0.91024196829E+03  0.00000000000E+00 0. -1.
         23    2    1    2    0    0 -0.17777438894E+03  0.65447486745E+02 -0.38280828790E+03  0.44505803953E+03  0.12508943351E+03 0.  0.
         23    2    1    2    0    0  0.17777438894E+03 -0.65447486745E+02 -0.47416648835E+03  0.51845112080E+03  0.89836513150E+02 0.  0.
          5    1    3    3  502    0  0.65207697336E+01 -0.10299688974E+02  0.64694107069E+00  0.12903292744E+02  0.41800000000E+01 0. -1.
         -5    1    3    3    0  502 -0.18429515867E+03  0.75747175719E+02 -0.38345522897E+03  0.43215474678E+03  0.41800000000E+01 0. -1.
        -11    1    4    4    0    0  0.58113321967E+02 -0.67948666671E+01 -0.61875181309E+02  0.85157891385E+02  0.00000000000E+00 0. -1.
         11    1    4    4    0    0  0.11966106697E+03 -0.58652620078E+02 -0.41229130704E+03  0.43329322941E+03  0.00000000000E+00 0.  1.
</event>
<event>
 8    1  0.5951278E-006  0.9107037E+02  0.7561462E-02  0.1300280E+00
          3   -1    0    0  501    0  0.00000000000E+00  0.00000000000E+00  0.33169436173E+02  0.33169436173E+02  0.00000000000E+00 0. -1.
         -3   -1    0    0    0  501 -0.00000000000E+00 -0.00000000000E+00 -0.68316434047E+03  0.68316434047E+03  0.00000000000E+00 0.  1.
         23    2    1    2    0    0  0.40391571026E+02 -0.24547675057E+02 -0.57320101554E+03  0.58859070504E+03  0.12508215893E+03 0.  0.
         23    2    1    2    0    0 -0.40391571026E+02  0.24547675057E+02 -0.76793888751E+02  0.12774307160E+03  0.90481620402E+02 0.  0.
          5    1    3    3  502    0 -0.51482199013E+01 -0.33459387070E+02 -0.36827093698E+02  0.50197031600E+02  0.41800000000E+01 0. -1.
         -5    1    3    3    0  502  0.45539790928E+02  0.89117120129E+01 -0.53637392184E+03  0.53839367344E+03  0.41800000000E+01 0. -1.
        -11    1    4    4    0    0  0.17296786609E+01  0.51437419685E+02 -0.46118709102E+02  0.69106694764E+02  0.00000000000E+00 0.  1.
         11    1    4    4    0    0 -0.42121249687E+02 -0.26889744628E+02 -0.30675179649E+02  0.58636376831E+02  0.00000000000E+00 0. -1.
</event>
<event>
 8    1  0.5951278E-006  0.1138843E+03  0.7561462E-02  0.1253541E+00
          1   -1    0    0  501    0  0.00000000000E+00  0.00000000000E+00  0.41514883998E+03  0.41514883998E+03  0.00000000000E+00 0. -1.
         -1   -1    0    0    0  501 -0.00000000000E+00 -0.00000000000E+00 -0.50384025555E+02  0.50384025555E+02  0.00000000000E+00 0.  1.
         23    2    1    2    0    0  0.53306715350E+02 -0.48056423993E+02  0.90795623261E+02  0.17041713043E+03  0.12508847810E+03 0.  0.
         23    2    1    2    0    0 -0.53306715350E+02  0.48056423993E+02  0.27396919116E+03  0.29511573510E+03  0.82964773305E+02 0.  0.
          5    1    3    3  502    0  0.84879412915E+02 -0.60369069789E+02  0.87527522385E+02  0.13611568205E+03  0.41800000000E+01 0. -1.
         -5    1    3    3    0  502 -0.31572697565E+02  0.12312645795E+02  0.32681008755E+01  0.34301448386E+02  0.41800000000E+01 0. -1.
        -11    1    4    4    0    0 -0.22503579021E+02 -0.92422377880E+01  0.16112306339E+02  0.29179383881E+02  0.00000000000E+00 0.  1.
         11    1    4    4    0    0 -0.30803136329E+02  0.57298661781E+02  0.25785688482E+03  0.26593635122E+03  0.00000000000E+00 0. -1.
</event>
<event>
 8    1  0.5951278E-006  0.1108247E+03  0.7561462E-02  0.1259050E+00
          2   -1    0    0  501    0  0.00000000000E+00  0.00000000000E+00  0.23079647902E+03  0.23079647902E+03  0.00000000000E+00 0. -1.
         -2   -1    0    0    0  501 -0.00000000000E+00 -0.00000000000E+00 -0.66212804458E+02  0.66212804458E+02  0.00000000000E+00 0.  1.
         23    2    1    2    0    0  0.19694790812E+02 -0.49748003814E+02  0.62339039952E+02  0.14965350309E+03  0.12508903396E+03 0.  0.
         23    2    1    2    0    0 -0.19694790812E+02  0.49748003814E+02  0.10224463461E+03  0.14735578039E+03  0.91635211783E+02 0.  0.
          5    1    3    3  502    0  0.22990558390E+02 -0.90827794121E+02  0.50766583755E+02  0.10664413901E+03  0.41800000000E+01 0.  1.
         -5    1    3    3    0  502 -0.32957675784E+01  0.41079790308E+02  0.11572456197E+02  0.43009364074E+02  0.41800000000E+01 0.  1.
        -11    1    4    4    0    0 -0.17447595133E+02  0.66902175184E+02  0.10875393837E+03  0.12887101587E+03  0.00000000000E+00 0. -1.
         11    1    4    4    0    0 -0.22471956790E+01 -0.17154171370E+02 -0.65093037611E+01  0.18484764518E+02  0.00000000000E+00 0.  1.
</event>
<event>
 8    1  0.5951278E-006  0.1082018E+03  0.7561462E-02  0.1263937E+00
         -2   -1    0    0    0  501 -0.00000000000E+00  0.00000000000E+00  0.20266507405E+02  0.20266507405E+02  0.00000000000E+00 0.  1.
          2   -1    0    0  501    0  0.00000000000E+00 -0.00000000000E+00 -0.61101194198E+03  0.61101194198E+03  0.00000000000E+00 0. -1.
         23    2    1    2    0    0 -0.60364984562E+01 -0.77003545438E+01 -0.32217829603E+03  0.34574884355E+03  0.12509066157E+03 0.  0.
         23    2    1    2    0    0  0.60364984562E+01  0.77003545438E+01 -0.26856713854E+03  0.28552960583E+03  0.96452647066E+02 0.  0.
          5    1    3    3  502    0 -0.29707512435E+02 -0.57358218905E+02 -0.22361960406E+03  0.23279970208E+03  0.41800000000E+01 0. -1.
         -5    1    3    3    0  502  0.23671013979E+02  0.49657864361E+02 -0.98558691970E+02  0.11294914147E+03  0.41800000000E+01 0. -1.
        -11    1    4    4    0    0  0.18057574088E+02  0.49667909263E+02 -0.13337642714E+03  0.14346514737E+03  0.00000000000E+00 0.  1.
         11    1    4    4    0    0 -0.12021075631E+02 -0.41967554719E+02 -0.13519071140E+03  0.14206445846E+03  0.00000000000E+00 0. -1.
</event>
<event>
 8    1  0.5951278E-006  0.5375120E+02  0.7561462E-02  0.1426099E+00
          2   -1    0    0  501    0  0.00000000000E+00  0.00000000000E+00  0.13531001952E+03  0.13531001952E+03  0.00000000000E+00 0. -1.
         -2   -1    0    0    0  501 -0.00000000000E+00 -0.00000000000E+00 -0.16871428644E+03  0.16871428644E+03  0.00000000000E+00 0.  1.
         23    2    1    2    0    0  0.35370645864E+02  0.21971595453E+02 -0.11483380987E+03  0.17483905595E+03  0.12509219800E+03 0.  0.
         23    2    1    2    0    0 -0.35370645864E+02 -0.21971595453E+02  0.81429542952E+02  0.12918525001E+03  0.91237189560E+02 0.  0.
          5    1    3    3  502    0  0.32761279924E+02  0.34688563303E+02  0.10277407116E+02  0.48986685777E+02  0.41800000000E+01 0. -1.
         -5    1    3    3    0  502  0.26093659397E+01 -0.12716967851E+02 -0.12511121699E+03  0.12585237017E+03  0.41800000000E+01 0. -1.
        -11    1    4    4    0    0 -0.22617191206E+02 -0.24085615742E+02  0.10069914549E+03  0.10598099890E+03  0.00000000000E+00 0. -1.
         11    1    4    4    0    0 -0.12753454658E+02  0.21140202896E+01 -0.19269602543E+02  0.23204251112E+02  0.00000000000E+00 0.  1.
</event>
<event>
 8    1  0.5951278E-006  0.7733532E+02  0.7561462E-02  0.1336788E+00
         -1   -1    0    0    0  501 -0.00000000000E+00  0.00000000000E+00  0.69306085905E+03  0.69306085905E+03  0.00000000000E+00 0. -1.
          1   -1    0    0  501    0  0.00000000000E+00 -0.00000000000E+00 -0.23375045885E+02  0.23375045885E+02  0.00000000000E+00 0.  1.
         23    2    1    2    0    0 -0.23216129455E+02 -0.14988917570E+02  0.53769738098E+03  0.55274744875E+03  0.12509041635E+03 0.  0.
         23    2    1    2    0    0  0.23216129455E+02  0.14988917570E+02  0.13198843219E+03  0.16368845619E+03  0.92786357529E+02 0.  0.
          5    1    3    3  502    0 -0.45420862020E+02 -0.34270814156E+02  0.10905628285E+03  0.12307838412E+03  0.41800000000E+01 0. -1.
         -5    1    3    3    0  502  0.22204732565E+02  0.19281896586E+02  0.42864109813E+03  0.42966906462E+03  0.41800000000E+01 0. -1.
        -11    1    4    4    0    0  0.27432552297E+02  0.36687549127E+02  0.20776289558E+02  0.50300848843E+02  0.00000000000E+00 0.  1.
         11    1    4    4    0    0 -0.42164228419E+01 -0.21698631557E+02  0.11121214263E+03  0.11338760735E+03  0.00000000000E+00 0. -1.
</event>
<event>
 8    1  0.5951278E-006  0.1708946E+03  0.7561462E-02  0.1176918E+00
          1   -1    0    0  501    0  0.00000000000E+00  0.00000000000E+00  0.70024801421E+03  0.70024801421E+03  0.00000000000E+00 0. -1.
         -1   -1    0    0    0  501 -0.00000000000E+00 -0.00000000000E+00 -0.50743547858E+02  0.50743547858E+02  0.00000000000E+00 0.  1.
         23    2    1    2    0    0  0.71430967500E+02 -0.13027816820E+03  0.26361557416E+03  0.32743603353E+03  0.12508557426E+03 0.  0.
         23    2    1    2    0    0 -0.71430967500E+02  0.13027816820E+03  0.38588889220E+03  0.42355552854E+03  0.91729299596E+02 0.  0.
          5    1    3    3  502    0  0.87979666344E+02 -0.11326399032E+03  0.13643700943E+03  0.19799414924E+03  0.41800000000E+01 0.  1.
         -5    1    3    3    0  502 -0.16548698843E+02 -0.17014177887E+02  0.12717856473E+03  0.12944188429E+03  0.41800000000E+01 0.  1.
        -11    1    4    4    0    0 -0.55399760324E+02  0.14418588810E+02  0.14061075046E+03  0.15181703558E+03  0.00000000000E+00 0.  1.
         11    1    4    4    0    0 -0.16031207177E+02  0.11585957939E+03  0.24527814174E+03  0.27173849296E+03  0.00000000000E+00 0. -1.
</event>
<event>
 8    1  0.5951278E-006  0.1522694E+03  0.7561462E-02  0.1197712E+00
          2   -1    0    0  501    0  0.00000000000E+00  0.00000000000E+00  0.81749706925E+03  0.81749706925E+03  0.00000000000E+00 0. -1.
         -2   -1    0    0    0  501 -0.00000000000E+00 -0.00000000000E+00 -0.31136154101E+02  0.31136154101E+02  0.00000000000E+00 0.  1.
         23    2    1    2    0    0 -0.92587785679E+02 -0.58874236502E+02  0.33556150509E+03  0.37455042411E+03  0.12509125757E+03 0.  0.
         23    2    1    2    0    0  0.92587785679E+02  0.58874236502E+02  0.45079941006E+03  0.47408279924E+03  0.97445978099E+02 0.  0.
          5    1    3    3  502    0 -0.12347438242E+03 -0.39595001236E+02  0.26322767590E+03  0.29346204013E+03  0.41800000000E+01 0.  1.
         -5    1    3    3    0  502  0.30886596745E+02 -0.19279235266E+02  0.72333829192E+02  0.81088383980E+02  0.41800000000E+01 0.  1.
        -11    1    4    4    0    0  0.37010052675E+02 -0.19688276280E+02  0.72619725356E+02  0.83851038948E+02  0.00000000000E+00 0. -1.
         11    1    4    4    0    0  0.55577733004E+02  0.78562512783E+02  0.37817968470E+03  0.39023176030E+03  0.00000000000E+00 0.  1.
</event>
<event>
 8    1  0.5951278E-006  0.1243666E+03  0.7561462E-02  0.1236062E+00
         -2   -1    0    0    0  501 -0.00000000000E+00  0.00000000000E+00  0.13812050257E+03  0.13812050257E+03  0.00000000000E+00 0. -1.
          2   -1    0    0  501    0  0.00000000000E+00 -0.00000000000E+00 -0.14602248779E+03  0.14602248779E+03  0.00000000000E+00 0.  1.
         23    2    1    2    0    0  0.20293799167E+01 -0.81723989651E+02  0.35741105884E+02  0.15365229567E+03  0.12509465395E+03 0.  0.
         23    2    1    2    0    0 -0.20293799167E+01  0.81723989651E+02 -0.43643091100E+02  0.13049069469E+03  0.91870414890E+02 0.  0.
          5    1    3    3  502    0 -0.22969159020E+01 -0.11203852427E+03  0.85118399718E+01  0.11246257405E+03  0.41800000000E+01 0.  1.
         -5    1    3    3    0  502  0.43262958188E+01  0.30314534619E+02  0.27229265912E+02  0.41189721616E+02  0.41800000000E+01 0.  1.
        -11    1    4    4    0    0  0.32225388788E+02  0.46296912836E+02  0.10393620145E+02  0.57357712301E+02  0.00000000000E+00 0. -1.
         11    1    4    4    0    0 -0.34254768705E+02  0.35427076815E+02 -0.54036711245E+02  0.73132982387E+02  0.00000000000E+00 0.  1.
</event>
<event>
 8    1  0.5951278E-006  0.1596763E+03  0.7561462E-02  0.1189063E+00
          1   -1    0    0  501    0  0.00000000000E+00  0.00000000000E+00  0.10541760644E+03  0.10541760644E+03  0.00000000000E+00 0. -1.
         -1   -1    0    0    0  501 -0.00000000000E+00 -0.00000000000E+00 -0.30248296847E+03  0.30248296847E+03  0.00000000000E+00 0.  1.
         23    2    1    2    0    0  0.11611369398E+03  0.59663659045E+02 -0.16807175446E+03  0.24685880074E+03  0.12509600600E+03 0.  0.
         23    2    1    2    0    0 -0.11611369398E+03 -0.59663659045E+02 -0.28993607566E+02  0.16104177416E+03  0.89731162959E+02 0.  0.
          5    1    3    3  502    0 -0.77365471736E+01  0.33700856898E+02  0.19378966565E+01  0.34883087038E+02  0.41800000000E+01 0.  1.
         -5    1    3    3    0  502  0.12385024115E+03  0.25962802147E+02 -0.17000965112E+03  0.21197571371E+03  0.41800000000E+01 0.  1.
        -11    1    4    4    0    0 -0.72934306665E+01  0.21146020175E+02 -0.86374082730E+01  0.23978180119E+02  0.00000000000E+00 0.  1.
         11    1    4    4    0    0 -0.10882026331E+03 -0.80809679220E+02 -0.20356199293E+02  0.13706359404E+03  0.00000000000E+00 0. -1.
</event>
<event>
 8    1  0.5951278E-006  0.1439137E+03  0.7561462E-02  0.1208158E+00
         -1   -1    0    0    0  501 -0.00000000000E+00  0.00000000000E+00  0.12408974732E+03  0.12408974732E+03  0.00000000000E+00 0.  1.
          1   -1    0    0  501    0  0.00000000000E+00 -0.00000000000E+00 -0.21128213655E+03  0.21128213655E+03  0.00000000000E+00 0. -1.
         23    2    1    2    0    0  0.12122588318E+03  0.12487809020E+02 -0.55221626417E+02  0.18316418356E+03  0.12509208604E+03 0.  0.
         23    2    1    2    0    0 -0.12122588318E+03 -0.12487809020E+02 -0.31970762817E+02  0.15220770031E+03  0.85401371375E+02 0.  0.
          5    1    3    3  502    0  0.11669479916E+02 -0.41201873649E+02  0.10824308127E+02  0.44366757827E+02  0.41800000000E+01 0.  1.
         -5    1    3    3    0  502  0.10955640326E+03  0.53689682669E+02 -0.66045934544E+02  0.13879742573E+03  0.41800000000E+01 0.  1.
        -11    1    4    4    0    0 -0.37669369651E+02  0.28317002479E+01 -0.52628844966E+02  0.64782677149E+02  0.00000000000E+00 0. -1.
         11    1    4    4    0    0 -0.83556513527E+02 -0.15319509268E+02  0.20658082148E+02  0.87425023163E+02  0.00000000000E+00 0.  1.
</event>
<event>
 8    1  0.5951278E-006  0.1973293E+03  0.7561462E-02  0.1152012E+00
          2   -1    0    0  501    0  0.00000000000E+00  0.00000000000E+00  0.93770082750E+03  0.93770082750E+03  0.00000000000E+00 0.  1.
         -2   -1    0    0    0  501 -0.00000000000E+00 -0.00000000000E+00 -0.54774682228E+02  0.54774682228E+02  0.00000000000E+00 0. -1.
         23    2    1    2    0    0 -0.17346083034E+03 -0.16948401701E+02  0.24876756998E+03  0.32849351594E+03  0.12508708228E+03 0.  0.
         23    2    1    2    0    0  0.17346083034E+03  0.16948401701E+02  0.63415857529E+03  0.66398199379E+03  0.91318571391E+02 0.  0.
          5    1    3    3  502    0 -0.58041424989E+02  0.38535221814E+02  0.32207513224E+02  0.76867201348E+02  0.41800000000E+01 0.  1.
         -5    1    3    3    0  502 -0.11541940535E+03 -0.55483623515E+02  0.21656005676E+03  0.25162631459E+03  0.41800000000E+01 0.  1.
        -11    1    4    4    0    0  0.45692752609E+02 -0.36256967707E+02  0.19315973463E+03  0.20177482110E+03  0.00000000000E+00 0.  1.
         11    1    4    4    0    0  0.12776807773E+03  0.53205369408E+02  0.44099884066E+03  0.46220717269E+03  0.00000000000E+00 0. -1.
</event>
<event>
 8    1  0.5951278E-006  0.1154817E+03  0.7561462E-02  0.1250743E+00
         -2   -1    0    0    0  501 -0.00000000000E+00  0.00000000000E+00  0.16629351216E+03  0.16629351216E+03  0.00000000000E+00 0. -1.
          2   -1    0    0  501    0  0.00000000000E+00 -0.00000000000E+00 -0.14944465796E+03  0.14944465796E+03  0.00000000000E+00 0.  1.
         23    2    1    2    0    0  0.66312809795E+02 -0.45586508571E+02  0.78726076614E+02  0.16826933537E+03  0.12506500542E+03 0.  0.
         23    2    1    2    0    0 -0.66312809795E+02  0.45586508571E+02 -0.61877222406E+02  0.14746883475E+03  0.10697078135E+03 0.  0.
          5    1    3    3  502    0  0.73843768468E+02 -0.52306106857E+02  0.10567596941E+03  0.13918948906E+03  0.41800000000E+01 0. -1.
         -5    1    3    3    0  502 -0.75309586731E+01  0.67195982856E+01 -0.26949892793E+02  0.29079846306E+02  0.41800000000E+01 0. -1.
        -11    1    4    4    0    0 -0.39079644537E+02 -0.29897222240E+02 -0.57441496067E+01  0.49538447387E+02  0.00000000000E+00 0. -1.
         11    1    4    4    0    0 -0.27233165258E+02  0.75483730812E+02 -0.56133072800E+02  0.97930387363E+02  0.00000000000E+00 0.  1.
</event>
<event>
 8    1  0.5951278E-006  0.1071873E+03  0.7561462E-02  0.1265869E+00
         -1   -1    0    0    0  501 -0.00000000000E+00  0.00000000000E+00  0.89609682056E+02  0.89609682056E+02  0.00000000000E+00 0.  1.
          1   -1    0    0  501    0  0.00000000000E+00 -0.00000000000E+00 -0.24326086545E+03  0.24326086545E+03  0.00000000000E+00 0. -1.
         23    2    1    2    0    0 -0.61419650742E+02 -0.71870669886E+02 -0.44858625204E+02  0.16308739574E+03  0.12508971064E+03 0.  0.
         23    2    1    2    0    0  0.61419650742E+02  0.71870669886E+02 -0.10879255819E+03  0.16978315176E+03  0.89737011418E+02 0.  0.
          5    1    3    3  502    0 -0.11903481963E+01 -0.31333347859E+02  0.40216908425E+02  0.51167057176E+02  0.41800000000E+01 0. -1.
         -5    1    3    3    0  502 -0.60229302546E+02 -0.40537322027E+02 -0.85075533628E+02  0.11192033856E+03  0.41800000000E+01 0. -1.
        -11    1    4    4    0    0  0.17128972732E+02  0.62426772783E+02 -0.10626077888E+03  0.12442610978E+03  0.00000000000E+00 0. -1.
         11    1    4    4    0    0  0.44290678011E+02  0.94438971025E+01 -0.25317793110E+01  0.45357041985E+02  0.00000000000E+00 0.  1.
</event>
<event>
 8    1  0.5951278E-006  0.1629772E+03  0.7561462E-02  0.1185376E+00
         -2   -1    0    0    0  501 -0.00000000000E+00  0.00000000000E+00  0.79323290916E+02  0.79323290916E+02  0.00000000000E+00 0.  1.
          2   -1    0    0  501    0  0.00000000000E+00 -0.00000000000E+00 -0.38243682813E+03  0.38243682813E+03  0.00000000000E+00 0. -1.
         23    2    1    2    0    0 -0.91869111047E+02 -0.79678344715E+02 -0.80383383372E+02  0.19208828593E+03  0.12509136297E+03 0.  0.
         23    2    1    2    0    0  0.91869111047E+02  0.79678344715E+02 -0.22273015384E+03  0.26967183311E+03  0.91244747592E+02 0.  0.
          5    1    3    3  502    0  0.31222393090E+02 -0.20410259350E+02 -0.13202851368E+02  0.39789498630E+02  0.41800000000E+01 0.  1.
         -5    1    3    3    0  502 -0.12309150414E+03 -0.59268085365E+02 -0.67180532004E+02  0.15229878730E+03  0.41800000000E+01 0.  1.
        -11    1    4    4    0    0  0.70421619620E+02  0.12527095911E+01 -0.11179413206E+03  0.13213138065E+03  0.00000000000E+00 0.  1.
         11    1    4    4    0    0  0.21447491426E+02  0.78425635124E+02 -0.11093602179E+03  0.13754045246E+03  0.00000000000E+00 0. -1.
</event>
<event>
 8    1  0.5951278E-006  0.7506277E+02  0.7561462E-02  0.1343677E+00
          1   -1    0    0  501    0  0.00000000000E+00  0.00000000000E+00  0.26115890536E+03  0.26115890536E+03  0.00000000000E+00 0. -1.
         -1   -1    0    0    0  501 -0.00000000000E+00 -0.00000000000E+00 -0.47168340861E+02  0.47168340861E+02  0.00000000000E+00 0.  1.
         23    2    1    2    0    0  0.12218212149E+02  0.15142351035E+02  0.11006146931E+03  0.16775387974E+03  0.12509700891E+03 0.  0.
         23    2    1    2    0    0 -0.12218212149E+02 -0.15142351035E+02  0.10392909519E+03  0.14057336648E+03  0.92633897868E+02 0.  0.
          5    1    3    3  502    0  0.20490860414E+02  0.44862797100E+02  0.12409689185E+03  0.13360410507E+03  0.41800000000E+01 0.  1.
         -5    1    3    3    0  502 -0.82726482655E+01 -0.29720446065E+02 -0.14035422547E+02  0.34149774666E+02  0.41800000000E+01 0.  1.
        -11    1    4    4    0    0  0.13606577087E+00  0.26274832837E+02 -0.18147370093E+01  0.26337779422E+02  0.00000000000E+00 0.  1.
         11    1    4    4    0    0 -0.12354277920E+02 -0.41417183871E+02  0.10574383220E+03  0.11423558706E+03  0.00000000000E+00 0. -1.
</event>
<event>
 8    1  0.5951278E-006  0.1056841E+03  0.7561462E-02  0.1268778E+00
          1   -1    0    0  501    0  0.00000000000E+00  0.00000000000E+00  0.19799824965E+03  0.19799824965E+03  0.00000000000E+00 0. -1.
         -1   -1    0    0    0  501 -0.00000000000E+00 -0.00000000000E+00 -0.66045077794E+02  0.66045077794E+02  0.00000000000E+00 0.  1.
         23    2    1    2    0    0 -0.65052169441E+01 -0.11493769229E+02  0.34903818826E+02  0.12643905450E+03  0.12080618095E+03 0.  0.
         23    2    1    2    0    0  0.65052169441E+01  0.11493769229E+02  0.97049353029E+02  0.13760427295E+03  0.96653682967E+02 0.  0.
          5    1    3    3  502    0  0.39014861730E+01 -0.65127647133E+02  0.28329859415E+02  0.71252265578E+02  0.41800000000E+01 0. -1.
         -5    1    3    3    0  502 -0.10406703117E+02  0.53633877904E+02  0.65739594111E+01  0.55186788919E+02  0.41800000000E+01 0.  1.
        -11    1    4    4    0    0  0.31923414413E+02 -0.29168900796E+02  0.70733569814E+02  0.82904565978E+02  0.00000000000E+00 0. -1.
         11    1    4    4    0    0 -0.25418197469E+02  0.40662670025E+02  0.26315783215E+02  0.54699706968E+02  0.00000000000E+00 0.  1.
</event>
<event>
 8    1  0.5951278E-006  0.2331303E+03  0.7561462E-02  0.1124456E+00
         -2   -1    0    0    0  501 -0.00000000000E+00  0.00000000000E+00  0.54103639577E+03  0.54103639577E+03  0.00000000000E+00 0.  1.
          2   -1    0    0  501    0  0.00000000000E+00 -0.00000000000E+00 -0.12082392908E+03  0.12082392908E+03  0.00000000000E+00 0. -1.
         23    2    1    2    0    0  0.16813969147E+03  0.14834519186E+03  0.29186084883E+03  0.38872524422E+03  0.12508920266E+03 0.  0.
         23    2    1    2    0    0 -0.16813969147E+03 -0.14834519186E+03  0.12835161786E+03  0.27313508063E+03  0.88608028257E+02 0.  0.
          5    1    3    3  502    0  0.96864473210E+02  0.12935061798E+03  0.11897815615E+03  0.20071766884E+03  0.41800000000E+01 0. -1.
         -5    1    3    3    0  502  0.71275218257E+02  0.18994573875E+02  0.17288269267E+03  0.18800757538E+03  0.41800000000E+01 0. -1.
        -11    1    4    4    0    0 -0.24857870750E+02 -0.53229118020E+02  0.70316821066E+02  0.91628096500E+02  0.00000000000E+00 0.  1.
         11    1    4    4    0    0 -0.14328182072E+03 -0.95116073837E+02  0.58034796791E+02  0.18150698413E+03  0.00000000000E+00 0. -1.
</event>
<event>
 8    1  0.1130120E-005  0.4085857E+03  0.7561462E-02  0.1040847E+00
         -2   -1    0    0    0  501 -0.00000000000E+00  0.00000000000E+00  0.67709298615E+03  0.67709298615E+03  0.00000000000E+00 0.  1.
          2   -1    0    0  501    0  0.00000000000E+00 -0.00000000000E+00 -0.25712698186E+03  0.25712698186E+03  0.00000000000E+00 0. -1.
         23    2    1    2    0    0  0.39615051278E+03 -0.66264558090E+02  0.24704374760E+03  0.48785657898E+03  0.12508880045E+03 0.  0.
         23    2    1    2    0    0 -0.39615051278E+03  0.66264558090E+02  0.17292225669E+03  0.44636338903E+03  0.89509484274E+02 0.  0.
          5    1    3    3  502    0  0.13431074249E+03 -0.65187526590E+02  0.14077402469E+03  0.20524031670E+03  0.41800000000E+01 0. -1.
         -5    1    3    3    0  502  0.26183977028E+03 -0.10770315000E+01  0.10626972290E+03  0.28261626228E+03  0.41800000000E+01 0. -1.
        -11    1    4    4    0    0 -0.84292835008E+02  0.39054658991E+02  0.99301781436E+01  0.93429956976E+02  0.00000000000E+00 0.  1.
         11    1    4    4    0    0 -0.31185767777E+03  0.27209899099E+02  0.16299207855E+03  0.35293343205E+03  0.00000000000E+00 0. -1.
</event>
<event>
 8    1  0.5951278E-006  0.1227497E+03  0.7561462E-02  0.1238629E+00
         -1   -1    0    0    0  501 -0.00000000000E+00  0.00000000000E+00  0.51511112727E+02  0.51511112727E+02  0.00000000000E+00 0.  1.
          1   -1    0    0  501    0  0.00000000000E+00 -0.00000000000E+00 -0.29974242632E+03  0.29974242632E+03  0.00000000000E+00 0. -1.
         23    2    1    2    0    0 -0.48867167927E+02 -0.34962432658E+02 -0.13280716424E+03  0.19208418080E+03  0.12509283689E+03 0.  0.
         23    2    1    2    0    0  0.48867167927E+02  0.34962432658E+02 -0.11542414935E+03  0.15916935824E+03  0.91661216181E+02 0.  0.
          5    1    3    3  502    0  0.35092068825E+02  0.15501738886E+02 -0.23219247824E+02  0.45037351969E+02  0.41800000000E+01 0.  1.
         -5    1    3    3    0  502 -0.83959236751E+02 -0.50464171543E+02 -0.10958791642E+03  0.14704682883E+03  0.41800000000E+01 0.  1.
        -11    1    4    4    0    0  0.79080770841E+01 -0.30573076572E+02 -0.25425880515E+02  0.40542892031E+02  0.00000000000E+00 0.  1.
         11    1    4    4    0    0  0.40959090843E+02  0.65535509230E+02 -0.89998268836E+02  0.11862646621E+03  0.00000000000E+00 0. -1.
</event>
<event>
 8    1  0.5951278E-006  0.1170388E+03  0.7561462E-02  0.1248064E+00
          2   -1    0    0  501    0  0.00000000000E+00  0.00000000000E+00  0.37203648758E+03  0.37203648758E+03  0.00000000000E+00 0. -1.
         -2   -1    0    0    0  501 -0.00000000000E+00 -0.00000000000E+00 -0.68045824061E+02  0.68045824061E+02  0.00000000000E+00 0.  1.
         23    2    1    2    0    0  0.85208493565E+02 -0.21747417024E+02  0.57857104906E+02  0.16348681096E+03  0.12508818988E+03 0.  0.
         23    2    1    2    0    0 -0.85208493565E+02  0.21747417024E+02  0.24613355861E+03  0.27659550068E+03  0.90498092784E+02 0.  0.
          5    1    3    3  502    0  0.48970816331E+02 -0.43512034584E+02  0.89162468272E+02  0.11071971890E+03  0.41800000000E+01 0.  1.
         -5    1    3    3    0  502  0.36237677234E+02  0.21764617560E+02 -0.31305363366E+02  0.52767092059E+02  0.41800000000E+01 0.  1.
        -11    1    4    4    0    0  0.15116184224E+02 -0.12845158200E+02  0.32981393021E+02  0.38487262832E+02  0.00000000000E+00 0.  1.
         11    1    4    4    0    0 -0.10032467779E+03  0.34592575224E+02  0.21315216559E+03  0.23810823785E+03  0.00000000000E+00 0. -1.
</event>
<event>
 8    1  0.5951278E-006  0.1493337E+03  0.7561462E-02  0.1201294E+00
         -2   -1    0    0    0  501 -0.00000000000E+00  0.00000000000E+00  0.80193619189E+02  0.80193619189E+02  0.00000000000E+00 0.  1.
          2   -1    0    0  501    0  0.00000000000E+00 -0.00000000000E+00 -0.46193329482E+03  0.46193329482E+03  0.00000000000E+00 0. -1.
         23    2    1    2    0    0  0.13392736266E+03  0.23247666209E+02 -0.84139657261E+02  0.20298846176E+03  0.12509133156E+03 0.  0.
         23    2    1    2    0    0 -0.13392736266E+03 -0.23247666209E+02 -0.29760001836E+03  0.33913845224E+03  0.89286765007E+02 0.  0.
          5    1    3    3  502    0  0.38354970603E+01 -0.31348578908E+01  0.28265440404E+02  0.28999067105E+02  0.41800000000E+01 0. -1.
         -5    1    3    3    0  502  0.13009186560E+03  0.26382524100E+02 -0.11240509767E+03  0.17398939466E+03  0.41800000000E+01 0. -1.
        -11    1    4    4    0    0 -0.36660248205E+02 -0.46655713798E+02 -0.79632241935E+02  0.99307720667E+02  0.00000000000E+00 0. -1.
         11    1    4    4    0    0 -0.97267114452E+02  0.23408047589E+02 -0.21796777643E+03  0.23983073157E+03  0.00000000000E+00 0.  1.
</event>
<event>
 8    1  0.5951278E-006  0.7501596E+02  0.7561462E-02  0.1343822E+00
         -2   -1    0    0    0  501 -0.00000000000E+00  0.00000000000E+00  0.28900202371E+02  0.28900202371E+02  0.00000000000E+00 0. -1.
          2   -1    0    0  501    0  0.00000000000E+00 -0.00000000000E+00 -0.47886928068E+03  0.47886928068E+03  0.00000000000E+00 0.  1.
         23    2    1    2    0    0 -0.32622241519E+02  0.53658035447E+01 -0.18690462239E+03  0.22731904112E+03  0.12509039170E+03 0.  0.
         23    2    1    2    0    0  0.32622241519E+02 -0.53658035447E+01 -0.26306445592E+03  0.28045044193E+03  0.91414112260E+02 0.  0.
          5    1    3    3  502    0 -0.40014679580E+02 -0.43616951601E+01 -0.20282353624E+03  0.20682131955E+03  0.41800000000E+01 0.  1.
         -5    1    3    3    0  502  0.73924380605E+01  0.97274987048E+01  0.15918913851E+02  0.20497721574E+02  0.41800000000E+01 0.  1.
        -11    1    4    4    0    0 -0.22838564659E+02  0.24637281763E+02 -0.10619379722E+03  0.11138096002E+03  0.00000000000E+00 0. -1.
         11    1    4    4    0    0  0.55460806178E+02 -0.30003085308E+02 -0.15687065870E+03  0.16906948191E+03  0.00000000000E+00 0.  1.
</event>
<event>
 8    1  0.5951278E-006  0.9865190E+02  0.7561462E-02  0.1283157E+00
          1   -1    0    0  501    0  0.00000000000E+00  0.00000000000E+00  0.15718105559E+03  0.15718105559E+03  0.00000000000E+00 0. -1.
         -1   -1    0    0    0  501 -0.00000000000E+00 -0.00000000000E+00 -0.87539605763E+02  0.87539605763E+02  0.00000000000E+00 0.  1.
         23    2    1    2    0    0 -0.38836588671E+02  0.14175197671E+02  0.21307429559E+02  0.13345905653E+03  0.12509235135E+03 0.  0.
         23    2    1    2    0    0  0.38836588671E+02 -0.14175197671E+02  0.48334020273E+02  0.11126160483E+03  0.91289376955E+02 0.  0.
          5    1    3    3  502    0  0.28927794802E+02 -0.27067689427E+02 -0.19275192176E+02  0.44254746147E+02  0.41800000000E+01 0. -1.
         -5    1    3    3    0  502 -0.67764383473E+02  0.41242887099E+02  0.40582621735E+02  0.89204310382E+02  0.41800000000E+01 0. -1.
        -11    1    4    4    0    0  0.44696135329E+02 -0.34763023766E+02 -0.19019160122E+01  0.56655358256E+02  0.00000000000E+00 0.  1.
         11    1    4    4    0    0 -0.58595466575E+01  0.20587826094E+02  0.50235936285E+02  0.54606246572E+02  0.00000000000E+00 0. -1.
</event>
<event>
 8    1  0.5951278E-006  0.2181167E+03  0.7561462E-02  0.1135295E+00
          2   -1    0    0  501    0  0.00000000000E+00  0.00000000000E+00  0.21518901403E+03  0.21518901403E+03  0.00000000000E+00 0. -1.
         -2   -1    0    0    0  501 -0.00000000000E+00 -0.00000000000E+00 -0.28457011232E+03  0.28457011232E+03  0.00000000000E+00 0.  1.
         23    2    1    2    0    0  0.59605134559E+02  0.19211455244E+03 -0.13106526592E+03  0.27071315886E+03  0.12508691827E+03 0.  0.
         23    2    1    2    0    0 -0.59605134559E+02 -0.19211455244E+03  0.61684167623E+02  0.22904596749E+03  0.90533669765E+02 0.  0.
          5    1    3    3  502    0  0.65830929475E+02  0.20755348361E+03 -0.11143426613E+03  0.24463693078E+03  0.41800000000E+01 0.  1.
         -5    1    3    3    0  502 -0.62257949165E+01 -0.15438931169E+02 -0.19630999783E+02  0.26076228072E+02  0.41800000000E+01 0.  1.
        -11    1    4    4    0    0 -0.29590175963E+02 -0.82911715968E+02 -0.18912693810E+02  0.90042329742E+02  0.00000000000E+00 0. -1.
         11    1    4    4    0    0 -0.30014958596E+02 -0.10920283647E+03  0.80596861433E+02  0.13900363775E+03  0.00000000000E+00 0.  1.
</event>
<event>
 8    1  0.5951278E-006  0.9246677E+02  0.7561462E-02  0.1296986E+00
          2   -1    0    0  501    0  0.00000000000E+00  0.00000000000E+00  0.14378392807E+03  0.14378392807E+03  0.00000000000E+00 0. -1.
         -2   -1    0    0    0  501 -0.00000000000E+00 -0.00000000000E+00 -0.13507607846E+03  0.13507607846E+03  0.00000000000E+00 0.  1.
         23    2    1    2    0    0 -0.59900296179E+02 -0.77887982313E+01 -0.57941765904E+02  0.15050809239E+03  0.12508687692E+03 0.  0.
         23    2    1    2    0    0  0.59900296179E+02  0.77887982313E+01  0.66649615521E+02  0.12835191414E+03  0.91560536011E+02 0.  0.
          5    1    3    3  502    0 -0.68705210005E+02  0.91757165332E+01 -0.89559251031E+02  0.11332665839E+03  0.41800000000E+01 0. -1.
         -5    1    3    3    0  502  0.88049138261E+01 -0.16964514764E+02  0.31617485126E+02  0.37181434001E+02  0.41800000000E+01 0. -1.
        -11    1    4    4    0    0  0.63114779909E+02  0.32511628719E+02  0.17317369713E+02  0.73077853955E+02  0.00000000000E+00 0.  1.
         11    1    4    4    0    0 -0.32144837305E+01 -0.24722830488E+02  0.49332245808E+02  0.55274060186E+02  0.00000000000E+00 0. -1.
</event>
<event>
 8    1  0.5951278E-006  0.9878596E+02  0.7561462E-02  0.1282870E+00
          3   -1    0    0  501    0  0.00000000000E+00  0.00000000000E+00  0.16782496576E+02  0.16782496576E+02  0.00000000000E+00 0. -1.
         -3   -1    0    0    0  501 -0.00000000000E+00 -0.00000000000E+00 -0.90636521171E+03  0.90636521171E+03  0.00000000000E+00 0.  1.
         23    2    1    2    0    0 -0.83021189805E+01  0.29650126712E+02 -0.67782098111E+03  0.68995408490E+03  0.12508917478E+03 0.  0.
         23    2    1    2    0    0  0.83021189805E+01 -0.29650126712E+02 -0.21176173403E+03  0.23319362339E+03  0.92672427381E+02 0.  0.
          5    1    3    3  502    0  0.14012818440E+02 -0.31876223706E+02 -0.48538005780E+03  0.48664537975E+03  0.41800000000E+01 0. -1.
         -5    1    3    3    0  502 -0.22314937421E+02  0.61526350418E+02 -0.19244092331E+03  0.20330870515E+03  0.41800000000E+01 0. -1.
        -11    1    4    4    0    0 -0.23383367801E+02 -0.52755210701E+02 -0.13978355364E+03  0.15122610891E+03  0.00000000000E+00 0.  1.
         11    1    4    4    0    0  0.31685486782E+02  0.23105083989E+02 -0.71978180382E+02  0.81967514479E+02  0.00000000000E+00 0. -1.
</event>
<event>
 8    1  0.5951278E-006  0.9251498E+02  0.7561462E-02  0.1296873E+00
         -1   -1    0    0    0  501 -0.00000000000E+00  0.00000000000E+00  0.52130339177E+02  0.52130339177E+02  0.00000000000E+00 0.  1.
          1   -1    0    0  501    0  0.00000000000E+00 -0.00000000000E+00 -0.28581088665E+03  0.28581088665E+03  0.00000000000E+00 0. -1.
         23    2    1    2    0    0 -0.34130575281E+02  0.67187188069E+01 -0.70632859727E+02  0.14780453713E+03  0.12508854052E+03 0.  0.
         23    2    1    2    0    0  0.34130575281E+02 -0.67187188069E+01 -0.16304768775E+03  0.19013668870E+03  0.91418677300E+02 0.  0.
          5    1    3    3  502    0  0.23129815719E+02 -0.34604935070E+02 -0.64397891049E+02  0.76792256628E+02  0.41800000000E+01 0. -1.
         -5    1    3    3    0  502 -0.57260391000E+02  0.41323653877E+02 -0.62349686773E+01  0.71012280499E+02  0.41800000000E+01 0. -1.
        -11    1    4    4    0    0  0.20016415010E+02  0.28322919083E+02 -0.14344126180E+03  0.14757452423E+03  0.00000000000E+00 0. -1.
         11    1    4    4    0    0  0.14114160271E+02 -0.35041637890E+02 -0.19606425951E+02  0.42562164475E+02  0.00000000000E+00 0.  1.
</event>
<event>
 8    1  0.5951278E-006  0.1402447E+03  0.7561462E-02  0.1213000E+00
         -1   -1    0    0    0  501 -0.00000000000E+00  0.00000000000E+00  0.18141608245E+03  0.18141608245E+03  0.00000000000E+00 0.  1.
          1   -1    0    0  501    0  0.00000000000E+00 -0.00000000000E+00 -0.12279024581E+03  0.12279024581E+03  0.00000000000E+00 0. -1.
         23    2    1    2    0    0 -0.48075440527E+02  0.82601061626E+02  0.77669058334E+02  0.16918424534E+03  0.11600277102E+03 0.  0.
         23    2    1    2    0    0  0.48075440527E+02 -0.82601061626E+02 -0.19043221689E+02  0.13502208293E+03  0.93456595392E+02 0.  0.
          5    1    3    3  502    0  0.35801296222E+02  0.59142455878E+01  0.20762436876E+02  0.42015024659E+02  0.41800000000E+01 0. -1.
         -5    1    3    3    0  502 -0.83876736749E+02  0.76686816038E+02  0.56906621458E+02  0.12716922068E+03  0.41800000000E+01 0.  1.
        -11    1    4    4    0    0  0.32830405902E+02  0.11592888339E+02  0.82392816660E+01  0.35778713981E+02  0.00000000000E+00 0.  1.
         11    1    4    4    0    0  0.15245034625E+02 -0.94193949965E+02 -0.27282503355E+02  0.99243368947E+02  0.00000000000E+00 0. -1.
</event>
<event>
 8    1  0.5951278E-006  0.8637352E+02  0.7561462E-02  0.1311879E+00
         -1   -1    0    0    0  501 -0.00000000000E+00  0.00000000000E+00  0.66143674998E+02  0.66143674998E+02  0.00000000000E+00 0.  1.
          1   -1    0    0  501    0  0.00000000000E+00 -0.00000000000E+00 -0.20933111561E+03  0.20933111561E+03  0.00000000000E+00 0. -1.
         23    2    1    2    0    0  0.16398655752E+02 -0.37871438040E+02 -0.56906274906E+02  0.14349137275E+03  0.12509311812E+03 0.  0.
         23    2    1    2    0    0 -0.16398655752E+02  0.37871438040E+02 -0.86281165708E+02  0.13198341786E+03  0.90950653126E+02 0.  0.
          5    1    3    3  502    0 -0.24569347159E+02 -0.75510985371E+01 -0.82352304152E+02  0.86371559602E+02  0.41800000000E+01 0. -1.
         -5    1    3    3    0  502  0.40968002911E+02 -0.30320339502E+02  0.25446029246E+02  0.57119813151E+02  0.41800000000E+01 0. -1.
        -11    1    4    4    0    0 -0.14566399839E+02 -0.26995269300E+02 -0.10984308360E+02  0.32581890661E+02  0.00000000000E+00 0. -1.
         11    1    4    4    0    0 -0.18322559125E+01  0.64866707340E+02 -0.75296857348E+02  0.99401527198E+02  0.00000000000E+00 0.  1.
</event>
<event>
 8    1  0.5951278E-006  0.2887475E+03  0.7561462E-02  0.1091005E+00
          2   -1    0    0  501    0  0.00000000000E+00  0.00000000000E+00  0.58698642989E+03  0.58698642989E+03  0.00000000000E+00 0. -1.
         -2   -1    0    0    0  501 -0.00000000000E+00 -0.00000000000E+00 -0.16669225902E+03  0.16669225902E+03  0.00000000000E+00 0.  1.
         23    2    1    2    0    0 -0.12227013321E+03 -0.24611040690E+03  0.91821657493E+02  0.31559378082E+03  0.12509156585E+03 0.  0.
         23    2    1    2    0    0  0.12227013321E+03  0.24611040690E+03  0.32847251338E+03  0.43808490809E+03  0.92216467035E+02 0.  0.
          5    1    3    3  502    0 -0.14091195950E+03 -0.20718193732E+03  0.50374898948E+02  0.25560836905E+03  0.41800000000E+01 0.  1.
         -5    1    3    3    0  502  0.18641826295E+02 -0.38928469580E+02  0.41446758546E+02  0.59985411772E+02  0.41800000000E+01 0.  1.
        -11    1    4    4    0    0  0.41224834155E+02  0.16024580197E+03  0.23542615180E+03  0.28775628048E+03  0.00000000000E+00 0.  1.
         11    1    4    4    0    0  0.81045299051E+02  0.85864604933E+02  0.93046361573E+02  0.15032862762E+03  0.00000000000E+00 0. -1.
</event>
<event>
 8    1  0.5951278E-006  0.5607186E+02  0.7561462E-02  0.1415097E+00
          2   -1    0    0  501    0  0.00000000000E+00  0.00000000000E+00  0.15453185849E+03  0.15453185849E+03  0.00000000000E+00 0. -1.
         -2   -1    0    0    0  501 -0.00000000000E+00 -0.00000000000E+00 -0.86922699358E+02  0.86922699358E+02  0.00000000000E+00 0.  1.
         23    2    1    2    0    0 -0.46055028308E+02  0.29817600558E+01  0.95038284528E+01  0.13366908233E+03  0.12508854580E+03 0.  0.
         23    2    1    2    0    0  0.46055028308E+02 -0.29817600558E+01  0.58105330681E+02  0.10778547551E+03  0.78176228823E+02 0.  0.
          5    1    3    3  502    0 -0.11355543393E+02 -0.96378827785E+01 -0.56142901678E+02  0.58235169434E+02  0.41800000000E+01 0. -1.
         -5    1    3    3    0  502 -0.34699484915E+02  0.12619642834E+02  0.65646730131E+02  0.75433912901E+02  0.41800000000E+01 0. -1.
        -11    1    4    4    0    0  0.34113409009E+02  0.15533110262E+02 -0.78076023651E+01  0.38287868095E+02  0.00000000000E+00 0.  1.
         11    1    4    4    0    0  0.11941619300E+02 -0.18514870317E+02  0.65912933046E+02  0.69497607420E+02  0.00000000000E+00 0. -1.
</event>
<event>
 8    1  0.5951278E-006  0.2794373E+03  0.7561462E-02  0.1095997E+00
          1   -1    0    0  501    0  0.00000000000E+00  0.00000000000E+00  0.51950089042E+03  0.51950089042E+03  0.00000000000E+00 0. -1.
         -1   -1    0    0    0  501 -0.00000000000E+00 -0.00000000000E+00 -0.17794588211E+03  0.17794588211E+03  0.00000000000E+00 0.  1.
         23    2    1    2    0    0  0.12061668464E+03 -0.24050434520E+03  0.70014127089E+02  0.30486082223E+03  0.12508964091E+03 0.  0.
         23    2    1    2    0    0 -0.12061668464E+03  0.24050434520E+03  0.27154088122E+03  0.39258595030E+03  0.89434632705E+02 0.  0.
          5    1    3    3  502    0  0.10559671494E+03 -0.11284725717E+03  0.83218822751E+02  0.17557908337E+03  0.41800000000E+01 0.  1.
         -5    1    3    3    0  502  0.15019969697E+02 -0.12765708804E+03 -0.13204695661E+02  0.12928173886E+03  0.41800000000E+01 0.  1.
        -11    1    4    4    0    0 -0.54793954395E+02  0.50255860106E+02  0.11771481539E+03  0.13922933123E+03  0.00000000000E+00 0.  1.
         11    1    4    4    0    0 -0.65822730245E+02  0.19024848510E+03  0.15382606583E+03  0.25335661907E+03  0.00000000000E+00 0. -1.
</event>
<event>
 7    1  0.5951278E-006  0.1260758E+03  0.7561462E-02  0.1233398E+00
         -1   -1    0    0    0  501 -0.00000000000E+00  0.00000000000E+00  0.47436870242E+02  0.47436870242E+02  0.00000000000E+00 0.  1.
          1   -1    0    0  501    0  0.00000000000E+00 -0.00000000000E+00 -0.35677104768E+03  0.35677104768E+03  0.00000000000E+00 0. -1.
         23    2    1    2    0    0  0.51736575364E+02  0.45615827131E+01 -0.13026939120E+03  0.16749993383E+03  0.91589476916E+02 0.  0.
          5    1    1    2  502    0  0.11764586578E+02 -0.60756728595E+02 -0.40094467023E+02  0.73856782037E+02  0.41800000000E+01 0. -1.
         -5    1    1    2    0  502 -0.63501161941E+02  0.56195145882E+02 -0.13897031921E+03  0.16285120206E+03  0.41800000000E+01 0.  1.
        -11    1    3    3    0    0 -0.20167072675E+02 -0.20809380793E+02 -0.38517410724E+02  0.48200955158E+02  0.00000000000E+00 0. -1.
         11    1    3    3    0    0  0.71903648039E+02  0.25370963506E+02 -0.91751980479E+02  0.11929897867E+03  0.00000000000E+00 0.  1.
</event>
<event>
 8    1  0.5951278E-006  0.1077494E+03  0.7561462E-02  0.1264795E+00
         -2   -1    0    0    0  501 -0.00000000000E+00  0.00000000000E+00  0.37434577012E+02  0.37434577012E+02  0.00000000000E+00 0.  1.
          2   -1    0    0  501    0  0.00000000000E+00 -0.00000000000E+00 -0.56773825019E+03  0.56773825019E+03  0.00000000000E+00 0. -1.
         23    2    1    2    0    0  0.84052532686E+02  0.25526292693E+02 -0.20357059290E+03  0.25456707049E+03  0.12508791794E+03 0.  0.
         23    2    1    2    0    0 -0.84052532686E+02 -0.25526292693E+02 -0.32673308028E+03  0.35060575671E+03  0.91942759483E+02 0.  0.
          5    1    3    3  502    0  0.52128935518E+01  0.86289652659E+01 -0.16451858497E+03  0.16488017013E+03  0.41800000000E+01 0.  1.
         -5    1    3    3    0  502  0.78839639135E+02  0.16897327427E+02 -0.39052007927E+02  0.89686900360E+02  0.41800000000E+01 0.  1.
        -11    1    4    4    0    0 -0.53658129336E+02  0.29316788159E+02 -0.12166030543E+03  0.13616129711E+03  0.00000000000E+00 0.  1.
         11    1    4    4    0    0 -0.30394403351E+02 -0.54843080852E+02 -0.20507277484E+03  0.21444445960E+03  0.00000000000E+00 0. -1.
</event>
<event>
 8    1  0.1676100E-005  0.3689929E+03  0.7561462E-02  0.1055079E+00
         -1   -1    0    0    0  501 -0.00000000000E+00  0.00000000000E+00  0.76831328466E+02  0.76831328466E+02  0.00000000000E+00 0.  1.
          1   -1    0    0  501    0  0.00000000000E+00 -0.00000000000E+00 -0.22501358024E+04  0.22501358024E+04  0.00000000000E+00 0. -1.
         23    2    1    2    0    0  0.21293806471E+03 -0.28845809202E+03 -0.59428297502E+03  0.70524523057E+03  0.12509152883E+03 0.  0.
         23    2    1    2    0    0 -0.21293806471E+03  0.28845809202E+03 -0.15790214989E+04  0.16217219003E+04  0.90124012460E+02 0.  0.
          5    1    3    3  502    0  0.20495507697E+03 -0.22519954161E+03 -0.41375826971E+03  0.51374584696E+03  0.41800000000E+01 0. -1.
         -5    1    3    3    0  502  0.79829877345E+01 -0.63258550414E+02 -0.18052470531E+03  0.19149938361E+03  0.41800000000E+01 0. -1.
        -11    1    4    4    0    0 -0.21295590682E+02  0.94585213195E+02 -0.39523559338E+03  0.40695336221E+03  0.00000000000E+00 0. -1.
         11    1    4    4    0    0 -0.19164247403E+03  0.19387287883E+03 -0.11837859055E+04  0.12147685381E+04  0.00000000000E+00 0.  1.
</event>
<event>
 8    1  0.5951278E-006  0.6362305E+02  0.7561462E-02  0.1383227E+00
          1   -1    0    0  501    0  0.00000000000E+00  0.00000000000E+00  0.38437332279E+02  0.38437332279E+02  0.00000000000E+00 0. -1.
         -1   -1    0    0    0  501 -0.00000000000E+00 -0.00000000000E+00 -0.34588799448E+03  0.34588799448E+03  0.00000000000E+00 0.  1.
         23    2    1    2    0    0 -0.13554349002E+02  0.35222888749E+02 -0.16352431743E+03  0.20931377407E+03  0.12509069252E+03 0.  0.
         23    2    1    2    0    0  0.13554349002E+02 -0.35222888749E+02 -0.14392634477E+03  0.17501155269E+03  0.92140537161E+02 0.  0.
          5    1    3    3  502    0  0.22710935523E+02  0.17179190859E+02  0.10463135402E+02  0.30624512949E+02  0.41800000000E+01 0.  1.
         -5    1    3    3    0  502 -0.36265284525E+02  0.18043697890E+02 -0.17398745283E+03  0.17868926112E+03  0.41800000000E+01 0.  1.
        -11    1    4    4    0    0  0.23140699756E+02 -0.20710550802E+01 -0.13806639221E+03  0.14000753520E+03  0.00000000000E+00 0.  1.
         11    1    4    4    0    0 -0.95863507542E+01 -0.33151833669E+02 -0.58599525539E+01  0.35004017489E+02  0.00000000000E+00 0. -1.
</event>
<event>
 8    1  0.5951278E-006  0.1532172E+03  0.7561462E-02  0.1196575E+00
          4   -1    0    0  501    0  0.00000000000E+00  0.00000000000E+00  0.46893045274E+02  0.46893045274E+02  0.00000000000E+00 0. -1.
         -4   -1    0    0    0  501 -0.00000000000E+00 -0.00000000000E+00 -0.57424995634E+03  0.57424995634E+03  0.00000000000E+00 0.  1.
         23    2    1    2    0    0 -0.88321809022E+02  0.68115126179E+02 -0.38020423408E+03  0.41550319463E+03  0.12508889946E+03 0.  0.
         23    2    1    2    0    0  0.88321809022E+02 -0.68115126179E+02 -0.14715267698E+03  0.20563980698E+03  0.90517443129E+02 0.  0.
          5    1    3    3  502    0 -0.11909040238E+03  0.40345476610E+02 -0.27846238133E+03  0.30556349854E+03  0.41800000000E+01 0. -1.
         -5    1    3    3    0  502  0.30768593360E+02  0.27769649569E+02 -0.10174185275E+03  0.10993969609E+03  0.41800000000E+01 0. -1.
        -11    1    4    4    0    0  0.36399712913E+02 -0.78035550219E+02 -0.11536540075E+03  0.14395715296E+03  0.00000000000E+00 0. -1.
         11    1    4    4    0    0  0.51922096108E+02  0.99204240394E+01 -0.31787276233E+02  0.61682654027E+02  0.00000000000E+00 0.  1.
</event>
<event>
 8    1  0.5951278E-006  0.8780729E+02  0.7561462E-02  0.1308250E+00
          2   -1    0    0  501    0  0.00000000000E+00  0.00000000000E+00  0.37236344358E+03  0.37236344358E+03  0.00000000000E+00 0.  1.
         -2   -1    0    0    0  501 -0.00000000000E+00 -0.00000000000E+00 -0.59338077595E+02  0.59338077595E+02  0.00000000000E+00 0. -1.
         23    2    1    2    0    0  0.49865116970E+02 -0.37059684846E+02  0.50644460442E+02  0.14856968335E+03  0.12509252298E+03 0.  0.
         23    2    1    2    0    0 -0.49865116970E+02  0.37059684846E+02  0.26238090554E+03  0.28313183783E+03  0.86370989726E+02 0.  0.
          5    1    3    3  502    0  0.51791600329E+02 -0.22081557919E+02 -0.31699616599E+02  0.64747997322E+02  0.41800000000E+01 0. -1.
         -5    1    3    3    0  502 -0.19264833591E+01 -0.14978126927E+02  0.82344077041E+02  0.83821686025E+02  0.41800000000E+01 0. -1.
        -11    1    4    4    0    0 -0.42849558783E+02 -0.19084252276E+02  0.15231965545E+03  0.15937870250E+03  0.00000000000E+00 0.  1.
         11    1    4    4    0    0 -0.70155581869E+01  0.56143937122E+02  0.11006125009E+03  0.12375313533E+03  0.00000000000E+00 0. -1.
</event>
<event>
 8    1  0.5951278E-006  0.9084320E+02  0.7561462E-02  0.1300823E+00
          2   -1    0    0  501    0  0.00000000000E+00  0.00000000000E+00  0.42768699905E+02  0.42768699905E+02  0.00000000000E+00 0. -1.
         -2   -1    0    0    0  501 -0.00000000000E+00 -0.00000000000E+00 -0.30662038228E+03  0.30662038228E+03  0.00000000000E+00 0.  1.
         23    2    1    2    0    0 -0.33377308962E+02  0.78897411676E+01 -0.18595236633E+03  0.22671984484E+03  0.12508921909E+03 0.  0.
         23    2    1    2    0    0  0.33377308962E+02 -0.78897411676E+01 -0.77899316039E+02  0.12266923734E+03  0.88335415213E+02 0.  0.
          5    1    3    3  502    0 -0.53794114428E+02 -0.20921574187E+02 -0.18195638904E+03  0.19093747387E+03  0.41800000000E+01 0. -1.
         -5    1    3    3    0  502  0.20416805466E+02  0.28811315355E+02 -0.39959772869E+01  0.35782370972E+02  0.41800000000E+01 0. -1.
        -11    1    4    4    0    0 -0.27105482618E+02  0.10046936388E+01 -0.50886394050E+01  0.27597297843E+02  0.00000000000E+00 0. -1.
         11    1    4    4    0    0  0.60482791579E+02 -0.88944348065E+01 -0.72810676634E+02  0.95071939496E+02  0.00000000000E+00 0.  1.
</event>
<event>
 8    1  0.5951278E-006  0.8796041E+02  0.7561462E-02  0.1307867E+00
          1   -1    0    0  501    0  0.00000000000E+00  0.00000000000E+00  0.33963230881E+02  0.33963230881E+02  0.00000000000E+00 0. -1.
         -1   -1    0    0    0  501 -0.00000000000E+00 -0.00000000000E+00 -0.50770338711E+03  0.50770338711E+03  0.00000000000E+00 0.  1.
         23    2    1    2    0    0 -0.55240195914E+01 -0.21618377310E+02 -0.41803164948E+03  0.43305279688E+03  0.11084401603E+03 0.  0.
         23    2    1    2    0    0  0.55240195914E+01  0.21618377310E+02 -0.55708506751E+02  0.10861382111E+03  0.90529859065E+02 0.  0.
          5    1    3    3  502    0 -0.43393253173E+02 -0.24873097225E+02 -0.92120664983E+02  0.10490631393E+03  0.41800000000E+01 0. -1.
         -5    1    3    3    0  502  0.37869233582E+02  0.32547199151E+01 -0.32591098450E+03  0.32814648295E+03  0.41800000000E+01 0.  1.
        -11    1    4    4    0    0 -0.11449995343E+02 -0.30553418959E+02 -0.39850960716E+02  0.51504493721E+02  0.00000000000E+00 0. -1.
         11    1    4    4    0    0  0.16974014935E+02  0.52171796269E+02 -0.15857546036E+02  0.57109327392E+02  0.00000000000E+00 0.  1.
</event>
<event>
 8    1  0.5951278E-006  0.1230642E+03  0.7561462E-02  0.1238126E+00
         -1   -1    0    0    0  501 -0.00000000000E+00  0.00000000000E+00  0.40910866602E+03  0.40910866602E+03  0.00000000000E+00 0.  1.
          1   -1    0    0  501    0  0.00000000000E+00 -0.00000000000E+00 -0.47142050971E+02  0.47142050971E+02  0.00000000000E+00 0. -1.
         23    2    1    2    0    0 -0.61484897582E+02  0.23865221493E+02  0.29008878697E+03  0.32272262670E+03  0.12509375695E+03 0.  0.
         23    2    1    2    0    0  0.61484897582E+02 -0.23865221493E+02  0.71877828076E+02  0.13352809029E+03  0.91177778544E+02 0.  0.
          5    1    3    3  502    0 -0.63139250165E+02 -0.41604395603E+02  0.15062616802E+03  0.16859183117E+03  0.41800000000E+01 0. -1.
         -5    1    3    3    0  502  0.16543525829E+01  0.65469617096E+02  0.13946261896E+03  0.15413079553E+03  0.41800000000E+01 0. -1.
        -11    1    4    4    0    0  0.63407262823E+02  0.15571657115E+02  0.19904460775E+02  0.68257930255E+02  0.00000000000E+00 0. -1.
         11    1    4    4    0    0 -0.19223652401E+01 -0.39436878608E+02  0.51973367301E+02  0.65270160035E+02  0.00000000000E+00 0.  1.
</event>
<event>
 8    1  0.5951278E-006  0.8764891E+02  0.7561462E-02  0.1308647E+00
         -2   -1    0    0    0  501 -0.00000000000E+00  0.00000000000E+00  0.33093901590E+02  0.33093901590E+02  0.00000000000E+00 0.  1.
          2   -1    0    0  501    0  0.00000000000E+00 -0.00000000000E+00 -0.38201547197E+03  0.38201547197E+03  0.00000000000E+00 0. -1.
         23    2    1    2    0    0 -0.21093576748E+02 -0.17198245255E+02 -0.17110902892E+03  0.21370043658E+03  0.12509539639E+03 0.  0.
         23    2    1    2    0    0  0.21093576748E+02  0.17198245255E+02 -0.17781254146E+03  0.20140893698E+03  0.90595482084E+02 0.  0.
          5    1    3    3  502    0  0.34642587436E+02 -0.23476212138E+02 -0.14630517928E+03  0.15222982390E+03  0.41800000000E+01 0.  1.
         -5    1    3    3    0  502 -0.55736164184E+02  0.62779668829E+01 -0.24803849633E+02  0.61470612676E+02  0.41800000000E+01 0.  1.
        -11    1    4    4    0    0 -0.64625154374E+01  0.40437333425E+02 -0.34236003954E+02  0.53376455550E+02  0.00000000000E+00 0.  1.
         11    1    4    4    0    0  0.27556092186E+02 -0.23239088169E+02 -0.14357653751E+03  0.14803248143E+03  0.00000000000E+00 0. -1.
</event>
<event>
 8    1  0.5951278E-006  0.1246669E+03  0.7561462E-02  0.1235591E+00
          2   -1    0    0  501    0  0.00000000000E+00  0.00000000000E+00  0.46285446405E+03  0.46285446405E+03  0.00000000000E+00 0.  1.
         -2   -1    0    0    0  501 -0.00000000000E+00 -0.00000000000E+00 -0.49572227733E+02  0.49572227733E+02  0.00000000000E+00 0. -1.
         23    2    1    2    0    0 -0.82276266939E+02 -0.58684359476E+02  0.18503812846E+03  0.24515008731E+03  0.12508484392E+03 0.  0.
         23    2    1    2    0    0  0.82276266939E+02  0.58684359476E+02  0.22824410786E+03  0.26727660447E+03  0.95541469399E+02 0.  0.
          5    1    3    3  502    0  0.22719602565E+02 -0.24507898911E+02  0.52002855033E+01  0.34078333572E+02  0.41800000000E+01 0. -1.
         -5    1    3    3    0  502 -0.10499586950E+03 -0.34176460565E+02  0.17983784295E+03  0.21107175374E+03  0.41800000000E+01 0. -1.
        -11    1    4    4    0    0  0.21922575127E+02  0.32880901006E+02  0.18381562775E+03  0.18801579177E+03  0.00000000000E+00 0.  1.
         11    1    4    4    0    0  0.60353691812E+02  0.25803458470E+02  0.44428480113E+02  0.79260812698E+02  0.00000000000E+00 0. -1.
</event>
<event>
 8    1  0.5951278E-006  0.7098081E+02  0.7561462E-02  0.1356789E+00
         -2   -1    0    0    0  501 -0.00000000000E+00  0.00000000000E+00  0.17371479566E+04  0.17371479566E+04  0.00000000000E+00 0.  1.
          2   -1    0    0  501    0  0.00000000000E+00 -0.00000000000E+00 -0.10573946010E+02  0.10573946010E+02  0.00000000000E+00 0. -1.
         23    2    1    2    0    0 -0.38455836034E+01 -0.38736595289E+02  0.14015444723E+04  0.14076540534E+04  0.12509082295E+03 0.  0.
         23    2    1    2    0    0  0.38455836034E+01  0.38736595289E+02  0.32502953833E+03  0.34006784921E+03  0.92122901362E+02 0.  0.
          5    1    3    3  502    0 -0.12748816753E+02 -0.22655822363E+02  0.55001485209E+02  0.60979130781E+02  0.41800000000E+01 0. -1.
         -5    1    3    3    0  502  0.89032331496E+01 -0.16080772926E+02  0.13465429871E+04  0.13466749226E+04  0.41800000000E+01 0. -1.
        -11    1    4    4    0    0  0.46155299771E+02  0.23652368628E+02  0.13068273570E+03  0.14059773700E+03  0.00000000000E+00 0. -1.
         11    1    4    4    0    0 -0.42309716167E+02  0.15084226661E+02  0.19434680263E+03  0.19947011222E+03  0.00000000000E+00 0.  1.
</event>
<event>
 8    1  0.5951278E-006  0.1171754E+03  0.7561462E-02  0.1247831E+00
          2   -1    0    0  501    0  0.00000000000E+00  0.00000000000E+00  0.71144979354E+03  0.71144979354E+03  0.00000000000E+00 0. -1.
         -2   -1    0    0    0  501 -0.00000000000E+00 -0.00000000000E+00 -0.23916596212E+02  0.23916596212E+02  0.00000000000E+00 0.  1.
         23    2    1    2    0    0  0.66056829572E+02 -0.38573582656E+02  0.32223052923E+03  0.35402095992E+03  0.12508756966E+03 0.  0.
         23    2    1    2    0    0 -0.66056829572E+02  0.38573582656E+02  0.36530266810E+03  0.38134542983E+03  0.78274335012E+02 0.  0.
          5    1    3    3  502    0 -0.21396721790E+01  0.32450498420E+02  0.16670660317E+03  0.16990049142E+03  0.41800000000E+01 0.  1.
         -5    1    3    3    0  502  0.68196501751E+02 -0.71024081075E+02  0.15552392606E+03  0.18412046850E+03  0.41800000000E+01 0.  1.
        -11    1    4    4    0    0 -0.40438409710E+02 -0.15394554961E+02  0.22046797004E+03  0.22467394846E+03  0.00000000000E+00 0. -1.
         11    1    4    4    0    0 -0.25618419861E+02  0.53968137617E+02  0.14483469806E+03  0.15667148138E+03  0.00000000000E+00 0.  1.
</event>
<event>
 8    1  0.5951278E-006  0.9331170E+02  0.7561462E-02  0.1295024E+00
          1   -1    0    0  501    0  0.00000000000E+00  0.00000000000E+00  0.19725438193E+02  0.19725438193E+02  0.00000000000E+00 0. -1.
         -1   -1    0    0    0  501 -0.00000000000E+00 -0.00000000000E+00 -0.53421628746E+03  0.53421628746E+03  0.00000000000E+00 0.  1.
         23    2    1    2    0    0 -0.37999147802E+01 -0.21350364612E+02 -0.39343219112E+03  0.41340901224E+03  0.12509134650E+03 0.  0.
         23    2    1    2    0    0  0.37999147802E+01  0.21350364612E+02 -0.12105865815E+03  0.14053271342E+03  0.67999760339E+02 0.  0.
          5    1    3    3  502    0  0.52510450965E+02 -0.33830514013E+02 -0.13837048240E+03  0.15187400679E+03  0.41800000000E+01 0. -1.
         -5    1    3    3    0  502 -0.56310365745E+02  0.12480149402E+02 -0.25506170872E+03  0.26153500545E+03  0.41800000000E+01 0. -1.
        -11    1    4    4    0    0  0.14434077883E+02 -0.19340755867E+02 -0.20986604529E+02  0.31981948213E+02  0.00000000000E+00 0.  1.
         11    1    4    4    0    0 -0.10634163103E+02  0.40691120478E+02 -0.10007205362E+03  0.10855076521E+03  0.00000000000E+00 0. -1.
</event>
<event>
 8    1  0.5951278E-006  0.4120390E+02  0.7561462E-02  0.1499534E+00
         -3   -1    0    0    0  501 -0.00000000000E+00  0.00000000000E+00  0.39874531707E+02  0.39874531707E+02  0.00000000000E+00 0.  1.
          3   -1    0    0  501    0  0.00000000000E+00 -0.00000000000E+00 -0.28082814249E+03  0.28082814249E+03  0.00000000000E+00 0. -1.
         23    2    1    2    0    0 -0.97034725636E+01  0.10091483713E+02 -0.96744439243E+02  0.15079301731E+03  0.11481747307E+03 0.  0.
         23    2    1    2    0    0  0.97034725636E+01 -0.10091483713E+02 -0.14420917154E+03  0.16990965689E+03  0.88752526294E+02 0.  0.
          5    1    3    3  502    0 -0.18375586039E+02 -0.81570820690E+01 -0.11881735376E+03  0.12057875478E+03  0.41800000000E+01 0. -1.
         -5    1    3    3    0  502  0.86721134754E+01  0.18248565782E+02  0.22072914514E+02  0.30214262533E+02  0.41800000000E+01 0.  1.
        -11    1    4    4    0    0  0.24167726670E+02 -0.11392424845E+02 -0.15137533271E+03  0.15371518374E+03  0.00000000000E+00 0. -1.
         11    1    4    4    0    0 -0.14464254106E+02  0.13009411320E+01  0.71661611740E+01  0.16194473151E+02  0.00000000000E+00 0.  1.
</event>
<event>
 8    1  0.5951278E-006  0.1061423E+03  0.7561462E-02  0.1267885E+00
         -1   -1    0    0    0  501 -0.00000000000E+00  0.00000000000E+00  0.13126458495E+03  0.13126458495E+03  0.00000000000E+00 0.  1.
          1   -1    0    0  501    0  0.00000000000E+00 -0.00000000000E+00 -0.14582630331E+03  0.14582630331E+03  0.00000000000E+00 0. -1.
         23    2    1    2    0    0  0.79281333567E+02  0.27906840203E+02 -0.15539400020E+01  0.15071662918E+03  0.12509502788E+03 0.  0.
         23    2    1    2    0    0 -0.79281333567E+02 -0.27906840203E+02 -0.13007778360E+02  0.12637425907E+03  0.93471543671E+02 0.  0.
          5    1    3    3  502    0  0.66122309559E+02 -0.24741290115E+02  0.40891996064E+02  0.81694057312E+02  0.41800000000E+01 0.  1.
         -5    1    3    3    0  502  0.13159024008E+02  0.52648130318E+02 -0.42445936066E+02  0.69022571868E+02  0.41800000000E+01 0.  1.
        -11    1    4    4    0    0 -0.61895460114E+02 -0.31392408838E+02  0.33161543607E+02  0.76916963603E+02  0.00000000000E+00 0.  1.
         11    1    4    4    0    0 -0.17385873453E+02  0.34855686347E+01 -0.46169321967E+02  0.49457295472E+02  0.00000000000E+00 0. -1.
</event>
<event>
 8    1  0.5951278E-006  0.1217645E+03  0.7561462E-02  0.1240214E+00
          1   -1    0    0  501    0  0.00000000000E+00  0.00000000000E+00  0.16362619338E+03  0.16362619338E+03  0.00000000000E+00 0. -1.
         -1   -1    0    0    0  501 -0.00000000000E+00 -0.00000000000E+00 -0.12589856798E+03  0.12589856798E+03  0.00000000000E+00 0.  1.
         23    2    1    2    0    0  0.67762925704E+02 -0.65705420015E+02  0.15663632224E+02  0.15746056703E+03  0.12505784451E+03 0.  0.
         23    2    1    2    0    0 -0.67762925704E+02  0.65705420015E+02  0.22063993183E+02  0.13206419433E+03  0.89694566780E+02 0.  0.
          5    1    3    3  502    0  0.90610597540E+02 -0.14520900312E+02  0.34579859298E+02  0.98154857249E+02  0.41800000000E+01 0. -1.
         -5    1    3    3    0  502 -0.22847671836E+02 -0.51184519704E+02 -0.18916227074E+02  0.59305709778E+02  0.41800000000E+01 0. -1.
        -11    1    4    4    0    0 -0.43627549921E+01  0.10582367152E+02 -0.30762626876E+02  0.32823152468E+02  0.00000000000E+00 0.  1.
         11    1    4    4    0    0 -0.63400170712E+02  0.55123052863E+02  0.52826620059E+02  0.99241041863E+02  0.00000000000E+00 0. -1.
</event>
<event>
 8    1  0.5951278E-006  0.1916803E+03  0.7561462E-02  0.1156954E+00
          2   -1    0    0  501    0  0.00000000000E+00  0.00000000000E+00  0.78522501586E+03  0.78522501586E+03  0.00000000000E+00 0. -1.
         -2   -1    0    0    0  501 -0.00000000000E+00 -0.00000000000E+00 -0.53404031115E+02  0.53404031115E+02  0.00000000000E+00 0.  1.
         23    2    1    2    0    0 -0.90497108898E+02 -0.14807533134E+03  0.36708537085E+03  0.42486997925E+03  0.12508716682E+03 0.  0.
         23    2    1    2    0    0  0.90497108898E+02  0.14807533134E+03  0.36473561389E+03  0.41375906772E+03  0.89713252158E+02 0.  0.
          5    1    3    3  502    0 -0.75010583020E+02 -0.49081375522E+02  0.78053209177E+02  0.11893420387E+03  0.41800000000E+01 0.  1.
         -5    1    3    3    0  502 -0.15486525878E+02 -0.98993955819E+02  0.28903216168E+03  0.30593577538E+03  0.41800000000E+01 0.  1.
        -11    1    4    4    0    0  0.85391805086E+02  0.58252211112E+02  0.16514000390E+03  0.19482377002E+03  0.00000000000E+00 0.  1.
         11    1    4    4    0    0  0.51053038121E+01  0.89823120229E+02  0.19959560999E+03  0.21893529771E+03  0.00000000000E+00 0. -1.
</event>
<event>
 8    1  0.5951278E-006  0.2725513E+03  0.7561462E-02  0.1099828E+00
         -2   -1    0    0    0  501 -0.00000000000E+00  0.00000000000E+00  0.12122078043E+03  0.12122078043E+03  0.00000000000E+00 0.  1.
          2   -1    0    0  501    0  0.00000000000E+00 -0.00000000000E+00 -0.73626664367E+03  0.73626664367E+03  0.00000000000E+00 0. -1.
         23    2    1    2    0    0 -0.83533977726E+01  0.25545217381E+03 -0.15658179763E+03  0.32479036694E+03  0.12508129657E+03 0.  0.
         23    2    1    2    0    0  0.83533977726E+01 -0.25545217381E+03 -0.45846406562E+03  0.53269705716E+03  0.90836462324E+02 0.  0.
          5    1    3    3  502    0 -0.48626720215E+02  0.35894496673E+02 -0.43049803904E+02  0.74321805861E+02  0.41800000000E+01 0. -1.
         -5    1    3    3    0  502  0.40273322443E+02  0.21955767713E+03 -0.11353199372E+03  0.25046856108E+03  0.41800000000E+01 0. -1.
        -11    1    4    4    0    0  0.31563745627E+02 -0.14719642031E+03 -0.19079976756E+03  0.24303828400E+03  0.00000000000E+00 0. -1.
         11    1    4    4    0    0 -0.23210347855E+02 -0.10825575350E+03 -0.26766429806E+03  0.28965877317E+03  0.00000000000E+00 0.  1.
</event>
<event>
 8    1  0.5951278E-006  0.8821712E+02  0.7561462E-02  0.1307228E+00
          1   -1    0    0  501    0  0.00000000000E+00  0.00000000000E+00  0.27417303826E+03  0.27417303826E+03  0.00000000000E+00 0. -1.
         -1   -1    0    0    0  501 -0.00000000000E+00 -0.00000000000E+00 -0.52159816551E+02  0.52159816551E+02  0.00000000000E+00 0.  1.
         23    2    1    2    0    0 -0.28836716602E+02  0.35613947100E+02  0.98633179754E+02  0.16575954088E+03  0.12509121389E+03 0.  0.
         23    2    1    2    0    0  0.28836716602E+02 -0.35613947100E+02  0.12338004195E+03  0.16057331392E+03  0.91985025628E+02 0.  0.
          5    1    3    3  502    0  0.19237738889E+02 -0.16536474959E+02 -0.16441055865E+02  0.30517639482E+02  0.41800000000E+01 0. -1.
         -5    1    3    3    0  502 -0.48074455490E+02  0.52150422059E+02  0.11507423562E+03  0.13524190140E+03  0.41800000000E+01 0. -1.
        -11    1    4    4    0    0 -0.20736031257E+02 -0.16661338396E+02  0.98370538722E+02  0.10190361170E+03  0.00000000000E+00 0. -1.
         11    1    4    4    0    0  0.49572747859E+02 -0.18952608704E+02  0.25009503232E+02  0.58669702222E+02  0.00000000000E+00 0.  1.
</event>
<event>
 8    1  0.5951278E-006  0.8208016E+02  0.7561462E-02  0.1323250E+00
          2   -1    0    0  501    0  0.00000000000E+00  0.00000000000E+00  0.54016706177E+02  0.54016706177E+02  0.00000000000E+00 0. -1.
         -2   -1    0    0    0  501 -0.00000000000E+00 -0.00000000000E+00 -0.25269064965E+03  0.25269064965E+03  0.00000000000E+00 0.  1.
         23    2    1    2    0    0  0.43056162803E+02  0.63873684715E+01 -0.12663377361E+03  0.18324408535E+03  0.12509056945E+03 0.  0.
         23    2    1    2    0    0 -0.43056162803E+02 -0.63873684715E+01 -0.72040169859E+02  0.12346327048E+03  0.90325862588E+02 0.  0.
          5    1    3    3  502    0 -0.32441859963E+02  0.25319083446E+02 -0.85795501508E+02  0.95246368663E+02  0.41800000000E+01 0. -1.
         -5    1    3    3    0  502  0.75498022766E+02 -0.18931714975E+02 -0.40838272105E+02  0.87997716686E+02  0.41800000000E+01 0. -1.
        -11    1    4    4    0    0 -0.30504053753E+02 -0.94383106348E+01 -0.93285544944E+02  0.98599046134E+02  0.00000000000E+00 0.  1.
         11    1    4    4    0    0 -0.12552109050E+02  0.30509421632E+01  0.21245375085E+02  0.24864224343E+02  0.00000000000E+00 0. -1.
</event>
<event>
 8    1  0.5951278E-006  0.9167691E+02  0.7561462E-02  0.1298841E+00
         -1   -1    0    0    0  501 -0.00000000000E+00  0.00000000000E+00  0.35340331281E+03  0.35340331281E+03  0.00000000000E+00 0. -1.
          1   -1    0    0  501    0  0.00000000000E+00 -0.00000000000E+00 -0.28508323540E+02  0.28508323540E+02  0.00000000000E+00 0.  1.
         23    2    1    2    0    0  0.11868179885E+02 -0.10084447372E+02  0.18468043828E+03  0.22359874844E+03  0.12508791407E+03 0.  0.
         23    2    1    2    0    0 -0.11868179885E+02  0.10084447372E+02  0.14021455099E+03  0.15831288791E+03  0.71835230889E+02 0.  0.
          5    1    3    3  502    0  0.54057795366E+02 -0.44323636003E+02  0.12080219145E+03  0.13963334776E+03  0.41800000000E+01 0.  1.
         -5    1    3    3    0  502 -0.42189615481E+02  0.34239188631E+02  0.63878246831E+02  0.83965400677E+02  0.41800000000E+01 0.  1.
        -11    1    4    4    0    0  0.16226186590E+02  0.22804260607E+02  0.20507226323E+02  0.34696826434E+02  0.00000000000E+00 0.  1.
         11    1    4    4    0    0 -0.28094366475E+02 -0.12719813235E+02  0.11970732466E+03  0.12361606147E+03  0.00000000000E+00 0. -1.
</event>
<event>
 8    1  0.5951278E-006  0.2806512E+03  0.7561462E-02  0.1095334E+00
         -2   -1    0    0    0  501 -0.00000000000E+00  0.00000000000E+00  0.64709739705E+02  0.64709739705E+02  0.00000000000E+00 0.  1.
          2   -1    0    0  501    0  0.00000000000E+00 -0.00000000000E+00 -0.12890974396E+04  0.12890974396E+04  0.00000000000E+00 0. -1.
         23    2    1    2    0    0 -0.25919447024E+03  0.56539179363E+02 -0.70483477956E+03  0.76342536678E+03  0.12509105469E+03 0.  0.
         23    2    1    2    0    0  0.25919447024E+03 -0.56539179363E+02 -0.51955292033E+03  0.59038181252E+03  0.90757893981E+02 0.  0.
          5    1    3    3  502    0 -0.24878513556E+03  0.23994561037E+02 -0.54024969587E+03  0.59527891691E+03  0.41800000000E+01 0.  1.
         -5    1    3    3    0  502 -0.10409334683E+02  0.32544618327E+02 -0.16458508369E+03  0.16814644987E+03  0.41800000000E+01 0.  1.
        -11    1    4    4    0    0  0.64726280170E+02 -0.50920052762E+02 -0.19960942053E+03  0.21593115543E+03  0.00000000000E+00 0.  1.
         11    1    4    4    0    0  0.19446819007E+03 -0.56191266014E+01 -0.31994349980E+03  0.37445065709E+03  0.00000000000E+00 0. -1.
</event>
<event>
 8    1  0.5951278E-006  0.1181189E+03  0.7561462E-02  0.1246233E+00
         -2   -1    0    0    0  501 -0.00000000000E+00  0.00000000000E+00  0.18328981990E+02  0.18328981990E+02  0.00000000000E+00 0.  1.
          2   -1    0    0  501    0  0.00000000000E+00 -0.00000000000E+00 -0.10265120214E+04  0.10265120214E+04  0.00000000000E+00 0. -1.
         23    2    1    2    0    0  0.48553096610E+02 -0.65215353232E+02 -0.61955876522E+03  0.63726828277E+03  0.12508938878E+03 0.  0.
         23    2    1    2    0    0 -0.48553096610E+02  0.65215353232E+02 -0.38862427423E+03  0.40757272065E+03  0.92066555336E+02 0.  0.
          5    1    3    3  502    0 -0.42291798659E+02 -0.25216892361E+02 -0.18372942805E+03  0.19025893678E+03  0.41800000000E+01 0. -1.
         -5    1    3    3    0  502  0.90844895269E+02 -0.39998460871E+02 -0.43582933717E+03  0.44700934599E+03  0.41800000000E+01 0. -1.
        -11    1    4    4    0    0 -0.17723556740E+02  0.29146881689E+01 -0.63824059310E+01  0.19061872314E+02  0.00000000000E+00 0.  1.
         11    1    4    4    0    0 -0.30829539870E+02  0.62300665063E+02 -0.38224186830E+03  0.38851084834E+03  0.00000000000E+00 0. -1.
</event>
<event>
 8    1  0.5951278E-006  0.1397320E+03  0.7561462E-02  0.1213690E+00
         -1   -1    0    0    0  501 -0.00000000000E+00  0.00000000000E+00  0.10247422330E+04  0.10247422330E+04  0.00000000000E+00 0.  1.
          1   -1    0    0  501    0  0.00000000000E+00 -0.00000000000E+00 -0.20710964182E+02  0.20710964182E+02  0.00000000000E+00 0. -1.
         23    2    1    2    0    0 -0.94787011707E+02  0.64171164267E+01  0.59783400044E+03  0.61812490792E+03  0.12508857956E+03 0.  0.
         23    2    1    2    0    0  0.94787011707E+02 -0.64171164267E+01  0.40619726833E+03  0.42732828921E+03  0.92668705582E+02 0.  0.
          5    1    3    3  502    0 -0.12422854351E+03  0.23707468573E+01  0.52124992430E+03  0.53587060700E+03  0.41800000000E+01 0.  1.
         -5    1    3    3    0  502  0.29441531802E+02  0.40463695694E+01  0.76584076141E+02  0.82254300920E+02  0.41800000000E+01 0.  1.
        -11    1    4    4    0    0  0.59303617685E+02 -0.43697650036E+02  0.30531329930E+03  0.31407421801E+03  0.00000000000E+00 0. -1.
         11    1    4    4    0    0  0.35483394021E+02  0.37280533610E+02  0.10088396903E+03  0.11325407121E+03  0.00000000000E+00 0.  1.
</event>
<event>
 8    1  0.5951278E-006  0.1127485E+03  0.7561462E-02  0.1255563E+00
          2   -1    0    0  501    0  0.00000000000E+00  0.00000000000E+00  0.48469724607E+03  0.48469724607E+03  0.00000000000E+00 0. -1.
         -2   -1    0    0    0  501 -0.00000000000E+00 -0.00000000000E+00 -0.36783435284E+02  0.36783435284E+02  0.00000000000E+00 0.  1.
         23    2    1    2    0    0 -0.43917292971E+02  0.52514831024E+02  0.17558413786E+03  0.22619453040E+03  0.12509052729E+03 0.  0.
         23    2    1    2    0    0  0.43917292971E+02 -0.52514831024E+02  0.27232967293E+03  0.29528615095E+03  0.91345082440E+02 0.  0.
          5    1    3    3  502    0  0.26267011598E+02  0.46814761320E+02  0.23896421517E+02  0.58907462490E+02  0.41800000000E+01 0. -1.
         -5    1    3    3    0  502 -0.70184304569E+02  0.57000697045E+01  0.15168771634E+03  0.16728706791E+03  0.41800000000E+01 0. -1.
        -11    1    4    4    0    0  0.57885707134E+01 -0.61638500904E+02  0.93007285798E+02  0.11172809654E+03  0.00000000000E+00 0.  1.
         11    1    4    4    0    0  0.38128722258E+02  0.91236698799E+01  0.17932238713E+03  0.18355805441E+03  0.00000000000E+00 0. -1.
</event>
<event>
 8    1  0.5951278E-006  0.1068076E+03  0.7561462E-02  0.1266598E+00
          1   -1    0    0  501    0  0.00000000000E+00  0.00000000000E+00  0.56564970224E+03  0.56564970224E+03  0.00000000000E+00 0. -1.
         -1   -1    0    0    0  501 -0.00000000000E+00 -0.00000000000E+00 -0.41784164447E+02  0.41784164447E+02  0.00000000000E+00 0.  1.
         23    2    1    2    0    0 -0.64316612933E+02 -0.29248302855E+01  0.10783632470E+03  0.17725666092E+03  0.12508424995E+03 0.  0.
         23    2    1    2    0    0  0.64316612933E+02  0.29248302855E+01  0.41602921309E+03  0.43017720576E+03  0.88469999899E+02 0.  0.
          5    1    3    3  502    0  0.11519895074E+02 -0.26048659498E+02 -0.13861689736E+02  0.31950891795E+02  0.41800000000E+01 0. -1.
         -5    1    3    3    0  502 -0.75836508006E+02  0.23123829212E+02  0.12169801444E+03  0.14530576913E+03  0.41800000000E+01 0. -1.
        -11    1    4    4    0    0 -0.16854590502E+02  0.15972974725E+02  0.51514813305E+02  0.56506540617E+02  0.00000000000E+00 0.  1.
         11    1    4    4    0    0  0.81171203434E+02 -0.13048144440E+02  0.36451439978E+03  0.37367066514E+03  0.00000000000E+00 0. -1.
</event>
<event>
 8    1  0.5951278E-006  0.1469974E+03  0.7561462E-02  0.1204212E+00
          2   -1    0    0  501    0  0.00000000000E+00  0.00000000000E+00  0.12353772731E+04  0.12353772731E+04  0.00000000000E+00 0. -1.
         -2   -1    0    0    0  501 -0.00000000000E+00 -0.00000000000E+00 -0.26830460726E+02  0.26830460726E+02  0.00000000000E+00 0.  1.
         23    2    1    2    0    0 -0.20948236740E+02  0.13232126269E+03  0.43532429005E+03  0.47233829106E+03  0.12509387880E+03 0.  0.
         23    2    1    2    0    0  0.20948236740E+02 -0.13232126269E+03  0.77322252230E+03  0.78986944275E+03  0.89849442966E+02 0.  0.
          5    1    3    3  502    0 -0.62313129821E+01  0.93997698087E+02  0.41639594260E+03  0.42693963265E+03  0.41800000000E+01 0. -1.
         -5    1    3    3    0  502 -0.14716923758E+02  0.38323564606E+02  0.18928347449E+02  0.45398658418E+02  0.41800000000E+01 0. -1.
        -11    1    4    4    0    0 -0.32805621198E+02 -0.59173027085E+02  0.40566742320E+03  0.41127085256E+03  0.00000000000E+00 0. -1.
         11    1    4    4    0    0  0.53753857938E+02 -0.73148235608E+02  0.36755509910E+03  0.37859859019E+03  0.00000000000E+00 0.  1.
</event>
<event>
 8    1  0.5951278E-006  0.1862246E+03  0.7561462E-02  0.1161911E+00
         -2   -1    0    0    0  501 -0.00000000000E+00  0.00000000000E+00  0.46513414026E+02  0.46513414026E+02  0.00000000000E+00 0.  1.
          2   -1    0    0  501    0  0.00000000000E+00 -0.00000000000E+00 -0.83273245237E+03  0.83273245237E+03  0.00000000000E+00 0. -1.
         23    2    1    2    0    0 -0.15049632585E+03  0.19941705081E+02 -0.27319201643E+03  0.33664419770E+03  0.12509445355E+03 0.  0.
         23    2    1    2    0    0  0.15049632585E+03 -0.19941705081E+02 -0.51302702192E+03  0.54260166870E+03  0.90404811611E+02 0.  0.
          5    1    3    3  502    0 -0.11192640009E+03  0.70272578554E+02 -0.19945610346E+03  0.23930307967E+03  0.41800000000E+01 0. -1.
         -5    1    3    3    0  502 -0.38569925761E+02 -0.50330873473E+02 -0.73735912975E+02  0.97341118034E+02  0.41800000000E+01 0. -1.
        -11    1    4    4    0    0  0.61579297962E+02  0.36284734670E+02 -0.21091249154E+03  0.22269411980E+03  0.00000000000E+00 0.  1.
         11    1    4    4    0    0  0.88917027885E+02 -0.56226439751E+02 -0.30211453037E+03  0.31990754889E+03  0.00000000000E+00 0. -1.
</event>
<event>
 8    1  0.5951278E-006  0.7954055E+02  0.7561462E-02  0.1330360E+00
         -1   -1    0    0    0  501 -0.00000000000E+00  0.00000000000E+00  0.38157394454E+02  0.38157394454E+02  0.00000000000E+00 0.  1.
          1   -1    0    0  501    0  0.00000000000E+00 -0.00000000000E+00 -0.36516366919E+03  0.36516366919E+03  0.00000000000E+00 0. -1.
         23    2    1    2    0    0 -0.24136563231E+02 -0.38419213793E+02 -0.16317595404E+03  0.21055232652E+03  0.12508909047E+03 0.  0.
         23    2    1    2    0    0  0.24136563231E+02  0.38419213793E+02 -0.16383032070E+03  0.19276873712E+03  0.90888956197E+02 0.  0.
          5    1    3    3  502    0 -0.61081957858E+01 -0.50446790433E+02 -0.54361748703E+01  0.51275853166E+02  0.41800000000E+01 0. -1.
         -5    1    3    3    0  502 -0.18028367445E+02  0.12027576640E+02 -0.15773977917E+03  0.15927647336E+03  0.41800000000E+01 0. -1.
        -11    1    4    4    0    0  0.49594876478E+02  0.34133992802E+02 -0.15363760055E+03  0.16501301021E+03  0.00000000000E+00 0. -1.
         11    1    4    4    0    0 -0.25458313247E+02  0.42852209910E+01 -0.10192720154E+02  0.27755726913E+02  0.00000000000E+00 0.  1.
</event>
<event>
 8    1  0.5951278E-006  0.8096452E+02  0.7561462E-02  0.1326336E+00
          2   -1    0    0  501    0  0.00000000000E+00  0.00000000000E+00  0.55790419385E+02  0.55790419385E+02  0.00000000000E+00 0. -1.
         -2   -1    0    0    0  501 -0.00000000000E+00 -0.00000000000E+00 -0.21337897527E+03  0.21337897527E+03  0.00000000000E+00 0.  1.
         23    2    1    2    0    0  0.23249359920E+02  0.16206324105E+02 -0.98163554597E+02  0.16151436980E+03  0.12509048934E+03 0.  0.
         23    2    1    2    0    0 -0.23249359920E+02 -0.16206324105E+02 -0.59425001289E+02  0.10765502485E+03  0.85176850848E+02 0.  0.
          5    1    3    3  502    0  0.40832152168E+02  0.31236983992E+02  0.85138681617E+01  0.52277836323E+02  0.41800000000E+01 0.  1.
         -5    1    3    3    0  502 -0.17582792248E+02 -0.15030659886E+02 -0.10667742276E+03  0.10923653348E+03  0.41800000000E+01 0.  1.
        -11    1    4    4    0    0 -0.52211291600E+02  0.26581800862E+01 -0.22024107945E+02  0.56728707218E+02  0.00000000000E+00 0. -1.
         11    1    4    4    0    0  0.28961931680E+02 -0.18864504192E+02 -0.37400893344E+02  0.50926317636E+02  0.00000000000E+00 0.  1.
</event>
<event>
 8    1  0.5951278E-006  0.1391557E+03  0.7561462E-02  0.1214470E+00
          1   -1    0    0  501    0  0.00000000000E+00  0.00000000000E+00  0.10173753461E+04  0.10173753461E+04  0.00000000000E+00 0. -1.
         -1   -1    0    0    0  501 -0.00000000000E+00 -0.00000000000E+00 -0.20029229839E+02  0.20029229839E+02  0.00000000000E+00 0.  1.
         23    2    1    2    0    0  0.79507114434E+02 -0.39530015471E+02  0.61726406064E+03  0.63603915995E+03  0.12508752562E+03 0.  0.
         23    2    1    2    0    0 -0.79507114434E+02  0.39530015471E+02  0.38008205564E+03  0.40136541601E+03  0.93529806898E+02 0.  0.
          5    1    3    3  502    0  0.60989526033E+01 -0.70838632173E+02  0.34569145768E+03  0.35295235563E+03  0.41800000000E+01 0.  1.
         -5    1    3    3    0  502  0.73408161831E+02  0.31308616702E+02  0.27157260296E+03  0.28308680432E+03  0.41800000000E+01 0.  1.
        -11    1    4    4    0    0  0.14656914869E+02 -0.12787199069E+02  0.37468550850E+02  0.42216464990E+02  0.00000000000E+00 0.  1.
         11    1    4    4    0    0 -0.94164029303E+02  0.52317214540E+02  0.34261350479E+03  0.35914895102E+03  0.00000000000E+00 0. -1.
</event>
<event>
 8    1  0.5951278E-006  0.8446361E+02  0.7561462E-02  0.1316841E+00
          2   -1    0    0  501    0  0.00000000000E+00  0.00000000000E+00  0.77959113806E+02  0.77959113806E+02  0.00000000000E+00 0. -1.
         -2   -1    0    0    0  501 -0.00000000000E+00 -0.00000000000E+00 -0.54769084093E+03  0.54769084093E+03  0.00000000000E+00 0.  1.
         23    2    1    2    0    0  0.14751487014E+02  0.23600956213E+02 -0.50661146195E+03  0.52256723785E+03  0.12508690255E+03 0.  0.
         23    2    1    2    0    0 -0.14751487014E+02 -0.23600956213E+02  0.36879734833E+02  0.10308271688E+03  0.92148359591E+02 0.  0.
          5    1    3    3  502    0 -0.29941956468E+02  0.39859788541E+02 -0.87874336526E+02  0.10111723354E+03  0.41800000000E+01 0.  1.
         -5    1    3    3    0  502  0.44693443482E+02 -0.16258832327E+02 -0.41873712543E+03  0.42145000431E+03  0.41800000000E+01 0.  1.
        -11    1    4    4    0    0 -0.14575443077E+02 -0.46257636194E+02 -0.11337740690E+02  0.49807196378E+02  0.00000000000E+00 0.  1.
         11    1    4    4    0    0 -0.17604393688E+00  0.22656679980E+02  0.48217475523E+02  0.53275520505E+02  0.00000000000E+00 0. -1.
</event>
<event>
 8    1  0.5951278E-006  0.2042925E+03  0.7561462E-02  0.1146167E+00
          2   -1    0    0  501    0  0.00000000000E+00  0.00000000000E+00  0.92475639980E+02  0.92475639980E+02  0.00000000000E+00 0. -1.
         -2   -1    0    0    0  501 -0.00000000000E+00 -0.00000000000E+00 -0.57517764232E+03  0.57517764232E+03  0.00000000000E+00 0.  1.
         23    2    1    2    0    0  0.58500765445E+02  0.18851059230E+03 -0.32338149105E+03  0.39897784333E+03  0.12509655371E+03 0.  0.
         23    2    1    2    0    0 -0.58500765445E+02 -0.18851059230E+03 -0.15932051128E+03  0.26867543896E+03  0.88571345358E+02 0.  0.
          5    1    3    3  502    0  0.60682726978E+02  0.18769191138E+03 -0.22010879666E+03  0.29559431949E+03  0.41800000000E+01 0. -1.
         -5    1    3    3    0  502 -0.21819615326E+01  0.81868092521E+00 -0.10327269440E+03  0.10338352384E+03  0.41800000000E+01 0. -1.
        -11    1    4    4    0    0 -0.71122043969E+02 -0.16769932675E+03 -0.16252944018E+03  0.24412543550E+03  0.00000000000E+00 0.  1.
         11    1    4    4    0    0  0.12621278524E+02 -0.20811265552E+02  0.32089288993E+01  0.24550003465E+02  0.00000000000E+00 0. -1.
</event>
<event>
 8    1  0.5951278E-006  0.8366425E+02  0.7561462E-02  0.1318963E+00
          1   -1    0    0  501    0  0.00000000000E+00  0.00000000000E+00  0.13042479041E+03  0.13042479041E+03  0.00000000000E+00 0. -1.
         -1   -1    0    0    0  501 -0.00000000000E+00 -0.00000000000E+00 -0.14378033312E+03  0.14378033312E+03  0.00000000000E+00 0.  1.
         23    2    1    2    0    0  0.30712665374E+02  0.73518914829E+02 -0.29695870691E+02  0.15125519214E+03  0.12509192525E+03 0.  0.
         23    2    1    2    0    0 -0.30712665374E+02 -0.73518914829E+02  0.16340327991E+02  0.12294993139E+03  0.92202931935E+02 0.  0.
          5    1    3    3  502    0  0.15107973957E+02  0.23241002032E+02 -0.76009446183E+02  0.81014217033E+02  0.41800000000E+01 0.  1.
         -5    1    3    3    0  502  0.15604691418E+02  0.50277912797E+02  0.46313575492E+02  0.70240975109E+02  0.41800000000E+01 0.  1.
        -11    1    4    4    0    0 -0.99535999453E+01 -0.61902038610E+02 -0.31019783276E+02  0.69951150744E+02  0.00000000000E+00 0.  1.
         11    1    4    4    0    0 -0.20759065429E+02 -0.11616876219E+02  0.47360111266E+02  0.52998780644E+02  0.00000000000E+00 0. -1.
</event>
<event>
 8    1  0.5951278E-006  0.3163271E+03  0.7561462E-02  0.1077352E+00
          1   -1    0    0  501    0  0.00000000000E+00  0.00000000000E+00  0.16478322674E+03  0.16478322674E+03  0.00000000000E+00 0. -1.
         -1   -1    0    0    0  501 -0.00000000000E+00 -0.00000000000E+00 -0.91024663161E+03  0.91024663161E+03  0.00000000000E+00 0.  1.
         23    2    1    2    0    0  0.85334755134E+02 -0.29775741557E+03 -0.66032899487E+03  0.74001707491E+03  0.12509752492E+03 0.  0.
         23    2    1    2    0    0 -0.85334755134E+02  0.29775741557E+03 -0.85134410005E+02  0.33501278344E+03  0.95100990204E+02 0.  0.
          5    1    3    3  502    0  0.61296375457E+02 -0.88527155888E+02 -0.12676317623E+03  0.16637511299E+03  0.41800000000E+01 0. -1.
         -5    1    3    3    0  502  0.24038379677E+02 -0.20923025968E+03 -0.53356581864E+03  0.57364196193E+03  0.41800000000E+01 0. -1.
        -11    1    4    4    0    0 -0.65655740409E+02  0.13303258223E+03  0.42522210877E+00  0.14835270472E+03  0.00000000000E+00 0. -1.
         11    1    4    4    0    0 -0.19679014726E+02  0.16472483334E+03 -0.85559632113E+02  0.18666007872E+03  0.00000000000E+00 0.  1.
</event>
<event>
 8    1  0.5951278E-006  0.1014144E+03  0.7561462E-02  0.1277349E+00
         -1   -1    0    0    0  501 -0.00000000000E+00  0.00000000000E+00  0.24972151299E+02  0.24972151299E+02  0.00000000000E+00 0.  1.
          1   -1    0    0  501    0  0.00000000000E+00 -0.00000000000E+00 -0.65353483199E+03  0.65353483199E+03  0.00000000000E+00 0. -1.
         23    2    1    2    0    0  0.17997231357E+02  0.47636426609E+02 -0.22848804993E+03  0.26541943280E+03  0.12509019493E+03 0.  0.
         23    2    1    2    0    0 -0.17997231357E+02 -0.47636426609E+02 -0.40007463076E+03  0.41308755049E+03  0.89378323535E+02 0.  0.
          5    1    3    3  502    0 -0.25887876600E+02  0.57500599407E+02 -0.20496725329E+03  0.21448904030E+03  0.41800000000E+01 0. -1.
         -5    1    3    3    0  502  0.43885107956E+02 -0.98641727985E+01 -0.23520796640E+02  0.50930392497E+02  0.41800000000E+01 0. -1.
        -11    1    4    4    0    0 -0.47831981837E+02 -0.42893707245E+02 -0.33800380661E+03  0.34405572498E+03  0.00000000000E+00 0. -1.
         11    1    4    4    0    0  0.29834750481E+02 -0.47427193641E+01 -0.62070824151E+02  0.69031825515E+02  0.00000000000E+00 0.  1.
</event>
<event>
 8    1  0.5951278E-006  0.8866822E+02  0.7561462E-02  0.1306109E+00
          2   -1    0    0  501    0  0.00000000000E+00  0.00000000000E+00  0.17947503619E+03  0.17947503619E+03  0.00000000000E+00 0. -1.
         -2   -1    0    0    0  501 -0.00000000000E+00 -0.00000000000E+00 -0.94835295238E+02  0.94835295238E+02  0.00000000000E+00 0.  1.
         23    2    1    2    0    0 -0.56675848969E+02  0.40714727120E+02  0.23994585063E+02  0.14523462964E+03  0.12509003427E+03 0.  0.
         23    2    1    2    0    0  0.56675848969E+02 -0.40714727120E+02  0.60645155893E+02  0.12907570180E+03  0.90071421662E+02 0.  0.
          5    1    3    3  502    0 -0.12475612750E+02  0.30721966916E+02  0.71821355963E+02  0.79216537018E+02  0.41800000000E+01 0. -1.
         -5    1    3    3    0  502 -0.44200236219E+02  0.99927602042E+01 -0.47826770900E+02  0.66018092619E+02  0.41800000000E+01 0. -1.
        -11    1    4    4    0    0 -0.23149928978E+01 -0.39332383013E+02 -0.62298811965E+01  0.39889935639E+02  0.00000000000E+00 0. -1.
         11    1    4    4    0    0  0.58990841866E+02 -0.13823441073E+01  0.66875037089E+02  0.89185766157E+02  0.00000000000E+00 0.  1.
</event>
<event>
 8    1  0.1074200E-005  0.2083628E+03  0.7561462E-02  0.1142869E+00
         -2   -1    0    0    0  501 -0.00000000000E+00  0.00000000000E+00  0.84517696289E+02  0.84517696289E+02  0.00000000000E+00 0.  1.
          2   -1    0    0  501    0  0.00000000000E+00 -0.00000000000E+00 -0.60615575369E+03  0.60615575369E+03  0.00000000000E+00 0. -1.
         23    2    1    2    0    0  0.79730924575E+02 -0.18030368097E+03 -0.22916128008E+03  0.32715241561E+03  0.12508946016E+03 0.  0.
         23    2    1    2    0    0 -0.79730924575E+02  0.18030368097E+03 -0.29247677732E+03  0.36352103437E+03  0.87968400339E+02 0.  0.
          5    1    3    3  502    0  0.34214036360E+02 -0.27212666224E+02  0.44409646714E+01  0.44139823904E+02  0.41800000000E+01 0.  1.
         -5    1    3    3    0  502  0.45516888215E+02 -0.15309101474E+03 -0.23360224475E+03  0.28301259170E+03  0.41800000000E+01 0.  1.
        -11    1    4    4    0    0  0.39751719075E+01  0.89323146790E+02 -0.15238303963E+03  0.17667772161E+03  0.00000000000E+00 0. -1.
         11    1    4    4    0    0 -0.83706096483E+02  0.90980534176E+02 -0.14009373769E+03  0.18684331277E+03  0.00000000000E+00 0.  1.
</event>
<event>
 8    1  0.5951278E-006  0.1047317E+03  0.7561462E-02  0.1270649E+00
         -2   -1    0    0    0  501 -0.00000000000E+00  0.00000000000E+00  0.53557268428E+02  0.53557268428E+02  0.00000000000E+00 0.  1.
          2   -1    0    0  501    0  0.00000000000E+00 -0.00000000000E+00 -0.33950387041E+03  0.33950387041E+03  0.00000000000E+00 0. -1.
         23    2    1    2    0    0 -0.54333070672E+02  0.46234015898E+02 -0.10376927499E+03  0.17749845812E+03  0.12509185987E+03 0.  0.
         23    2    1    2    0    0  0.54333070672E+02 -0.46234015898E+02 -0.18217732699E+03  0.21556268073E+03  0.90493226582E+02 0.  0.
          5    1    3    3  502    0  0.13654705749E+02 -0.10314595764E+01  0.22365327460E+02  0.26555511110E+02  0.41800000000E+01 0.  1.
         -5    1    3    3    0  502 -0.67987776421E+02  0.47265475474E+02 -0.12613460245E+03  0.15094294701E+03  0.41800000000E+01 0.  1.
        -11    1    4    4    0    0 -0.23755868469E+02 -0.65438836871E+01 -0.22167005624E+02  0.33144227835E+02  0.00000000000E+00 0.  1.
         11    1    4    4    0    0  0.78088939141E+02 -0.39690132211E+02 -0.16001032137E+03  0.18241845289E+03  0.00000000000E+00 0. -1.
</event>
<event>
 8    1  0.5951278E-006  0.9904462E+02  0.7561462E-02  0.1282318E+00
         -1   -1    0    0    0  501 -0.00000000000E+00  0.00000000000E+00  0.64607102269E+02  0.64607102269E+02  0.00000000000E+00 0.  1.
          1   -1    0    0  501    0  0.00000000000E+00 -0.00000000000E+00 -0.26164719611E+03  0.26164719611E+03  0.00000000000E+00 0. -1.
         23    2    1    2    0    0  0.57794233187E+02 -0.23832963296E+02 -0.62279544350E+02  0.15308231744E+03  0.12508905124E+03 0.  0.
         23    2    1    2    0    0 -0.57794233187E+02  0.23832963296E+02 -0.13476054949E+03  0.17317198094E+03  0.88994077072E+02 0.  0.
          5    1    3    3  502    0 -0.44225904738E+00 -0.62288606964E+02 -0.54253716075E+02  0.82710363671E+02  0.41800000000E+01 0.  1.
         -5    1    3    3    0  502  0.58236492234E+02  0.38455643668E+02 -0.80258282750E+01  0.70371953768E+02  0.41800000000E+01 0.  1.
        -11    1    4    4    0    0 -0.30869612595E+02  0.23538377928E+02 -0.32751578517E+01  0.38957860262E+02  0.00000000000E+00 0.  1.
         11    1    4    4    0    0 -0.26924620591E+02  0.29458536770E+00 -0.13148539164E+03  0.13421412067E+03  0.00000000000E+00 0. -1.
</event>
<event>
 8    1  0.5951278E-006  0.1051789E+03  0.7561462E-02  0.1269767E+00
         -3   -1    0    0    0  501 -0.00000000000E+00  0.00000000000E+00  0.36835907719E+03  0.36835907719E+03  0.00000000000E+00 0.  1.
          3   -1    0    0  501    0  0.00000000000E+00 -0.00000000000E+00 -0.37279515311E+02  0.37279515311E+02  0.00000000000E+00 0. -1.
         23    2    1    2    0    0 -0.11600899337E+02 -0.40738869293E+02  0.16348634876E+03  0.21016536104E+03  0.12508979341E+03 0.  0.
         23    2    1    2    0    0  0.11600899337E+02  0.40738869293E+02  0.16759321313E+03  0.19547323146E+03  0.91258220433E+02 0.  0.
          5    1    3    3  502    0  0.46973810233E+02 -0.51987941638E+02  0.69538582852E+02  0.98804715620E+02  0.41800000000E+01 0.  1.
         -5    1    3    3    0  502 -0.58574709570E+02  0.11249072345E+02  0.93947765903E+02  0.11136064542E+03  0.41800000000E+01 0.  1.
        -11    1    4    4    0    0  0.39976168479E+02  0.30220349994E+02  0.39374200725E+02  0.63731399504E+02  0.00000000000E+00 0. -1.
         11    1    4    4    0    0 -0.28375269142E+02  0.10518519298E+02  0.12821901240E+03  0.13174183196E+03  0.00000000000E+00 0.  1.
</event>
<event>
 8    1  0.5951278E-006  0.1594123E+03  0.7561462E-02  0.1189362E+00
         -1   -1    0    0    0  501 -0.00000000000E+00  0.00000000000E+00  0.25932801755E+03  0.25932801755E+03  0.00000000000E+00 0.  1.
          1   -1    0    0  501    0  0.00000000000E+00 -0.00000000000E+00 -0.10945674917E+03  0.10945674917E+03  0.00000000000E+00 0. -1.
         23    2    1    2    0    0 -0.64667492878E+02 -0.10024029349E+03  0.13222989296E+03  0.21762972366E+03  0.12509177012E+03 0.  0.
         23    2    1    2    0    0  0.64667492878E+02  0.10024029349E+03  0.17641375423E+02  0.15115504306E+03  0.91140703539E+02 0.  0.
          5    1    3    3  502    0 -0.10205434648E+03 -0.65680698348E+02  0.86807268747E+02  0.14927162516E+03  0.41800000000E+01 0.  1.
         -5    1    3    3    0  502  0.37386853607E+02 -0.34559595146E+02  0.45422624214E+02  0.68358098494E+02  0.41800000000E+01 0.  1.
        -11    1    4    4    0    0  0.36753589511E+02  0.11058749895E+03 -0.30409346352E-01  0.11653506850E+03  0.00000000000E+00 0.  1.
         11    1    4    4    0    0  0.27913903367E+02 -0.10347205453E+02  0.17671784769E+02  0.34619974564E+02  0.00000000000E+00 0. -1.
</event>
<event>
 8    1  0.5951278E-006  0.1051592E+03  0.7561462E-02  0.1269806E+00
          1   -1    0    0  501    0  0.00000000000E+00  0.00000000000E+00  0.33185624915E+03  0.33185624915E+03  0.00000000000E+00 0. -1.
         -1   -1    0    0    0  501 -0.00000000000E+00 -0.00000000000E+00 -0.49348431809E+02  0.49348431809E+02  0.00000000000E+00 0.  1.
         23    2    1    2    0    0  0.66845224023E+02  0.16216771937E+02  0.16859533994E+03  0.22091485717E+03  0.12509083821E+03 0.  0.
         23    2    1    2    0    0 -0.66845224023E+02 -0.16216771937E+02  0.11391247741E+03  0.16028982379E+03  0.89361666479E+02 0.  0.
          5    1    3    3  502    0 -0.13583906941E+02  0.19707078977E+02  0.12869290958E+03  0.13096651811E+03  0.41800000000E+01 0. -1.
         -5    1    3    3    0  502  0.80429130964E+02 -0.34903070400E+01  0.39902430354E+02  0.89948339057E+02  0.41800000000E+01 0. -1.
        -11    1    4    4    0    0  0.18027942432E+02 -0.92139104440E+01  0.30203819508E+01  0.20470113853E+02  0.00000000000E+00 0. -1.
         11    1    4    4    0    0 -0.84873166455E+02 -0.70028614928E+01  0.11089209546E+03  0.13981970994E+03  0.00000000000E+00 0.  1.
</event>
<event>
 8    1  0.5951278E-006  0.2096149E+03  0.7561462E-02  0.1141871E+00
          1   -1    0    0  501    0  0.00000000000E+00  0.00000000000E+00  0.10530018251E+03  0.10530018251E+03  0.00000000000E+00 0. -1.
         -1   -1    0    0    0  501 -0.00000000000E+00 -0.00000000000E+00 -0.46828880235E+03  0.46828880235E+03  0.00000000000E+00 0.  1.
         23    2    1    2    0    0 -0.94800058077E+02 -0.16544028490E+03 -0.22295962932E+03  0.31893010574E+03  0.12509147516E+03 0.  0.
         23    2    1    2    0    0  0.94800058077E+02  0.16544028490E+03 -0.14002899051E+03  0.25465887913E+03  0.94262864668E+02 0.  0.
          5    1    3    3  502    0 -0.84158341169E+02 -0.18261756745E+03 -0.22001441977E+03  0.29808659754E+03  0.41800000000E+01 0. -1.
         -5    1    3    3    0  502 -0.10641716909E+02  0.17177282549E+02 -0.29452095574E+01  0.20843508195E+02  0.41800000000E+01 0. -1.
        -11    1    4    4    0    0  0.54557117575E+02  0.45749670448E+02 -0.98882530843E+02  0.12184935917E+03  0.00000000000E+00 0.  1.
         11    1    4    4    0    0  0.40242940502E+02  0.11969061445E+03 -0.41146459671E+02  0.13280951996E+03  0.00000000000E+00 0. -1.
</event>
<event>
 7    1  0.5951278E-006  0.1219076E+03  0.7561462E-02  0.1239983E+00
          2   -1    0    0  501    0  0.00000000000E+00  0.00000000000E+00  0.11874229718E+03  0.11874229718E+03  0.00000000000E+00 0. -1.
         -2   -1    0    0    0  501 -0.00000000000E+00 -0.00000000000E+00 -0.15905611429E+03  0.15905611429E+03  0.00000000000E+00 0.  1.
         23    2    1    2    0    0  0.45879539731E+02  0.46943729566E+02 -0.75717303162E+01  0.10996326215E+03  0.87897337913E+02 0.  0.
          5    1    1    2  502    0  0.18104133212E+02  0.39188970349E+02  0.20511333467E+02  0.47976267435E+02  0.41800000000E+01 0. -1.
         -5    1    1    2    0  502 -0.63983672943E+02 -0.86132699915E+02 -0.53253420258E+02  0.11985888189E+03  0.41800000000E+01 0.  1.
        -11    1    3    3    0    0 -0.16030449986E+02  0.11725234282E+01 -0.26210842865E+02  0.30746681474E+02  0.00000000000E+00 0.  1.
         11    1    3    3    0    0  0.61909989717E+02  0.45771206138E+02  0.18639112549E+02  0.79216580681E+02  0.00000000000E+00 0. -1.
</event>
<event>
 8    1  0.5951278E-006  0.1243387E+03  0.7561462E-02  0.1236106E+00
         -1   -1    0    0    0  501 -0.00000000000E+00  0.00000000000E+00  0.22776378044E+02  0.22776378044E+02  0.00000000000E+00 0.  1.
          1   -1    0    0  501    0  0.00000000000E+00 -0.00000000000E+00 -0.99959947548E+03  0.99959947548E+03  0.00000000000E+00 0. -1.
         23    2    1    2    0    0  0.90792872003E+02 -0.58403244295E+02 -0.42549646755E+03  0.45393530009E+03  0.11556698588E+03 0.  0.
         23    2    1    2    0    0 -0.90792872003E+02  0.58403244295E+02 -0.55132662989E+03  0.56844055343E+03  0.86656363926E+02 0.  0.
          5    1    3    3  502    0  0.39194715502E+02 -0.58179005049E+01 -0.33410628021E+03  0.33647370264E+03  0.41800000000E+01 0. -1.
         -5    1    3    3    0  502  0.51598156501E+02 -0.52585343790E+02 -0.91390187337E+02  0.11746159746E+03  0.41800000000E+01 0.  1.
        -11    1    4    4    0    0 -0.24987739997E+02  0.64289472728E+02 -0.34381031703E+03  0.35066088682E+03  0.00000000000E+00 0.  1.
         11    1    4    4    0    0 -0.65805132006E+02 -0.58862284334E+01 -0.20751631286E+03  0.21777966660E+03  0.00000000000E+00 0. -1.
</event>
<event>
 8    1  0.5951278E-006  0.1315955E+03  0.7561462E-02  0.1225107E+00
          2   -1    0    0  501    0  0.00000000000E+00  0.00000000000E+00  0.85007898667E+03  0.85007898667E+03  0.00000000000E+00 0. -1.
         -2   -1    0    0    0  501 -0.00000000000E+00 -0.00000000000E+00 -0.27492817391E+02  0.27492817391E+02  0.00000000000E+00 0.  1.
         23    2    1    2    0    0  0.85635156905E+02  0.10699168381E+02  0.25992516294E+03  0.30109129330E+03  0.12508806606E+03 0.  0.
         23    2    1    2    0    0 -0.85635156905E+02 -0.10699168381E+02  0.56266100634E+03  0.57648051076E+03  0.91074249541E+02 0.  0.
          5    1    3    3  502    0 -0.19049868353E+00 -0.39804308384E+02  0.28554025774E+02  0.49165272739E+02  0.41800000000E+01 0.  1.
         -5    1    3    3    0  502  0.85825655589E+02  0.50503476765E+02  0.23137113716E+03  0.25192602056E+03  0.41800000000E+01 0.  1.
        -11    1    4    4    0    0 -0.37470516687E+02  0.39142314072E+02  0.19742734010E+03  0.20472839322E+03  0.00000000000E+00 0. -1.
         11    1    4    4    0    0 -0.48164640218E+02 -0.49841482454E+02  0.36523366624E+03  0.37175211754E+03  0.00000000000E+00 0.  1.
</event>
<event>
 8    1  0.5951278E-006  0.1484807E+03  0.7561462E-02  0.1202352E+00
          2   -1    0    0  501    0  0.00000000000E+00  0.00000000000E+00  0.23349894070E+03  0.23349894070E+03  0.00000000000E+00 0. -1.
         -2   -1    0    0    0  501 -0.00000000000E+00 -0.00000000000E+00 -0.12614208875E+03  0.12614208875E+03  0.00000000000E+00 0.  1.
         23    2    1    2    0    0  0.10876172036E+03 -0.11355700335E+02 -0.21462152812E+02  0.16752879210E+03  0.12508880219E+03 0.  0.
         23    2    1    2    0    0 -0.10876172036E+03  0.11355700335E+02  0.12881900476E+03  0.19211223735E+03  0.91404113730E+02 0.  0.
          5    1    3    3  502    0 -0.52538155295E+01 -0.37263731681E+02 -0.32652006338E+02  0.49998141909E+02  0.41800000000E+01 0. -1.
         -5    1    3    3    0  502  0.11401553589E+03  0.25908031347E+02  0.11189853527E+02  0.11753065019E+03  0.41800000000E+01 0. -1.
        -11    1    4    4    0    0 -0.10531292001E+02 -0.32765730878E+02  0.37731481636E+02  0.51070205968E+02  0.00000000000E+00 0.  1.
         11    1    4    4    0    0 -0.98230428355E+02  0.44121431213E+02  0.91087523127E+02  0.14104203138E+03  0.00000000000E+00 0. -1.
</event>
<event>
 8    1  0.5951278E-006  0.1207196E+03  0.7561462E-02  0.1241915E+00
         -1   -1    0    0    0  501 -0.00000000000E+00  0.00000000000E+00  0.70336682110E+02  0.70336682110E+02  0.00000000000E+00 0.  1.
          1   -1    0    0  501    0  0.00000000000E+00 -0.00000000000E+00 -0.23110758183E+03  0.23110758183E+03  0.00000000000E+00 0. -1.
         23    2    1    2    0    0  0.64307300232E+02 -0.90195423206E+01 -0.79501995497E+02  0.16182503555E+03  0.12509993540E+03 0.  0.
         23    2    1    2    0    0 -0.64307300232E+02  0.90195423206E+01 -0.81268904227E+02  0.13961922839E+03  0.93124181260E+02 0.  0.
          5    1    3    3  502    0  0.74147098098E+02 -0.54575133531E+02 -0.39521403087E+02  0.10027786923E+03  0.41800000000E+01 0.  1.
         -5    1    3    3    0  502 -0.98397978666E+01  0.45555591210E+02 -0.39980592410E+02  0.61547166320E+02  0.41800000000E+01 0.  1.
        -11    1    4    4    0    0 -0.14012932021E+02 -0.33699230678E+02 -0.21020390503E+01  0.36557064712E+02  0.00000000000E+00 0. -1.
         11    1    4    4    0    0 -0.50294368211E+02  0.42718772999E+02 -0.79166865177E+02  0.10306216368E+03  0.00000000000E+00 0.  1.
</event>
<event>
 8    1  0.5951278E-006  0.7605731E+02  0.7561462E-02  0.1340628E+00
          1   -1    0    0  501    0  0.00000000000E+00  0.00000000000E+00  0.14721488179E+03  0.14721488179E+03  0.00000000000E+00 0. -1.
         -1   -1    0    0    0  501 -0.00000000000E+00 -0.00000000000E+00 -0.80573372688E+02  0.80573372688E+02  0.00000000000E+00 0.  1.
         23    2    1    2    0    0 -0.36104256199E+01 -0.18294546600E+01  0.48894409921E+02  0.13436829073E+03  0.12509113540E+03 0.  0.
         23    2    1    2    0    0  0.36104256199E+01  0.18294546600E+01  0.17747099178E+02  0.93419963744E+02  0.91629405865E+02 0.  0.
          5    1    3    3  502    0 -0.47467479920E+02  0.12019793194E+02  0.68410576901E+02  0.84232514568E+02  0.41800000000E+01 0.  1.
         -5    1    3    3    0  502  0.43857054300E+02 -0.13849247854E+02 -0.19516166980E+02  0.50135776165E+02  0.41800000000E+01 0.  1.
        -11    1    4    4    0    0  0.29262910922E+02  0.81366123682E+01 -0.27534622204E+02  0.40996070987E+02  0.00000000000E+00 0.  1.
         11    1    4    4    0    0 -0.25652485302E+02 -0.63071577082E+01  0.45281721382E+02  0.52423892757E+02  0.00000000000E+00 0. -1.
</event>
<event>
 8    1  0.5951278E-006  0.1041681E+03  0.7561462E-02  0.1271767E+00
          1   -1    0    0  501    0  0.00000000000E+00  0.00000000000E+00  0.89464337692E+02  0.89464337692E+02  0.00000000000E+00 0. -1.
         -1   -1    0    0    0  501 -0.00000000000E+00 -0.00000000000E+00 -0.18417923683E+03  0.18417923683E+03  0.00000000000E+00 0.  1.
         23    2    1    2    0    0  0.83697785597E+01 -0.70231295664E+02 -0.59312808430E+02  0.15546240276E+03  0.12509221136E+03 0.  0.
         23    2    1    2    0    0 -0.83697785597E+01  0.70231295664E+02 -0.35402090710E+02  0.11818117176E+03  0.87812261383E+02 0.  0.
          5    1    3    3  502    0  0.46814601308E+02 -0.42808255566E+02 -0.81299028850E+02  0.10320444822E+03  0.41800000000E+01 0.  1.
         -5    1    3    3    0  502 -0.38444822749E+02 -0.27423040098E+02  0.21986220420E+02  0.52257954541E+02  0.41800000000E+01 0.  1.
        -11    1    4    4    0    0 -0.36136767389E+02  0.23852624931E+02 -0.45917110958E+02  0.63112556217E+02  0.00000000000E+00 0.  1.
         11    1    4    4    0    0  0.27766988829E+02  0.46378670732E+02  0.10515020248E+02  0.55068615548E+02  0.00000000000E+00 0. -1.
</event>
<event>
 8    1  0.5951278E-006  0.1015509E+03  0.7561462E-02  0.1277068E+00
         -1   -1    0    0    0  501 -0.00000000000E+00  0.00000000000E+00  0.51856017038E+02  0.51856017038E+02  0.00000000000E+00 0.  1.
          1   -1    0    0  501    0  0.00000000000E+00 -0.00000000000E+00 -0.25111222206E+03  0.25111222206E+03  0.00000000000E+00 0. -1.
         23    2    1    2    0    0 -0.37091475865E+01  0.26255572418E+02 -0.75181001743E+02  0.14833389496E+03  0.12509056124E+03 0.  0.
         23    2    1    2    0    0  0.37091475865E+01 -0.26255572418E+02 -0.12407520328E+03  0.15463434414E+03  0.88396897340E+02 0.  0.
          5    1    3    3  502    0 -0.44408241223E+02 -0.23144807731E+02 -0.99285193763E+00  0.50261637144E+02  0.41800000000E+01 0. -1.
         -5    1    3    3    0  502  0.40699093636E+02  0.49400380150E+02 -0.74188149806E+02  0.98072257817E+02  0.41800000000E+01 0. -1.
        -11    1    4    4    0    0 -0.39055887343E+02 -0.24089321990E+02 -0.85336507408E+02  0.96891574797E+02  0.00000000000E+00 0. -1.
         11    1    4    4    0    0  0.42765034929E+02 -0.21662504286E+01 -0.38738695876E+02  0.57742769345E+02  0.00000000000E+00 0.  1.
</event>
<event>
 8    1  0.5951278E-006  0.1065920E+03  0.7561462E-02  0.1267014E+00
         -1   -1    0    0    0  501 -0.00000000000E+00  0.00000000000E+00  0.11415504803E+03  0.11415504803E+03  0.00000000000E+00 0.  1.
          1   -1    0    0  501    0  0.00000000000E+00 -0.00000000000E+00 -0.15191566058E+03  0.15191566058E+03  0.00000000000E+00 0. -1.
         23    2    1    2    0    0 -0.53177591117E+02 -0.45347748165E+02  0.23659375019E+01  0.14329832377E+03  0.12507812549E+03 0.  0.
         23    2    1    2    0    0  0.53177591117E+02  0.45347748165E+02 -0.40126550055E+02  0.12277238484E+03  0.92620969549E+02 0.  0.
          5    1    3    3  502    0 -0.36380111507E+01 -0.60255912634E+02 -0.43105960954E+02  0.74294053613E+02  0.41800000000E+01 0. -1.
         -5    1    3    3    0  502 -0.49539579966E+02  0.14908164469E+02  0.45471898456E+02  0.69004270160E+02  0.41800000000E+01 0. -1.
        -11    1    4    4    0    0  0.70422325334E+02  0.44904109739E+02 -0.50375777019E+01  0.83672338117E+02  0.00000000000E+00 0. -1.
         11    1    4    4    0    0 -0.17244734216E+02  0.44363842609E+00 -0.35088972353E+02  0.39100046727E+02  0.00000000000E+00 0.  1.
</event>
<event>
 8    1  0.5951278E-006  0.1833268E+03  0.7561462E-02  0.1164622E+00
         -1   -1    0    0    0  501 -0.00000000000E+00  0.00000000000E+00  0.45918863424E+02  0.45918863424E+02  0.00000000000E+00 0.  1.
          1   -1    0    0  501    0  0.00000000000E+00 -0.00000000000E+00 -0.98073099190E+03  0.98073099190E+03  0.00000000000E+00 0. -1.
         23    2    1    2    0    0 -0.34226157836E+02  0.15845133156E+03 -0.29299821338E+03  0.35806477239E+03  0.12682339621E+03 0.  0.
         23    2    1    2    0    0  0.34226157836E+02 -0.15845133156E+03 -0.64181391509E+03  0.66858508293E+03  0.93822476848E+02 0.  0.
          5    1    3    3  502    0 -0.32020272032E+02  0.17616540326E+03 -0.22467987446E+03  0.28732919364E+03  0.41800000000E+01 0. -1.
         -5    1    3    3    0  502 -0.22058858043E+01 -0.17714071703E+02 -0.68318338918E+02  0.70735578749E+02  0.41800000000E+01 0.  1.
        -11    1    4    4    0    0 -0.12560707003E+02 -0.36509126958E+02 -0.53678289656E+02  0.66121452585E+02  0.00000000000E+00 0. -1.
         11    1    4    4    0    0  0.46786864839E+02 -0.12194220460E+03 -0.58813562544E+03  0.60246363035E+03  0.00000000000E+00 0.  1.
</event>
<event>
 8    1  0.5951278E-006  0.1340037E+03  0.7561462E-02  0.1221633E+00
         -2   -1    0    0    0  501 -0.00000000000E+00  0.00000000000E+00  0.33658482503E+02  0.33658482503E+02  0.00000000000E+00 0.  1.
          2   -1    0    0  501    0  0.00000000000E+00 -0.00000000000E+00 -0.61824441584E+03  0.61824441584E+03  0.00000000000E+00 0. -1.
         23    2    1    2    0    0  0.65104012002E+02  0.55679168640E+02 -0.23149367497E+03  0.27670367642E+03  0.12504759411E+03 0.  0.
         23    2    1    2    0    0 -0.65104012002E+02 -0.55679168640E+02 -0.35309225837E+03  0.37519922193E+03  0.93603477573E+02 0.  0.
          5    1    3    3  502    0  0.12142545013E+02  0.82440866204E+02 -0.87485059711E+02  0.12089270405E+03  0.41800000000E+01 0. -1.
         -5    1    3    3    0  502  0.52961466989E+02 -0.26761697564E+02 -0.14400861525E+03  0.15581097237E+03  0.41800000000E+01 0. -1.
        -11    1    4    4    0    0 -0.88482496675E+02 -0.46631227897E+02 -0.25393771015E+03  0.27292486928E+03  0.00000000000E+00 0.  1.
         11    1    4    4    0    0  0.23378484673E+02 -0.90479407434E+01 -0.99154548221E+02  0.10227435265E+03  0.00000000000E+00 0. -1.
</event>
<event>
 8    1  0.5951278E-006  0.9673324E+02  0.7561462E-02  0.1287319E+00
         -2   -1    0    0    0  501 -0.00000000000E+00  0.00000000000E+00  0.17680945115E+03  0.17680945115E+03  0.00000000000E+00 0.  1.
          2   -1    0    0  501    0  0.00000000000E+00 -0.00000000000E+00 -0.79443065800E+02  0.79443065800E+02  0.00000000000E+00 0. -1.
         23    2    1    2    0    0  0.44492230783E+02  0.98478657708E+00  0.75963888447E+02  0.15295846103E+03  0.12508097397E+03 0.  0.
         23    2    1    2    0    0 -0.44492230783E+02 -0.98478657708E+00  0.21402496901E+02  0.10329405592E+03  0.90725226423E+02 0.  0.
          5    1    3    3  502    0  0.13776789072E+01  0.42836985375E+02 -0.13481343126E+02  0.45123434352E+02  0.41800000000E+01 0.  1.
         -5    1    3    3    0  502  0.43114551876E+02 -0.41852198798E+02  0.89445231573E+02  0.10783502668E+03  0.41800000000E+01 0.  1.
        -11    1    4    4    0    0 -0.42599220970E+02 -0.35592922911E+02  0.35483097427E+02  0.65883229973E+02  0.00000000000E+00 0.  1.
         11    1    4    4    0    0 -0.18930098133E+01  0.34608136334E+02 -0.14080600526E+02  0.37410825944E+02  0.00000000000E+00 0. -1.
</event>
<event>
 8    1  0.5951278E-006  0.2309881E+03  0.7561462E-02  0.1125946E+00
         -2   -1    0    0    0  501 -0.00000000000E+00  0.00000000000E+00  0.39139971460E+03  0.39139971460E+03  0.00000000000E+00 0. -1.
          2   -1    0    0  501    0  0.00000000000E+00 -0.00000000000E+00 -0.20568610309E+03  0.20568610309E+03  0.00000000000E+00 0.  1.
         23    2    1    2    0    0 -0.17440785400E+03  0.11009488183E+03  0.25818265649E+03  0.35333404877E+03  0.12509070056E+03 0.  0.
         23    2    1    2    0    0  0.17440785400E+03 -0.11009488183E+03 -0.72469044979E+02  0.24375176892E+03  0.10781548975E+03 0.  0.
          5    1    3    3  502    0 -0.10454282750E+03  0.14001277196E+01  0.15922198957E+03  0.19052631709E+03  0.41800000000E+01 0. -1.
         -5    1    3    3    0  502 -0.69865026493E+02  0.10869475411E+03  0.98960666919E+02  0.16280773168E+03  0.41800000000E+01 0. -1.
        -11    1    4    4    0    0  0.14913478956E+03 -0.41265707738E+02 -0.25901606171E+02  0.15689148254E+03  0.00000000000E+00 0. -1.
         11    1    4    4    0    0  0.25273064438E+02 -0.68829174089E+02 -0.46567438808E+02  0.86860286374E+02  0.00000000000E+00 0.  1.
</event>
<event>
 8    1  0.5951278E-006  0.1133136E+03  0.7561462E-02  0.1254554E+00
          4   -1    0    0  501    0  0.00000000000E+00  0.00000000000E+00  0.71148110885E+02  0.71148110885E+02  0.00000000000E+00 0. -1.
         -4   -1    0    0    0  501 -0.00000000000E+00 -0.00000000000E+00 -0.25826633576E+03  0.25826633576E+03  0.00000000000E+00 0.  1.
         23    2    1    2    0    0 -0.17626117948E+02  0.78464339874E+02 -0.11477871568E+03  0.18786271897E+03  0.12510361681E+03 0.  0.
         23    2    1    2    0    0  0.17626117948E+02 -0.78464339874E+02 -0.72339509193E+02  0.14155172768E+03  0.91304733459E+02 0.  0.
          5    1    3    3  502    0 -0.17227142309E+02 -0.19604990258E+02  0.10731380798E+02  0.28526566723E+02  0.41800000000E+01 0.  1.
         -5    1    3    3    0  502 -0.39897563836E+00  0.98069330132E+02 -0.12551009648E+03  0.15933615224E+03  0.41800000000E+01 0.  1.
        -11    1    4    4    0    0 -0.11061070786E+02 -0.71719486270E+02 -0.10861818904E+02  0.73375821002E+02  0.00000000000E+00 0.  1.
         11    1    4    4    0    0  0.28687188734E+02 -0.67448536037E+01 -0.61477690289E+02  0.68175906675E+02  0.00000000000E+00 0. -1.
</event>
<event>
 8    1  0.5951278E-006  0.2137459E+03  0.7561462E-02  0.1138634E+00
          4   -1    0    0  501    0  0.00000000000E+00  0.00000000000E+00  0.49580951351E+03  0.49580951351E+03  0.00000000000E+00 0. -1.
         -4   -1    0    0    0  501 -0.00000000000E+00 -0.00000000000E+00 -0.94851231106E+02  0.94851231106E+02  0.00000000000E+00 0.  1.
         23    2    1    2    0    0 -0.12908134417E+01  0.18622348551E+03  0.24555803196E+03  0.33207650515E+03  0.12367378646E+03 0.  0.
         23    2    1    2    0    0  0.12908134417E+01 -0.18622348551E+03  0.15540025044E+03  0.25858423946E+03  0.89642168115E+02 0.  0.
          5    1    3    3  502    0 -0.56443564201E+02  0.13158712998E+03  0.18231519977E+03  0.23185632013E+03  0.41800000000E+01 0.  1.
         -5    1    3    3    0  502  0.55152750760E+02  0.54636355529E+02  0.63242832182E+02  0.10022018501E+03  0.41800000000E+01 0.  1.
        -11    1    4    4    0    0 -0.28723625323E+02 -0.16995090412E+03  0.13359513258E+03  0.21807341863E+03  0.00000000000E+00 0. -1.
         11    1    4    4    0    0  0.30014438764E+02 -0.16272581390E+02  0.21805117862E+02  0.40510820831E+02  0.00000000000E+00 0.  1.
</event>
<event>
 8    1  0.5951278E-006  0.1177571E+03  0.7561462E-02  0.1246844E+00
         -1   -1    0    0    0  501 -0.00000000000E+00  0.00000000000E+00  0.12766186031E+03  0.12766186031E+03  0.00000000000E+00 0.  1.
          1   -1    0    0  501    0  0.00000000000E+00 -0.00000000000E+00 -0.15398878709E+03  0.15398878709E+03  0.00000000000E+00 0. -1.
         23    2    1    2    0    0  0.83156197408E+02 -0.24537064612E+02  0.65377685046E+01  0.15234105852E+03  0.12509210602E+03 0.  0.
         23    2    1    2    0    0 -0.83156197408E+02  0.24537064612E+02 -0.32864695281E+02  0.12930958888E+03  0.90132462920E+02 0.  0.
          5    1    3    3  502    0  0.72895640061E+02 -0.68845066740E+02 -0.15646317253E+02  0.10156622075E+03  0.41800000000E+01 0.  1.
         -5    1    3    3    0  502  0.10260557347E+02  0.44308002128E+02  0.22184085757E+02  0.50774837770E+02  0.41800000000E+01 0.  1.
        -11    1    4    4    0    0 -0.23141563095E+02  0.17600207161E+02 -0.57210570168E+02  0.64174360718E+02  0.00000000000E+00 0. -1.
         11    1    4    4    0    0 -0.60014634314E+02  0.69368574506E+01  0.24345874888E+02  0.65135228157E+02  0.00000000000E+00 0.  1.
</event>
<event>
 8    1  0.5951278E-006  0.1591241E+03  0.7561462E-02  0.1189689E+00
          1   -1    0    0  501    0  0.00000000000E+00  0.00000000000E+00  0.71598183786E+03  0.71598183786E+03  0.00000000000E+00 0. -1.
         -1   -1    0    0    0  501 -0.00000000000E+00 -0.00000000000E+00 -0.62953678564E+02  0.62953678564E+02  0.00000000000E+00 0.  1.
         23    2    1    2    0    0  0.11916698476E+03  0.99656765026E+02  0.15453437452E+03  0.25235203457E+03  0.12517362092E+03 0.  0.
         23    2    1    2    0    0 -0.11916698476E+03 -0.99656765026E+02  0.49849378477E+03  0.52658348185E+03  0.68277879481E+02 0.  0.
          5    1    3    3  502    0  0.11703694055E+02  0.35360284696E+02  0.11501572521E+03  0.12096865558E+03  0.41800000000E+01 0. -1.
         -5    1    3    3    0  502  0.10746329070E+03  0.64296480330E+02  0.39518649308E+02  0.13138337899E+03  0.41800000000E+01 0. -1.
        -11    1    4    4    0    0 -0.50015543727E+02 -0.45823715065E+02  0.11781310619E+03  0.13594592846E+03  0.00000000000E+00 0.  1.
         11    1    4    4    0    0 -0.69151441028E+02 -0.53833049960E+02  0.38068067859E+03  0.39063755338E+03  0.00000000000E+00 0. -1.
</event>
<event>
 8    1  0.5951278E-006  0.9631961E+02  0.7561462E-02  0.1288231E+00
         -1   -1    0    0    0  501 -0.00000000000E+00  0.00000000000E+00  0.36278159526E+03  0.36278159526E+03  0.00000000000E+00 0.  1.
          1   -1    0    0  501    0  0.00000000000E+00 -0.00000000000E+00 -0.73932332012E+02  0.73932332012E+02  0.00000000000E+00 0. -1.
         23    2    1    2    0    0  0.18899570267E+02 -0.86515577402E+01  0.31927217540E+03  0.33937684928E+03  0.11318074321E+03 0.  0.
         23    2    1    2    0    0 -0.18899570267E+02  0.86515577402E+01 -0.30422912152E+02  0.97337077996E+02  0.90093895250E+02 0.  0.
          5    1    3    3  502    0 -0.39224341933E+02 -0.17149789083E+02  0.62058043045E+02  0.75507200797E+02  0.41800000000E+01 0. -1.
         -5    1    3    3    0  502  0.58123912201E+02  0.84982313432E+01  0.25721413236E+03  0.26386964848E+03  0.41800000000E+01 0.  1.
        -11    1    4    4    0    0 -0.29432095386E+02  0.44510775663E+02 -0.85765276754E+01  0.54046407984E+02  0.00000000000E+00 0.  1.
         11    1    4    4    0    0  0.10532525119E+02 -0.35859217923E+02 -0.21846384476E+02  0.43290670012E+02  0.00000000000E+00 0. -1.
</event>
<event>
 8    1  0.5951278E-006  0.1049410E+03  0.7561462E-02  0.1270236E+00
          4   -1    0    0  501    0  0.00000000000E+00  0.00000000000E+00  0.80347991528E+02  0.80347991528E+02  0.00000000000E+00 0.  1.
         -4   -1    0    0    0  501 -0.00000000000E+00 -0.00000000000E+00 -0.17860406020E+03  0.17860406020E+03  0.00000000000E+00 0. -1.
         23    2    1    2    0    0 -0.47473751146E+01 -0.25842858683E+02 -0.10252763505E+03  0.16385701935E+03  0.12508723326E+03 0.  0.
         23    2    1    2    0    0  0.47473751146E+01  0.25842858683E+02  0.42715663741E+01  0.95095032383E+02  0.91293088398E+02 0.  0.
          5    1    3    3  502    0 -0.46802500654E+02  0.21393796052E+02 -0.82612323718E+02  0.97418873977E+02  0.41800000000E+01 0. -1.
         -5    1    3    3    0  502  0.42055125539E+02 -0.47236654735E+02 -0.19915311330E+02  0.66438145369E+02  0.41800000000E+01 0. -1.
        -11    1    4    4    0    0 -0.22495113599E+02 -0.27165419944E+02  0.39921941767E+01  0.35495461553E+02  0.00000000000E+00 0.  1.
         11    1    4    4    0    0  0.27242488713E+02  0.53008278627E+02  0.27937219739E+00  0.59599570830E+02  0.00000000000E+00 0. -1.
</event>
<event>
 8    1  0.5951278E-006  0.8590429E+02  0.7561462E-02  0.1313085E+00
         -3   -1    0    0    0  501 -0.00000000000E+00  0.00000000000E+00  0.12316185229E+03  0.12316185229E+03  0.00000000000E+00 0.  1.
          3   -1    0    0  501    0  0.00000000000E+00 -0.00000000000E+00 -0.14885699277E+03  0.14885699277E+03  0.00000000000E+00 0. -1.
         23    2    1    2    0    0 -0.62730219805E+02  0.66402741306E+01  0.36832058687E+02  0.14485802722E+03  0.12509226109E+03 0.  0.
         23    2    1    2    0    0  0.62730219805E+02 -0.66402741306E+01 -0.62527199166E+02  0.12716081783E+03  0.91000270545E+02 0.  0.
          5    1    3    3  502    0  0.13163460040E+02 -0.18882129446E+02 -0.31688702786E+02  0.39388548804E+02  0.41800000000E+01 0.  1.
         -5    1    3    3    0  502 -0.75893679845E+02  0.25522403576E+02  0.68520761472E+02  0.10546947842E+03  0.41800000000E+01 0.  1.
        -11    1    4    4    0    0  0.49674967558E+02  0.60335017311E+01  0.11152461664E+02  0.51267757374E+02  0.00000000000E+00 0. -1.
         11    1    4    4    0    0  0.13055252248E+02 -0.12673775862E+02 -0.73679660830E+02  0.75893060459E+02  0.00000000000E+00 0.  1.
</event>
<event>
 8    1  0.5951278E-006  0.1299857E+03  0.7561462E-02  0.1227477E+00
         -2   -1    0    0    0  501 -0.00000000000E+00  0.00000000000E+00  0.10457730954E+03  0.10457730954E+03  0.00000000000E+00 0.  1.
          2   -1    0    0  501    0  0.00000000000E+00 -0.00000000000E+00 -0.40927970204E+03  0.40927970204E+03  0.00000000000E+00 0. -1.
         23    2    1    2    0    0 -0.24546294577E+02  0.95949937339E+02  0.21711000120E+02  0.16102281791E+03  0.12509224320E+03 0.  0.
         23    2    1    2    0    0  0.24546294577E+02 -0.95949937339E+02 -0.32641339262E+03  0.35283419367E+03  0.90207285112E+02 0.  0.
          5    1    3    3  502    0  0.28600342005E+02  0.20770294200E+01 -0.29661978207E+02  0.41468047520E+02  0.41800000000E+01 0.  1.
         -5    1    3    3    0  502 -0.53146636581E+02  0.93872907919E+02  0.51372978327E+02  0.11955477039E+03  0.41800000000E+01 0.  1.
        -11    1    4    4    0    0 -0.26164556601E+02 -0.36278908063E+02 -0.19318837899E+03  0.19829899891E+03  0.00000000000E+00 0. -1.
         11    1    4    4    0    0  0.50710851178E+02 -0.59671029276E+02 -0.13322501363E+03  0.15453519476E+03  0.00000000000E+00 0.  1.
</event>
<event>
 8    1  0.5951278E-006  0.7612952E+02  0.7561462E-02  0.1340409E+00
         -3   -1    0    0    0  501 -0.00000000000E+00  0.00000000000E+00  0.13938749939E+03  0.13938749939E+03  0.00000000000E+00 0.  1.
          3   -1    0    0  501    0  0.00000000000E+00 -0.00000000000E+00 -0.10609320378E+03  0.10609320378E+03  0.00000000000E+00 0. -1.
         23    2    1    2    0    0  0.12918964490E+02 -0.27157150855E+02  0.64126898804E+02  0.14374741720E+03  0.12508657129E+03 0.  0.
         23    2    1    2    0    0 -0.12918964490E+02  0.27157150855E+02 -0.30832603193E+02  0.10173328597E+03  0.92166162823E+02 0.  0.
          5    1    3    3  502    0 -0.46667843267E+02 -0.91848761328E+01 -0.79743244895E+01  0.48407765863E+02  0.41800000000E+01 0.  1.
         -5    1    3    3    0  502  0.59586807758E+02 -0.17972274722E+02  0.72101223293E+02  0.95339651341E+02  0.41800000000E+01 0.  1.
        -11    1    4    4    0    0 -0.22006286288E+02  0.13787703902E+02  0.29482984285E+02  0.39288977811E+02  0.00000000000E+00 0.  1.
         11    1    4    4    0    0  0.90873217977E+01  0.13369446953E+02 -0.60315587478E+02  0.62444308164E+02  0.00000000000E+00 0. -1.
</event>
<event>
 8    1  0.5951278E-006  0.1079452E+03  0.7561462E-02  0.1264423E+00
          1   -1    0    0  501    0  0.00000000000E+00  0.00000000000E+00  0.61730934725E+02  0.61730934725E+02  0.00000000000E+00 0. -1.
         -1   -1    0    0    0  501 -0.00000000000E+00 -0.00000000000E+00 -0.25290208358E+03  0.25290208358E+03  0.00000000000E+00 0.  1.
         23    2    1    2    0    0 -0.45946428179E+02 -0.12921637954E+02 -0.15679129194E+03  0.20618046727E+03  0.12509529515E+03 0.  0.
         23    2    1    2    0    0  0.45946428179E+02  0.12921637954E+02 -0.34379856916E+02  0.10845255103E+03  0.91114972827E+02 0.  0.
          5    1    3    3  502    0  0.12312092429E+02 -0.54612115386E+02 -0.99944061399E+02  0.11463140310E+03  0.41800000000E+01 0.  1.
         -5    1    3    3    0  502 -0.58258520608E+02  0.41690477432E+02 -0.56847230538E+02  0.91549064177E+02  0.41800000000E+01 0.  1.
        -11    1    4    4    0    0  0.38240668322E+02 -0.27333464189E+02 -0.46085124101E+02  0.65827848527E+02  0.00000000000E+00 0.  1.
         11    1    4    4    0    0  0.77057598578E+01  0.40255102143E+02  0.11705267184E+02  0.42624702502E+02  0.00000000000E+00 0. -1.
</event>
<event>
 8    1  0.5951278E-006  0.1051945E+03  0.7561462E-02  0.1269737E+00
         -3   -1    0    0    0  501 -0.00000000000E+00  0.00000000000E+00  0.79459741335E+03  0.79459741335E+03  0.00000000000E+00 0.  1.
          3   -1    0    0  501    0  0.00000000000E+00 -0.00000000000E+00 -0.32237607175E+02  0.32237607175E+02  0.00000000000E+00 0. -1.
         23    2    1    2    0    0 -0.28731119067E+02  0.82886512640E+02  0.60926372068E+03  0.62812944414E+03  0.12509462851E+03 0.  0.
         23    2    1    2    0    0  0.28731119067E+02 -0.82886512640E+02  0.15309608550E+03  0.19870557639E+03  0.91377478142E+02 0.  0.
          5    1    3    3  502    0 -0.78243339800E+01  0.25662325567E+02  0.15562736713E+02  0.31296107261E+02  0.41800000000E+01 0.  1.
         -5    1    3    3    0  502 -0.20906785087E+02  0.57224187073E+02  0.59370098397E+03  0.59683333688E+03  0.41800000000E+01 0.  1.
        -11    1    4    4    0    0  0.19960551344E+02 -0.10051618978E+03  0.10493228777E+03  0.14667212767E+03  0.00000000000E+00 0. -1.
         11    1    4    4    0    0  0.87705677227E+01  0.17629677137E+02  0.48163797728E+02  0.52033448720E+02  0.00000000000E+00 0.  1.
</event>
<event>
 8    1  0.5951278E-006  0.1679315E+03  0.7561462E-02  0.1180022E+00
         -2   -1    0    0    0  501 -0.00000000000E+00  0.00000000000E+00  0.11483480968E+03  0.11483480968E+03  0.00000000000E+00 0.  1.
          2   -1    0    0  501    0  0.00000000000E+00 -0.00000000000E+00 -0.29102426943E+03  0.29102426943E+03  0.00000000000E+00 0. -1.
         23    2    1    2    0    0 -0.80867099627E+02 -0.11506183071E+03 -0.53989929144E+02  0.19580821137E+03  0.12508889040E+03 0.  0.
         23    2    1    2    0    0  0.80867099627E+02  0.11506183071E+03 -0.12219953061E+03  0.21005086774E+03  0.97004788907E+02 0.  0.
          5    1    3    3  502    0  0.13429717301E+02 -0.88225021434E+02 -0.17027403110E+02  0.90947328550E+02  0.41800000000E+01 0. -1.
         -5    1    3    3    0  502 -0.94296816928E+02 -0.26836809275E+02 -0.36962526034E+02  0.10486088282E+03  0.41800000000E+01 0. -1.
        -11    1    4    4    0    0  0.33036167824E+02  0.86712354613E+02 -0.21854612127E+02  0.95331237788E+02  0.00000000000E+00 0.  1.
         11    1    4    4    0    0  0.47830931804E+02  0.28349476096E+02 -0.10034491848E+03  0.11471962996E+03  0.00000000000E+00 0. -1.
</event>
<event>
 8    1  0.5951278E-006  0.1616472E+03  0.7561462E-02  0.1186850E+00
         -1   -1    0    0    0  501 -0.00000000000E+00  0.00000000000E+00  0.57598400802E+02  0.57598400802E+02  0.00000000000E+00 0.  1.
          1   -1    0    0  501    0  0.00000000000E+00 -0.00000000000E+00 -0.56590931991E+03  0.56590931991E+03  0.00000000000E+00 0. -1.
         23    2    1    2    0    0  0.60990480208E+02  0.12392771674E+03 -0.20686089395E+03  0.27841975528E+03  0.12509281768E+03 0.  0.
         23    2    1    2    0    0 -0.60990480208E+02 -0.12392771674E+03 -0.30145002516E+03  0.34508796543E+03  0.95580691367E+02 0.  0.
          5    1    3    3  502    0  0.71347540114E+02  0.12961268555E+02 -0.61302087979E+02  0.95046748253E+02  0.41800000000E+01 0. -1.
         -5    1    3    3    0  502 -0.10357059906E+02  0.11096644818E+03 -0.14555880597E+03  0.18337300703E+03  0.41800000000E+01 0. -1.
        -11    1    4    4    0    0 -0.26934938214E+02 -0.73514748854E+02 -0.25984557728E+03  0.27138465916E+03  0.00000000000E+00 0. -1.
         11    1    4    4    0    0 -0.34055541994E+02 -0.50412967884E+02 -0.41604447881E+02  0.73703306269E+02  0.00000000000E+00 0.  1.
</event>
<event>
 8    1  0.5951278E-006  0.1052055E+03  0.7561462E-02  0.1269715E+00
         -1   -1    0    0    0  501 -0.00000000000E+00  0.00000000000E+00  0.67432286948E+03  0.67432286948E+03  0.00000000000E+00 0.  1.
          1   -1    0    0  501    0  0.00000000000E+00 -0.00000000000E+00 -0.38283887576E+02  0.38283887576E+02  0.00000000000E+00 0. -1.
         23    2    1    2    0    0  0.30992421700E+01 -0.71412343982E+02  0.54556896998E+03  0.56427286786E+03  0.12509612395E+03 0.  0.
         23    2    1    2    0    0 -0.30992421700E+01  0.71412343982E+02  0.90470011928E+02  0.14833388920E+03  0.93320905753E+02 0.  0.
          5    1    3    3  502    0  0.46140451842E+02  0.32504902257E+01  0.97808039695E+02  0.10827461388E+03  0.41800000000E+01 0. -1.
         -5    1    3    3    0  502 -0.43041209672E+02 -0.74662834208E+02  0.44776093028E+03  0.45599825398E+03  0.41800000000E+01 0. -1.
        -11    1    4    4    0    0 -0.16841480656E+02  0.39190794297E+02  0.10271942192E+03  0.11122424856E+03  0.00000000000E+00 0.  1.
         11    1    4    4    0    0  0.13742238485E+02  0.32221549685E+02 -0.12249409994E+02  0.37109640633E+02  0.00000000000E+00 0. -1.
</event>
<event>
 8    1  0.5951278E-006  0.8426523E+02  0.7561462E-02  0.1317365E+00
          1   -1    0    0  501    0  0.00000000000E+00  0.00000000000E+00  0.85536849435E+02  0.85536849435E+02  0.00000000000E+00 0. -1.
         -1   -1    0    0    0  501 -0.00000000000E+00 -0.00000000000E+00 -0.24640473537E+03  0.24640473537E+03  0.00000000000E+00 0.  1.
         23    2    1    2    0    0  0.32218385122E+02  0.60699659513E+01 -0.19210412711E+03  0.23158430729E+03  0.12510965952E+03 0.  0.
         23    2    1    2    0    0 -0.32218385122E+02 -0.60699659513E+01  0.31236241174E+02  0.10035727751E+03  0.89560100268E+02 0.  0.
          5    1    3    3  502    0  0.51618961008E+02 -0.20493527843E+02 -0.24697968089E+02  0.60925888149E+02  0.41800000000E+01 0.  1.
         -5    1    3    3    0  502 -0.19400575887E+02  0.26563493794E+02 -0.16740615902E+03  0.17065841914E+03  0.41800000000E+01 0.  1.
        -11    1    4    4    0    0 -0.55366060469E+02 -0.98113751773E+01 -0.57951298625E+01  0.56526518244E+02  0.00000000000E+00 0.  1.
         11    1    4    4    0    0  0.23147675347E+02  0.37414092260E+01  0.37031371037E+02  0.43830759266E+02  0.00000000000E+00 0. -1.
</event>
<event>
 8    1  0.5951278E-006  0.8221885E+02  0.7561462E-02  0.1322870E+00
         -2   -1    0    0    0  501 -0.00000000000E+00  0.00000000000E+00  0.81040308105E+02  0.81040308105E+02  0.00000000000E+00 0. -1.
          2   -1    0    0  501    0  0.00000000000E+00 -0.00000000000E+00 -0.18213702100E+03  0.18213702100E+03  0.00000000000E+00 0.  1.
         23    2    1    2    0    0  0.35784999192E+02 -0.20188601288E+02 -0.25653897647E+02  0.13413439165E+03  0.12508303950E+03 0.  0.
         23    2    1    2    0    0 -0.35784999192E+02  0.20188601288E+02 -0.75442815245E+02  0.12904293745E+03  0.96292863417E+02 0.  0.
          5    1    3    3  502    0  0.59898597375E+02  0.11725882492E+02 -0.56633917365E+02  0.83367927189E+02  0.41800000000E+01 0. -1.
         -5    1    3    3    0  502 -0.24113598183E+02 -0.31914483780E+02  0.30980019717E+02  0.50766464462E+02  0.41800000000E+01 0. -1.
        -11    1    4    4    0    0 -0.36314847253E+02  0.33686363523E+02 -0.93904104381E+02  0.10616741514E+03  0.00000000000E+00 0.  1.
         11    1    4    4    0    0  0.52984806091E+00 -0.13497762235E+02  0.18461289137E+02  0.22875522309E+02  0.00000000000E+00 0. -1.
</event>
<event>
 8    1  0.5951278E-006  0.1276640E+03  0.7561462E-02  0.1230964E+00
          1   -1    0    0  501    0  0.00000000000E+00  0.00000000000E+00  0.21971189803E+02  0.21971189803E+02  0.00000000000E+00 0. -1.
         -1   -1    0    0    0  501 -0.00000000000E+00 -0.00000000000E+00 -0.76594859793E+03  0.76594859793E+03  0.00000000000E+00 0.  1.
         23    2    1    2    0    0 -0.19751330445E+01  0.68420741094E+02 -0.48166882245E+03  0.50233147214E+03  0.12508698740E+03 0.  0.
         23    2    1    2    0    0  0.19751330445E+01 -0.68420741094E+02 -0.26230858568E+03  0.28558831560E+03  0.89830912960E+02 0.  0.
          5    1    3    3  502    0 -0.51924879545E+02 -0.64102363260E+01 -0.17182725960E+03  0.17966458690E+03  0.41800000000E+01 0.  1.
         -5    1    3    3    0  502  0.49949746501E+02  0.74830977420E+02 -0.30984156285E+03  0.32266688524E+03  0.41800000000E+01 0.  1.
        -11    1    4    4    0    0  0.23096353975E+02 -0.83621405977E+02 -0.20803890077E+03  0.22540223011E+03  0.00000000000E+00 0.  1.
         11    1    4    4    0    0 -0.21121220931E+02  0.15200664883E+02 -0.54269684914E+02  0.60186085494E+02  0.00000000000E+00 0. -1.
</event>
<event>
 8    1  0.5951278E-006  0.9745930E+02  0.7561462E-02  0.1285731E+00
          2   -1    0    0  501    0  0.00000000000E+00  0.00000000000E+00  0.15928724842E+03  0.15928724842E+03  0.00000000000E+00 0. -1.
         -2   -1    0    0    0  501 -0.00000000000E+00 -0.00000000000E+00 -0.12120591336E+03  0.12120591336E+03  0.00000000000E+00 0.  1.
         23    2    1    2    0    0  0.36077409557E+02 -0.21123773201E+02 -0.55992389582E+02  0.14328974720E+03  0.12509600588E+03 0.  0.
         23    2    1    2    0    0 -0.36077409557E+02  0.21123773201E+02  0.94073724648E+02  0.13720341457E+03  0.90703462044E+02 0.  0.
          5    1    3    3  502    0  0.11727182985E+02 -0.55250951272E+02 -0.77497479025E+02  0.95987114200E+02  0.41800000000E+01 0. -1.
         -5    1    3    3    0  502  0.24350226571E+02  0.34127178071E+02  0.21505089442E+02  0.47302633004E+02  0.41800000000E+01 0. -1.
        -11    1    4    4    0    0 -0.20614727110E+02 -0.33525304422E+02  0.20857630933E+02  0.44541596048E+02  0.00000000000E+00 0.  1.
         11    1    4    4    0    0 -0.15462682446E+02  0.54649077623E+02  0.73216093715E+02  0.92661818525E+02  0.00000000000E+00 0. -1.
</event>
<event>
 8    1  0.5951278E-006  0.1295147E+03  0.7561462E-02  0.1228178E+00
          2   -1    0    0  501    0  0.00000000000E+00  0.00000000000E+00  0.28422760858E+03  0.28422760858E+03  0.00000000000E+00 0. -1.
         -2   -1    0    0    0  501 -0.00000000000E+00 -0.00000000000E+00 -0.68446912272E+02  0.68446912272E+02  0.00000000000E+00 0.  1.
         23    2    1    2    0    0 -0.53639680326E+02 -0.65337924529E+02  0.89276434065E+02  0.17539826535E+03  0.12509200662E+03 0.  0.
         23    2    1    2    0    0  0.53639680326E+02  0.65337924529E+02  0.12650426225E+03  0.17727625551E+03  0.90979573052E+02 0.  0.
          5    1    3    3  502    0  0.26160096952E+01 -0.83704704860E+02  0.78972873328E+02  0.11518467018E+03  0.41800000000E+01 0. -1.
         -5    1    3    3    0  502 -0.56255690021E+02  0.18366780331E+02  0.10303560738E+02  0.60213595170E+02  0.41800000000E+01 0. -1.
        -11    1    4    4    0    0 -0.12687987768E+02 -0.95025197788E+01  0.46752960977E+02  0.49367218636E+02  0.00000000000E+00 0. -1.
         11    1    4    4    0    0  0.66327668094E+02  0.74840444308E+02  0.79751301268E+02  0.12790903687E+03  0.00000000000E+00 0.  1.
</event>
<event>
 8    1  0.5951278E-006  0.1214660E+03  0.7561462E-02  0.1240698E+00
         -2   -1    0    0    0  501 -0.00000000000E+00  0.00000000000E+00  0.87799239972E+02  0.87799239972E+02  0.00000000000E+00 0.  1.
          2   -1    0    0  501    0  0.00000000000E+00 -0.00000000000E+00 -0.54571589824E+03  0.54571589824E+03  0.00000000000E+00 0. -1.
         23    2    1    2    0    0  0.49957895082E+02  0.35509357653E+02  0.22301857769E+02  0.14107114681E+03  0.12508792843E+03 0.  0.
         23    2    1    2    0    0 -0.49957895082E+02 -0.35509357653E+02 -0.48021851604E+03  0.49244399141E+03  0.90191772160E+02 0.  0.
          5    1    3    3  502    0 -0.38024525004E+02 -0.32609333899E+01 -0.97965922542E+01  0.39622516429E+02  0.41800000000E+01 0.  1.
         -5    1    3    3    0  502  0.87982420086E+02  0.38770291043E+02  0.32098450023E+02  0.10144863038E+03  0.41800000000E+01 0.  1.
        -11    1    4    4    0    0 -0.11819003216E+02 -0.61191852100E+02 -0.24745592754E+03  0.25518340008E+03  0.00000000000E+00 0.  1.
         11    1    4    4    0    0 -0.38138891866E+02  0.25682494447E+02 -0.23276258850E+03  0.23726059133E+03  0.00000000000E+00 0. -1.
</event>
<event>
 8    1  0.5951278E-006  0.1405348E+03  0.7561462E-02  0.1212611E+00
         -1   -1    0    0    0  501 -0.00000000000E+00  0.00000000000E+00  0.26259472322E+02  0.26259472322E+02  0.00000000000E+00 0.  1.
          1   -1    0    0  501    0  0.00000000000E+00 -0.00000000000E+00 -0.83515755446E+03  0.83515755446E+03  0.00000000000E+00 0. -1.
         23    2    1    2    0    0  0.96486761356E+02  0.22500380625E+02 -0.38262122899E+03  0.41456086737E+03  0.12508295503E+03 0.  0.
         23    2    1    2    0    0 -0.96486761356E+02 -0.22500380625E+02 -0.42627685315E+03  0.44685615941E+03  0.90291247778E+02 0.  0.
          5    1    3    3  502    0  0.71069457435E+02 -0.38477607021E+02 -0.12767704105E+03  0.15116313450E+03  0.41800000000E+01 0.  1.
         -5    1    3    3    0  502  0.25417303921E+02  0.60977987645E+02 -0.25494418794E+03  0.26339773287E+03  0.41800000000E+01 0.  1.
        -11    1    4    4    0    0  0.94428391528E+01  0.18172621286E+02 -0.59258251326E+02  0.62697302381E+02  0.00000000000E+00 0. -1.
         11    1    4    4    0    0 -0.10592960051E+03 -0.40673001910E+02 -0.36701860182E+03  0.38415885703E+03  0.00000000000E+00 0.  1.
</event>
<event>
 8    1  0.5951278E-006  0.1061980E+03  0.7561462E-02  0.1267777E+00
         -2   -1    0    0    0  501 -0.00000000000E+00  0.00000000000E+00  0.14340324224E+02  0.14340324224E+02  0.00000000000E+00 0.  1.
          2   -1    0    0  501    0  0.00000000000E+00 -0.00000000000E+00 -0.99417004071E+03  0.99417004071E+03  0.00000000000E+00 0. -1.
         23    2    1    2    0    0  0.48925701904E+02 -0.13625882547E+02 -0.56608061219E+03  0.58195749576E+03  0.12509148010E+03 0.  0.
         23    2    1    2    0    0 -0.48925701904E+02  0.13625882547E+02 -0.41374910430E+03  0.42655286918E+03  0.90441361723E+02 0.  0.
          5    1    3    3  502    0 -0.20077676635E+02 -0.36124080928E+02 -0.37865164960E+03  0.38092336036E+03  0.41800000000E+01 0. -1.
         -5    1    3    3    0  502  0.69003378539E+02  0.22498198380E+02 -0.18742896259E+03  0.20103413541E+03  0.41800000000E+01 0. -1.
        -11    1    4    4    0    0 -0.53094821486E+02  0.43102461338E+02 -0.34374276381E+03  0.35047962839E+03  0.00000000000E+00 0.  1.
         11    1    4    4    0    0  0.41691195817E+01 -0.29476578791E+02 -0.70006340490E+02  0.76073240789E+02  0.00000000000E+00 0. -1.
</event>
<event>
 8    1  0.5951278E-006  0.1130534E+03  0.7561462E-02  0.1255018E+00
         -2   -1    0    0    0  501 -0.00000000000E+00  0.00000000000E+00  0.31021258445E+02  0.31021258445E+02  0.00000000000E+00 0.  1.
          2   -1    0    0  501    0  0.00000000000E+00 -0.00000000000E+00 -0.56791074182E+03  0.56791074182E+03  0.00000000000E+00 0. -1.
         23    2    1    2    0    0 -0.22081700304E+02  0.65700345401E+02 -0.22890776931E+03  0.26990768839E+03  0.12508899442E+03 0.  0.
         23    2    1    2    0    0  0.22081700304E+02 -0.65700345401E+02 -0.30798171407E+03  0.32902431188E+03  0.92736857490E+02 0.  0.
          5    1    3    3  502    0 -0.24523931013E+02 -0.22152899896E+02 -0.11284918388E+02  0.35170953202E+02  0.41800000000E+01 0. -1.
         -5    1    3    3    0  502  0.24422307094E+01  0.87853245297E+02 -0.21762285092E+03  0.23473673518E+03  0.41800000000E+01 0. -1.
        -11    1    4    4    0    0  0.35496107849E+02  0.22306145176E+01 -0.18031173434E+03  0.18378593759E+03  0.00000000000E+00 0. -1.
         11    1    4    4    0    0 -0.13414407545E+02 -0.67930959919E+02 -0.12766997972E+03  0.14523837429E+03  0.00000000000E+00 0.  1.
</event>
<event>
 8    1  0.5951278E-006  0.9734302E+02  0.7561462E-02  0.1285985E+00
         -2   -1    0    0    0  501 -0.00000000000E+00  0.00000000000E+00  0.21310302207E+02  0.21310302207E+02  0.00000000000E+00 0.  1.
          2   -1    0    0  501    0  0.00000000000E+00 -0.00000000000E+00 -0.55553567768E+03  0.55553567768E+03  0.00000000000E+00 0. -1.
         23    2    1    2    0    0  0.79952582393E+01 -0.93253730648E+01 -0.27715955156E+03  0.30432438314E+03  0.12508008001E+03 0.  0.
         23    2    1    2    0    0 -0.79952582393E+01  0.93253730648E+01 -0.25706582391E+03  0.27252159675E+03  0.89634235269E+02 0.  0.
          5    1    3    3  502    0 -0.47650687053E+01  0.55199392132E+02 -0.88622944328E+02  0.10460008333E+03  0.41800000000E+01 0. -1.
         -5    1    3    3    0  502  0.12760326945E+02 -0.64524765197E+02 -0.18853660723E+03  0.19972429981E+03  0.41800000000E+01 0. -1.
        -11    1    4    4    0    0 -0.39161424980E+02 -0.39112359239E+01 -0.54955817764E+02  0.67594799201E+02  0.00000000000E+00 0.  1.
         11    1    4    4    0    0  0.31166166741E+02  0.13236608989E+02 -0.20211000615E+03  0.20492679754E+03  0.00000000000E+00 0. -1.
</event>
<event>
 8    1  0.5951278E-006  0.1062125E+03  0.7561462E-02  0.1267749E+00
         -2   -1    0    0    0  501 -0.00000000000E+00  0.00000000000E+00  0.22652001340E+02  0.22652001340E+02  0.00000000000E+00 0.  1.
          2   -1    0    0  501    0  0.00000000000E+00 -0.00000000000E+00 -0.81909056848E+03  0.81909056848E+03  0.00000000000E+00 0. -1.
         23    2    1    2    0    0 -0.66812151500E+02 -0.46858720291E+02 -0.45852144629E+03  0.48223634149E+03  0.12510143519E+03 0.  0.
         23    2    1    2    0    0  0.66812151500E+02  0.46858720291E+02 -0.33791712086E+03  0.35950622834E+03  0.91635933960E+02 0.  0.
          5    1    3    3  502    0 -0.76730832528E+02 -0.36195853767E+02 -0.14281571099E+03  0.16616726572E+03  0.41800000000E+01 0.  1.
         -5    1    3    3    0  502  0.99186810280E+01 -0.10662866524E+02 -0.31570573530E+03  0.31606907577E+03  0.41800000000E+01 0.  1.
        -11    1    4    4    0    0 -0.14085972738E+02  0.24731980407E+02 -0.34573542552E+02  0.44781863823E+02  0.00000000000E+00 0.  1.
         11    1    4    4    0    0  0.80898124238E+02  0.22126739884E+02 -0.30334357830E+03  0.31472436452E+03  0.00000000000E+00 0. -1.
</event>
<event>
 8    1  0.5951278E-006  0.1520063E+03  0.7561462E-02  0.1198029E+00
         -1   -1    0    0    0  501 -0.00000000000E+00  0.00000000000E+00  0.11462411232E+03  0.11462411232E+03  0.00000000000E+00 0.  1.
          1   -1    0    0  501    0  0.00000000000E+00 -0.00000000000E+00 -0.29269366930E+03  0.29269366930E+03  0.00000000000E+00 0. -1.
         23    2    1    2    0    0 -0.12203810790E+03 -0.47606901127E+02 -0.19299951602E+02  0.18215666355E+03  0.12509534416E+03 0.  0.
         23    2    1    2    0    0  0.12203810790E+03  0.47606901127E+02 -0.15876960538E+03  0.22516111807E+03  0.91268968906E+02 0.  0.
          5    1    3    3  502    0 -0.87621551684E+02 -0.83293008383E+02  0.14757282144E+02  0.12186267411E+03  0.41800000000E+01 0. -1.
         -5    1    3    3    0  502 -0.34416556215E+02  0.35686107255E+02 -0.34057233746E+02  0.60293989445E+02  0.41800000000E+01 0. -1.
        -11    1    4    4    0    0  0.99571455133E+02  0.27896682918E+02 -0.16491120445E+03  0.19464944117E+03  0.00000000000E+00 0. -1.
         11    1    4    4    0    0  0.22466652765E+02  0.19710218210E+02  0.61415990683E+01  0.30511676903E+02  0.00000000000E+00 0.  1.
</event>
<event>
 8    1  0.5951278E-006  0.8417066E+02  0.7561462E-02  0.1317616E+00
          2   -1    0    0  501    0  0.00000000000E+00  0.00000000000E+00  0.20419139514E+03  0.20419139514E+03  0.00000000000E+00 0. -1.
         -2   -1    0    0    0  501 -0.00000000000E+00 -0.00000000000E+00 -0.71128024227E+02  0.71128024227E+02  0.00000000000E+00 0.  1.
         23    2    1    2    0    0 -0.36238233051E+02  0.23421792813E+02  0.33471719525E+02  0.13332950114E+03  0.12163309563E+03 0.  0.
         23    2    1    2    0    0  0.36238233051E+02 -0.23421792813E+02  0.99591651392E+02  0.14198991823E+03  0.91546982139E+02 0.  0.
          5    1    3    3  502    0 -0.21200942195E+01 -0.18947429987E+02  0.66667042866E+02  0.69465580736E+02  0.41800000000E+01 0. -1.
         -5    1    3    3    0  502 -0.34118138831E+02  0.42369222799E+02 -0.33195323340E+02  0.63863920406E+02  0.41800000000E+01 0.  1.
        -11    1    4    4    0    0  0.21974339611E+01 -0.50634954291E+02  0.78827125848E+02  0.93714689785E+02  0.00000000000E+00 0. -1.
         11    1    4    4    0    0  0.34040799090E+02  0.27213161479E+02  0.20764525545E+02  0.48275228445E+02  0.00000000000E+00 0.  1.
</event>
<event>
 8    1  0.5951278E-006  0.2112447E+03  0.7561462E-02  0.1140584E+00
          4   -1    0    0  501    0  0.00000000000E+00  0.00000000000E+00  0.18123131923E+03  0.18123131923E+03  0.00000000000E+00 0. -1.
         -4   -1    0    0    0  501 -0.00000000000E+00 -0.00000000000E+00 -0.34560378082E+03  0.34560378082E+03  0.00000000000E+00 0.  1.
         23    2    1    2    0    0 -0.25330473553E+02  0.18640513128E+03 -0.21525712781E+03  0.31204500683E+03  0.12509176375E+03 0.  0.
         23    2    1    2    0    0  0.25330473553E+02 -0.18640513128E+03  0.50884666217E+02  0.21479009321E+03  0.90316272225E+02 0.  0.
          5    1    3    3  502    0  0.24645638729E+02  0.14946763858E+03 -0.19412564572E+03  0.24627265625E+03  0.41800000000E+01 0. -1.
         -5    1    3    3    0  502 -0.49976112282E+02  0.36937492695E+02 -0.21131482094E+02  0.65772350581E+02  0.41800000000E+01 0. -1.
        -11    1    4    4    0    0  0.18717415324E+02 -0.19606359193E+03  0.48623134947E+02  0.20286814182E+03  0.00000000000E+00 0.  1.
         11    1    4    4    0    0  0.66130582289E+01  0.96584606471E+01  0.22615312705E+01  0.11921951388E+02  0.00000000000E+00 0. -1.
</event>
<event>
 8    1  0.1060062E-005  0.3879697E+03  0.7561462E-02  0.1048027E+00
          2   -1    0    0  501    0  0.00000000000E+00  0.00000000000E+00  0.10167391467E+04  0.10167391467E+04  0.00000000000E+00 0. -1.
         -2   -1    0    0    0  501 -0.00000000000E+00 -0.00000000000E+00 -0.15094737956E+03  0.15094737956E+03  0.00000000000E+00 0.  1.
         23    2    1    2    0    0  0.37205553697E+03 -0.27106413886E+02  0.36589542996E+03  0.53729583570E+03  0.12508904481E+03 0.  0.
         23    2    1    2    0    0 -0.37205553697E+03  0.27106413886E+02  0.49989633720E+03  0.63039069057E+03  0.91301667801E+02 0.  0.
          5    1    3    3  502    0  0.26421828552E+03 -0.73758131005E+02  0.23383019075E+03  0.36047967321E+03  0.41800000000E+01 0.  1.
         -5    1    3    3    0  502  0.10783725146E+03  0.46651717119E+02  0.13206523921E+03  0.17681616249E+03  0.41800000000E+01 0.  1.
        -11    1    4    4    0    0 -0.34163331300E+03  0.50888288706E+02  0.44703417447E+03  0.56492697902E+03  0.00000000000E+00 0.  1.
         11    1    4    4    0    0 -0.30422223972E+02 -0.23781874819E+02  0.52862162730E+02  0.65463711549E+02  0.00000000000E+00 0. -1.
</event>
<event>
 8    1  0.5951278E-006  0.6127801E+02  0.7561462E-02  0.1392545E+00
         -2   -1    0    0    0  501 -0.00000000000E+00  0.00000000000E+00  0.75487424985E+02  0.75487424985E+02  0.00000000000E+00 0.  1.
          2   -1    0    0  501    0  0.00000000000E+00 -0.00000000000E+00 -0.18693096956E+03  0.18693096956E+03  0.00000000000E+00 0. -1.
         23    2    1    2    0    0  0.46725982051E+02  0.41164934275E+01 -0.70304643233E+02  0.15096462060E+03  0.12508921175E+03 0.  0.
         23    2    1    2    0    0 -0.46725982051E+02 -0.41164934275E+01 -0.41138901345E+02  0.11145377395E+03  0.92354055712E+02 0.  0.
          5    1    3    3  502    0 -0.57063495540E+00 -0.18659577594E+02 -0.92030573211E+02  0.93997895007E+02  0.41800000000E+01 0. -1.
         -5    1    3    3    0  502  0.47296617006E+02  0.22776071021E+02  0.21725929978E+02  0.56966725593E+02  0.41800000000E+01 0. -1.
        -11    1    4    4    0    0 -0.17975477263E+02  0.78603716492E+01  0.28826434389E+02  0.34869277951E+02  0.00000000000E+00 0.  1.
         11    1    4    4    0    0 -0.28750504788E+02 -0.11976865077E+02 -0.69965335734E+02  0.76584495996E+02  0.00000000000E+00 0. -1.
</event>
<event>
 8    1  0.5951278E-006  0.1053775E+03  0.7561462E-02  0.1269378E+00
         -2   -1    0    0    0  501 -0.00000000000E+00  0.00000000000E+00  0.30993691635E+03  0.30993691635E+03  0.00000000000E+00 0.  1.
          2   -1    0    0  501    0  0.00000000000E+00 -0.00000000000E+00 -0.82924400921E+02  0.82924400921E+02  0.00000000000E+00 0. -1.
         23    2    1    2    0    0  0.52242867117E+02 -0.73909838159E+02  0.21339339504E+03  0.26339388545E+03  0.12509043331E+03 0.  0.
         23    2    1    2    0    0 -0.52242867117E+02  0.73909838159E+02  0.13619120384E+02  0.12946743182E+03  0.91566118841E+02 0.  0.
          5    1    3    3  502    0  0.34294211097E+02 -0.34824366822E+02  0.21462957661E+03  0.22016393209E+03  0.41800000000E+01 0. -1.
         -5    1    3    3    0  502  0.17948656020E+02 -0.39085471337E+02 -0.12361815667E+01  0.43229953359E+02  0.41800000000E+01 0. -1.
        -11    1    4    4    0    0 -0.13462421001E+02 -0.15798682431E+02 -0.17236595208E+02  0.26980277244E+02  0.00000000000E+00 0. -1.
         11    1    4    4    0    0 -0.38780446115E+02  0.89708520591E+02  0.30855715593E+02  0.10248715457E+03  0.00000000000E+00 0.  1.
</event>
<event>
 7    1  0.5951278E-006  0.2351785E+03  0.7561462E-02  0.1123047E+00
         -2   -1    0    0    0  501 -0.00000000000E+00  0.00000000000E+00  0.50823545862E+02  0.50823545862E+02  0.00000000000E+00 0.  1.
          2   -1    0    0  501    0  0.00000000000E+00 -0.00000000000E+00 -0.13740531973E+04  0.13740531973E+04  0.00000000000E+00 0. -1.
         23    2    1    2    0    0  0.58418315831E+02  0.19480492491E+02 -0.26326686262E+03  0.28529587231E+03  0.91060993810E+02 0.  0.
          5    1    1    2  502    0  0.12243556016E+03 -0.10742505480E+03 -0.76762640321E+03  0.78472821798E+03  0.41800000000E+01 0. -1.
         -5    1    1    2    0  502 -0.18085387599E+03  0.87944562308E+02 -0.29233638563E+03  0.35485265289E+03  0.41800000000E+01 0.  1.
        -11    1    3    3    0    0  0.81170844764E+02  0.10639917371E+02 -0.22923978010E+03  0.24341896118E+03  0.00000000000E+00 0. -1.
         11    1    3    3    0    0 -0.22752528933E+02  0.88405751201E+01 -0.34027082513E+02  0.41876911129E+02  0.00000000000E+00 0.  1.
</event>
<event>
 8    1  0.5951278E-006  0.1181969E+03  0.7561462E-02  0.1246102E+00
         -1   -1    0    0    0  501 -0.00000000000E+00  0.00000000000E+00  0.85232981056E+02  0.85232981056E+02  0.00000000000E+00 0.  1.
          1   -1    0    0  501    0  0.00000000000E+00 -0.00000000000E+00 -0.17818065397E+03  0.17818065397E+03  0.00000000000E+00 0. -1.
         23    2    1    2    0    0 -0.13729094673E+02 -0.52052085971E+02 -0.33172538797E+02  0.14016442285E+03  0.12509092856E+03 0.  0.
         23    2    1    2    0    0  0.13729094673E+02  0.52052085971E+02 -0.59775134120E+02  0.12324921218E+03  0.93377695137E+02 0.  0.
          5    1    3    3  502    0  0.53819374077E+02 -0.62927840304E+01 -0.10149394292E+02  0.55286587536E+02  0.41800000000E+01 0.  1.
         -5    1    3    3    0  502 -0.67548468750E+02 -0.45759301940E+02 -0.23023144506E+02  0.84877835313E+02  0.41800000000E+01 0.  1.
        -11    1    4    4    0    0  0.32623648503E+00 -0.23559055926E+02 -0.35699380453E+02  0.42773605308E+02  0.00000000000E+00 0. -1.
         11    1    4    4    0    0  0.13402858188E+02  0.75611141897E+02 -0.24075753667E+02  0.80475606871E+02  0.00000000000E+00 0.  1.
</event>
<event>
 8    1  0.5951278E-006  0.1153261E+03  0.7561462E-02  0.1251013E+00
          4   -1    0    0  501    0  0.00000000000E+00  0.00000000000E+00  0.20849852428E+03  0.20849852428E+03  0.00000000000E+00 0. -1.
         -4   -1    0    0    0  501 -0.00000000000E+00 -0.00000000000E+00 -0.72476501323E+02  0.72476501323E+02  0.00000000000E+00 0.  1.
         23    2    1    2    0    0 -0.24491639579E+02  0.66250694132E+02  0.67785340850E+02  0.15884710882E+03  0.12509419117E+03 0.  0.
         23    2    1    2    0    0  0.24491639579E+02 -0.66250694132E+02  0.68236682106E+02  0.12212791678E+03  0.72594685688E+02 0.  0.
          5    1    3    3  502    0 -0.38060721576E+02 -0.20961470254E+02 -0.55699764125E+01  0.44005667809E+02  0.41800000000E+01 0.  1.
         -5    1    3    3    0  502  0.13569081996E+02  0.87212164385E+02  0.73355317262E+02  0.11484144101E+03  0.41800000000E+01 0.  1.
        -11    1    4    4    0    0  0.32744543891E+02 -0.88604161961E+00  0.10146037260E+02  0.34291869247E+02  0.00000000000E+00 0.  1.
         11    1    4    4    0    0 -0.82529043118E+01 -0.65364652512E+02  0.58090644846E+02  0.87836047533E+02  0.00000000000E+00 0. -1.
</event>
<event>
 8    1  0.5951278E-006  0.1024607E+03  0.7561462E-02  0.1275205E+00
         -2   -1    0    0    0  501 -0.00000000000E+00  0.00000000000E+00  0.80512019340E+02  0.80512019340E+02  0.00000000000E+00 0.  1.
          2   -1    0    0  501    0  0.00000000000E+00 -0.00000000000E+00 -0.16944635784E+03  0.16944635784E+03  0.00000000000E+00 0. -1.
         23    2    1    2    0    0 -0.21724973501E+02  0.30733947684E+02 -0.30918038634E+02  0.13423744462E+03  0.12508883408E+03 0.  0.
         23    2    1    2    0    0  0.21724973501E+02 -0.30733947684E+02 -0.58016299870E+02  0.11572093257E+03  0.92784121324E+02 0.  0.
          5    1    3    3  502    0 -0.48928074074E+02  0.52375892249E+02 -0.56096061172E+02  0.91112189089E+02  0.41800000000E+01 0.  1.
         -5    1    3    3    0  502  0.27203100574E+02 -0.21641944566E+02  0.25178022538E+02  0.43125255528E+02  0.41800000000E+01 0.  1.
        -11    1    4    4    0    0 -0.35390337820E+02 -0.17518819282E+02 -0.12242471432E+02  0.41343235805E+02  0.00000000000E+00 0. -1.
         11    1    4    4    0    0  0.57115311320E+02 -0.13215128401E+02 -0.45773828439E+02  0.74377696763E+02  0.00000000000E+00 0.  1.
</event>
<event>
 8    1  0.5951278E-006  0.1261915E+03  0.7561462E-02  0.1233219E+00
         -2   -1    0    0    0  501 -0.00000000000E+00  0.00000000000E+00  0.41021990702E+02  0.41021990702E+02  0.00000000000E+00 0. -1.
          2   -1    0    0  501    0  0.00000000000E+00 -0.00000000000E+00 -0.59599683715E+03  0.59599683715E+03  0.00000000000E+00 0.  1.
         23    2    1    2    0    0  0.93621839426E+02 -0.26067536874E+01 -0.17137828448E+03  0.23192837803E+03  0.12509361361E+03 0.  0.
         23    2    1    2    0    0 -0.93621839426E+02  0.26067536874E+01 -0.38359656197E+03  0.40509044981E+03  0.90443939509E+02 0.  0.
          5    1    3    3  502    0  0.89686078792E+02  0.26167921006E+02 -0.17869572950E+03  0.20168785031E+03  0.41800000000E+01 0.  1.
         -5    1    3    3    0  502  0.39357606338E+01 -0.28774674693E+02  0.73174450280E+01  0.30240527727E+02  0.41800000000E+01 0.  1.
        -11    1    4    4    0    0 -0.56333628862E+02 -0.42813388666E+02 -0.18881967274E+03  0.20164159492E+03  0.00000000000E+00 0.  1.
         11    1    4    4    0    0 -0.37288210565E+02  0.45420142353E+02 -0.19477688923E+03  0.20344885489E+03  0.00000000000E+00 0. -1.
</event>
<event>
 8    1  0.5951278E-006  0.1677979E+03  0.7561462E-02  0.1180164E+00
         -2   -1    0    0    0  501 -0.00000000000E+00  0.00000000000E+00  0.76955001330E+02  0.76955001330E+02  0.00000000000E+00 0.  1.
          2   -1    0    0  501    0  0.00000000000E+00 -0.00000000000E+00 -0.45819891759E+03  0.45819891759E+03  0.00000000000E+00 0. -1.
         23    2    1    2    0    0  0.74126865965E+02 -0.94217587921E+02 -0.90727062142E+02  0.19558055322E+03  0.12509439180E+03 0.  0.
         23    2    1    2    0    0 -0.74126865965E+02  0.94217587921E+02 -0.29051685412E+03  0.33957336570E+03  0.12860125208E+03 0.  0.
          5    1    3    3  502    0  0.47585062612E+02 -0.12404038234E+03 -0.65639890428E+02  0.14824446786E+03  0.41800000000E+01 0. -1.
         -5    1    3    3    0  502  0.26541803352E+02  0.29822794423E+02 -0.25087171715E+02  0.47336085358E+02  0.41800000000E+01 0. -1.
        -11    1    4    4    0    0 -0.41062715382E+02 -0.18521346495E+02 -0.30946776797E+02  0.54652446099E+02  0.00000000000E+00 0.  1.
         11    1    4    4    0    0 -0.33064150583E+02  0.11273893442E+03 -0.25957007732E+03  0.28492091960E+03  0.00000000000E+00 0. -1.
</event>
<event>
 8    1  0.6630034E-006  0.1177592E+03  0.7561462E-02  0.1246840E+00
          1   -1    0    0  501    0  0.00000000000E+00  0.00000000000E+00  0.31956758195E+03  0.31956758195E+03  0.00000000000E+00 0. -1.
         -1   -1    0    0    0  501 -0.00000000000E+00 -0.00000000000E+00 -0.55477108522E+02  0.55477108522E+02  0.00000000000E+00 0.  1.
         23    2    1    2    0    0 -0.63035113480E+02  0.55144066275E+02  0.12854779843E+03  0.19795496964E+03  0.12508932787E+03 0.  0.
         23    2    1    2    0    0  0.63035113480E+02 -0.55144066275E+02  0.13554267500E+03  0.17708972084E+03  0.77295917760E+02 0.  0.
          5    1    3    3  502    0 -0.37109725049E+02  0.82068251081E+02  0.34280926669E+02  0.96462344270E+02  0.41800000000E+01 0. -1.
         -5    1    3    3    0  502 -0.25925388431E+02 -0.26924184806E+02  0.94266871758E+02  0.10149262537E+03  0.41800000000E+01 0. -1.
        -11    1    4    4    0    0  0.18924381051E+01 -0.45860527197E+02  0.30226688323E+02  0.54958365730E+02  0.00000000000E+00 0. -1.
         11    1    4    4    0    0  0.61142675375E+02 -0.92835390780E+01  0.10531598668E+03  0.12213135511E+03  0.00000000000E+00 0.  1.
</event>
<event>
 8    1  0.5951278E-006  0.3468738E+03  0.7561462E-02  0.1063906E+00
          2   -1    0    0  501    0  0.00000000000E+00  0.00000000000E+00  0.53866000121E+03  0.53866000121E+03  0.00000000000E+00 0. -1.
         -2   -1    0    0    0  501 -0.00000000000E+00 -0.00000000000E+00 -0.55942929532E+03  0.55942929532E+03  0.00000000000E+00 0.  1.
         23    2    1    2    0    0  0.31001386785E+03 -0.11786672648E+03 -0.43406331606E+03  0.56108554185E+03  0.12808145633E+03 0.  0.
         23    2    1    2    0    0 -0.31001386785E+03  0.11786672648E+03  0.41329402195E+03  0.53700375469E+03  0.86947803273E+02 0.  0.
          5    1    3    3  502    0 -0.10857090412E+02 -0.65407802409E+01 -0.32518101183E+02  0.35150498189E+02  0.41800000000E+01 0. -1.
         -5    1    3    3    0  502  0.32087095827E+03 -0.11132594624E+03 -0.40154521487E+03  0.52593504366E+03  0.41800000000E+01 0.  1.
        -11    1    4    4    0    0 -0.14448914352E+03  0.13632502245E+02  0.20597710910E+03  0.25197128246E+03  0.00000000000E+00 0.  1.
         11    1    4    4    0    0 -0.16552472433E+03  0.10423422424E+03  0.20731691285E+03  0.28503247223E+03  0.00000000000E+00 0. -1.
</event>
<event>
 8    1  0.5951278E-006  0.9380771E+02  0.7561462E-02  0.1293884E+00
          2   -1    0    0  501    0  0.00000000000E+00  0.00000000000E+00  0.38713507922E+03  0.38713507922E+03  0.00000000000E+00 0. -1.
         -2   -1    0    0    0  501 -0.00000000000E+00 -0.00000000000E+00 -0.41856116179E+02  0.41856116179E+02  0.00000000000E+00 0.  1.
         23    2    1    2    0    0  0.22196072310E+02 -0.20513809110E+02  0.90571433945E+02  0.15736168810E+03  0.12508410868E+03 0.  0.
         23    2    1    2    0    0 -0.22196072310E+02  0.20513809110E+02  0.25470752909E+03  0.27162950729E+03  0.89404596453E+02 0.  0.
          5    1    3    3  502    0  0.59953123132E+02 -0.30598974370E+02  0.96379258768E+02  0.11763123789E+03  0.41800000000E+01 0.  1.
         -5    1    3    3    0  502 -0.37757050822E+02  0.10085165260E+02 -0.58078248235E+01  0.39730450215E+02  0.41800000000E+01 0.  1.
        -11    1    4    4    0    0 -0.46628868627E+02 -0.33104023734E+01  0.21132496712E+03  0.21643348142E+03  0.00000000000E+00 0. -1.
         11    1    4    4    0    0  0.24432796317E+02  0.23824211483E+02  0.43382561975E+02  0.55196025873E+02  0.00000000000E+00 0.  1.
</event>
<event>
 8    1  0.5951278E-006  0.2093769E+03  0.7561462E-02  0.1142060E+00
         -2   -1    0    0    0  501 -0.00000000000E+00  0.00000000000E+00  0.11401356493E+03  0.11401356493E+03  0.00000000000E+00 0. -1.
          2   -1    0    0  501    0  0.00000000000E+00 -0.00000000000E+00 -0.42126112466E+03  0.42126112466E+03  0.00000000000E+00 0.  1.
         23    2    1    2    0    0  0.24220234319E+02  0.18836318441E+03 -0.14326937441E+03  0.26878331605E+03  0.12510415001E+03 0.  0.
         23    2    1    2    0    0 -0.24220234319E+02 -0.18836318441E+03 -0.16397818532E+03  0.26649137354E+03  0.89785844756E+02 0.  0.
          5    1    3    3  502    0 -0.38310250244E+02  0.14680955149E+03 -0.87857250463E+02  0.17537698977E+03  0.41800000000E+01 0.  1.
         -5    1    3    3    0  502  0.62530484563E+02  0.41553632922E+02 -0.55412123947E+02  0.93406326279E+02  0.41800000000E+01 0.  1.
        -11    1    4    4    0    0 -0.15674701736E+02 -0.37151439328E+02  0.37574189390E+01  0.40497455670E+02  0.00000000000E+00 0. -1.
         11    1    4    4    0    0 -0.85455325835E+01 -0.15121174508E+03 -0.16773560426E+03  0.22599391787E+03  0.00000000000E+00 0.  1.
</event>
<event>
 8    1  0.5951278E-006  0.1145691E+03  0.7561462E-02  0.1252335E+00
          2   -1    0    0  501    0  0.00000000000E+00  0.00000000000E+00  0.39587431840E+03  0.39587431840E+03  0.00000000000E+00 0. -1.
         -2   -1    0    0    0  501 -0.00000000000E+00 -0.00000000000E+00 -0.34270045670E+02  0.34270045670E+02  0.00000000000E+00 0.  1.
         23    2    1    2    0    0  0.35660964617E+02 -0.25033013290E+02  0.20668438732E+03  0.24549216247E+03  0.12509840014E+03 0.  0.
         23    2    1    2    0    0 -0.35660964617E+02  0.25033013290E+02  0.15491988540E+03  0.18465220160E+03  0.90542302322E+02 0.  0.
          5    1    3    3  502    0  0.74593231494E+02 -0.43705010403E+02  0.15896725808E+03  0.18100370069E+03  0.41800000000E+01 0. -1.
         -5    1    3    3    0  502 -0.38932266877E+02  0.18671997113E+02  0.47717129240E+02  0.64488461784E+02  0.41800000000E+01 0. -1.
        -11    1    4    4    0    0  0.29732543188E+02  0.17343233636E+01  0.33809079102E+02  0.45056473804E+02  0.00000000000E+00 0.  1.
         11    1    4    4    0    0 -0.65393507805E+02  0.23298689927E+02  0.12111080630E+03  0.13959572779E+03  0.00000000000E+00 0. -1.
</event>
<event>
 8    1  0.5951278E-006  0.1168572E+03  0.7561462E-02  0.1248374E+00
          1   -1    0    0  501    0  0.00000000000E+00  0.00000000000E+00  0.25826138921E+02  0.25826138921E+02  0.00000000000E+00 0.  1.
         -1   -1    0    0    0  501 -0.00000000000E+00 -0.00000000000E+00 -0.77516098970E+03  0.77516098970E+03  0.00000000000E+00 0. -1.
         23    2    1    2    0    0  0.41353785180E+02  0.24039400161E+01 -0.59771900508E+03  0.61207166981E+03  0.12509118862E+03 0.  0.
         23    2    1    2    0    0 -0.41353785180E+02 -0.24039400161E+01 -0.15161584570E+03  0.18891545881E+03  0.10481303085E+03 0.  0.
          5    1    3    3  502    0  0.84375074449E+02 -0.12658676475E+02 -0.41566137302E+03  0.42434802308E+03  0.41800000000E+01 0. -1.
         -5    1    3    3    0  502 -0.43021289270E+02  0.15062616491E+02 -0.18205763207E+03  0.18772364672E+03  0.41800000000E+01 0. -1.
        -11    1    4    4    0    0 -0.32343433902E+02  0.44357940737E+02 -0.11941254037E+03  0.13142708785E+03  0.00000000000E+00 0.  1.
         11    1    4    4    0    0 -0.90103512775E+01 -0.46761880753E+02 -0.32203305323E+02  0.57488370958E+02  0.00000000000E+00 0. -1.
</event>
<event>
 8    1  0.5951278E-006  0.1099711E+03  0.7561462E-02  0.1260623E+00
         -1   -1    0    0    0  501 -0.00000000000E+00  0.00000000000E+00  0.29141790822E+02  0.29141790822E+02  0.00000000000E+00 0.  1.
          1   -1    0    0  501    0  0.00000000000E+00 -0.00000000000E+00 -0.52944178187E+03  0.52944178187E+03  0.00000000000E+00 0. -1.
         23    2    1    2    0    0  0.40409603719E+02  0.41938430959E+02 -0.25059873307E+03  0.28607554510E+03  0.12509086467E+03 0.  0.
         23    2    1    2    0    0 -0.40409603719E+02 -0.41938430959E+02 -0.24970125798E+03  0.27250802760E+03  0.92293763612E+02 0.  0.
          5    1    3    3  502    0  0.24343245863E+02 -0.37195656458E+02 -0.15274939169E+03  0.15914131940E+03  0.41800000000E+01 0.  1.
         -5    1    3    3    0  502  0.16066357856E+02  0.79134087417E+02 -0.97849341381E+02  0.12693422570E+03  0.41800000000E+01 0.  1.
        -11    1    4    4    0    0  0.21552346376E+02 -0.17747940885E+02 -0.22764332558E+02  0.36023712702E+02  0.00000000000E+00 0.  1.
         11    1    4    4    0    0 -0.61961950095E+02 -0.24190490073E+02 -0.22693692543E+03  0.23648431489E+03  0.00000000000E+00 0. -1.
</event>
<event>
 8    1  0.5951278E-006  0.1134225E+03  0.7561462E-02  0.1254360E+00
         -2   -1    0    0    0  501 -0.00000000000E+00  0.00000000000E+00  0.24637014276E+02  0.24637014276E+02  0.00000000000E+00 0.  1.
          2   -1    0    0  501    0  0.00000000000E+00 -0.00000000000E+00 -0.58632388338E+03  0.58632388338E+03  0.00000000000E+00 0. -1.
         23    2    1    2    0    0 -0.34692308465E+02  0.12951419394E+02 -0.23031629232E+03  0.26469303771E+03  0.12508202978E+03 0.  0.
         23    2    1    2    0    0  0.34692308465E+02 -0.12951419394E+02 -0.33137057678E+03  0.34626785994E+03  0.93400621736E+02 0.  0.
          5    1    3    3  502    0  0.46434686175E+02  0.15348531615E+02 -0.91649384313E+02  0.10396556905E+03  0.41800000000E+01 0. -1.
         -5    1    3    3    0  502 -0.81126994640E+02 -0.23971122207E+01 -0.13866690801E+03  0.16072746866E+03  0.41800000000E+01 0. -1.
        -11    1    4    4    0    0  0.64478153376E+02 -0.16331221699E+02 -0.17859082461E+03  0.19057498183E+03  0.00000000000E+00 0.  1.
         11    1    4    4    0    0 -0.29785844911E+02  0.33798023046E+01 -0.15277975217E+03  0.15569287811E+03  0.00000000000E+00 0. -1.
</event>
<event>
 8    1  0.5951278E-006  0.1807687E+03  0.7561462E-02  0.1167061E+00
         -1   -1    0    0    0  501 -0.00000000000E+00  0.00000000000E+00  0.43681810028E+02  0.43681810028E+02  0.00000000000E+00 0.  1.
          1   -1    0    0  501    0  0.00000000000E+00 -0.00000000000E+00 -0.11930977661E+04  0.11930977661E+04  0.00000000000E+00 0. -1.
         23    2    1    2    0    0 -0.40508788272E+02 -0.15993403177E+03 -0.28755487048E+03  0.35428793219E+03  0.12494910529E+03 0.  0.
         23    2    1    2    0    0  0.40508788272E+02  0.15993403177E+03 -0.86186108558E+03  0.88249164392E+03  0.93632869836E+02 0.  0.
          5    1    3    3  502    0 -0.56691905619E+02 -0.14546818698E+03 -0.29254678793E+03  0.33162638784E+03  0.41800000000E+01 0. -1.
         -5    1    3    3    0  502  0.16183117347E+02 -0.14465844789E+02  0.49919174459E+01  0.22661544349E+02  0.41800000000E+01 0. -1.
        -11    1    4    4    0    0 -0.18694634274E+02  0.88596711238E+02 -0.31211891153E+03  0.32498781751E+03  0.00000000000E+00 0.  1.
         11    1    4    4    0    0  0.59203422546E+02  0.71337320536E+02 -0.54974217405E+03  0.55750382642E+03  0.00000000000E+00 0. -1.
</event>
<event>
 8    1  0.5951278E-006  0.1013308E+03  0.7561462E-02  0.1277522E+00
          1   -1    0    0  501    0  0.00000000000E+00  0.00000000000E+00  0.13179159153E+03  0.13179159153E+03  0.00000000000E+00 0. -1.
         -1   -1    0    0    0  501 -0.00000000000E+00 -0.00000000000E+00 -0.10200048453E+03  0.10200048453E+03  0.00000000000E+00 0.  1.
         23    2    1    2    0    0  0.14030162963E+02  0.84753652769E+01 -0.20750075747E+02  0.12785403937E+03  0.12508961768E+03 0.  0.
         23    2    1    2    0    0 -0.14030162963E+02 -0.84753652769E+01  0.50541182745E+02  0.10593803669E+03  0.91650309195E+02 0.  0.
          5    1    3    3  502    0 -0.47105718255E+02 -0.23056552828E+01 -0.40781812740E+02  0.62489146170E+02  0.41800000000E+01 0.  1.
         -5    1    3    3    0  502  0.61135881218E+02  0.10781020560E+02  0.20031736994E+02  0.65364893204E+02  0.41800000000E+01 0.  1.
        -11    1    4    4    0    0  0.16621154589E+02 -0.43490998789E+02  0.26040465928E+02  0.53346374022E+02  0.00000000000E+00 0. -1.
         11    1    4    4    0    0 -0.30651317552E+02  0.35015633512E+02  0.24500716816E+02  0.52591662670E+02  0.00000000000E+00 0.  1.
</event>
<event>
 8    1  0.5951278E-006  0.1428402E+03  0.7561462E-02  0.1209558E+00
          2   -1    0    0  501    0  0.00000000000E+00  0.00000000000E+00  0.13224991641E+04  0.13224991641E+04  0.00000000000E+00 0. -1.
         -2   -1    0    0    0  501 -0.00000000000E+00 -0.00000000000E+00 -0.20034197368E+02  0.20034197368E+02  0.00000000000E+00 0.  1.
         23    2    1    2    0    0  0.11277883031E+03  0.22332593303E+02  0.53747738439E+03  0.56369046596E+03  0.12508874209E+03 0.  0.
         23    2    1    2    0    0 -0.11277883031E+03 -0.22332593303E+02  0.76498758237E+03  0.77884289553E+03  0.90401578808E+02 0.  0.
          5    1    3    3  502    0  0.27215257155E+02  0.45954394797E+02  0.37222784701E+03  0.37606318501E+03  0.41800000000E+01 0. -1.
         -5    1    3    3    0  502  0.85563573156E+02 -0.23621801494E+02  0.16524953737E+03  0.18762728096E+03  0.41800000000E+01 0. -1.
        -11    1    4    4    0    0 -0.98753815825E+02  0.18145266768E+02  0.60218774583E+03  0.61050114502E+03  0.00000000000E+00 0. -1.
         11    1    4    4    0    0 -0.14025014487E+02 -0.40477860071E+02  0.16279983654E+03  0.16834175051E+03  0.00000000000E+00 0.  1.
</event>
<event>
 7    1  0.5951278E-006  0.1115220E+03  0.7561462E-02  0.1257777E+00
         -1   -1    0    0    0  501 -0.00000000000E+00  0.00000000000E+00  0.30688067640E+03  0.30688067640E+03  0.00000000000E+00 0.  1.
          1   -1    0    0  501    0  0.00000000000E+00 -0.00000000000E+00 -0.62651884669E+02  0.62651884669E+02  0.00000000000E+00 0. -1.
         23    2    1    2    0    0 -0.43817794284E+02 -0.39615692601E+02  0.68196776359E+02  0.12866098206E+03  0.91724837436E+02 0.  0.
          5    1    1    2  502    0  0.36999135983E+02 -0.56285936289E+02  0.61823626672E+02  0.91524182063E+02  0.41800000000E+01 0. -1.
         -5    1    1    2    0  502  0.68186583012E+01  0.95901628890E+02  0.11420838870E+03  0.14934739694E+03  0.41800000000E+01 0.  1.
        -11    1    3    3    0    0 -0.22222657794E+02 -0.16424807030E+02  0.87361530757E+02  0.91627822530E+02  0.00000000000E+00 0.  1.
         11    1    3    3    0    0 -0.21595136491E+02 -0.23190885571E+02 -0.19164754398E+02  0.37033159530E+02  0.00000000000E+00 0. -1.
</event>
<event>
 8    1  0.5951278E-006  0.7234249E+02  0.7561462E-02  0.1352304E+00
         -1   -1    0    0    0  501 -0.00000000000E+00  0.00000000000E+00  0.11060480921E+03  0.11060480921E+03  0.00000000000E+00 0.  1.
          1   -1    0    0  501    0  0.00000000000E+00 -0.00000000000E+00 -0.12857440263E+03  0.12857440263E+03  0.00000000000E+00 0. -1.
         23    2    1    2    0    0 -0.27814078815E+02 -0.27676895692E+02  0.19916674322E+02  0.13260369430E+03  0.12508969698E+03 0.  0.
         23    2    1    2    0    0  0.27814078815E+02  0.27676895692E+02 -0.37886267738E+02  0.10657551753E+03  0.91560570764E+02 0.  0.
          5    1    3    3  502    0 -0.29666262399E+02 -0.17246332571E+02  0.71691770851E+02  0.79590863293E+02  0.41800000000E+01 0. -1.
         -5    1    3    3    0  502  0.18521835841E+01 -0.10430563121E+02 -0.51775096530E+02  0.53012831010E+02  0.41800000000E+01 0. -1.
        -11    1    4    4    0    0 -0.31609371978E+02  0.23056561190E+02 -0.81420508330E+01  0.39963113023E+02  0.00000000000E+00 0.  1.
         11    1    4    4    0    0  0.59423450794E+02  0.46203345025E+01 -0.29744216905E+02  0.66612404509E+02  0.00000000000E+00 0. -1.
</event>
<event>
 8    1  0.5951278E-006  0.1024151E+03  0.7561462E-02  0.1275298E+00
         -2   -1    0    0    0  501 -0.00000000000E+00  0.00000000000E+00  0.24219454437E+03  0.24219454437E+03  0.00000000000E+00 0.  1.
          2   -1    0    0  501    0  0.00000000000E+00 -0.00000000000E+00 -0.59153560994E+02  0.59153560994E+02  0.00000000000E+00 0. -1.
         23    2    1    2    0    0 -0.12225382053E+02 -0.33292129644E+02  0.13989527008E+03  0.19095613874E+03  0.12504293051E+03 0.  0.
         23    2    1    2    0    0  0.12225382053E+02  0.33292129644E+02  0.43145713296E+02  0.11039196662E+03  0.95220837301E+02 0.  0.
          5    1    3    3  502    0 -0.59706699988E+02 -0.80955102750E+01  0.27634106393E+02  0.66419451565E+02  0.41800000000E+01 0. -1.
         -5    1    3    3    0  502  0.47481317935E+02 -0.25196619369E+02  0.11226116368E+03  0.12453668717E+03  0.41800000000E+01 0. -1.
        -11    1    4    4    0    0  0.12129825450E+01  0.60838900844E+02  0.51338979792E+02  0.79614910844E+02  0.00000000000E+00 0.  1.
         11    1    4    4    0    0  0.11012399508E+02 -0.27546771201E+02 -0.81932664958E+01  0.30777055778E+02  0.00000000000E+00 0. -1.
</event>
<event>
 8    1  0.5951278E-006  0.1329053E+03  0.7561462E-02  0.1223207E+00
         -2   -1    0    0    0  501 -0.00000000000E+00  0.00000000000E+00  0.16180116175E+02  0.16180116175E+02  0.00000000000E+00 0.  1.
          2   -1    0    0  501    0  0.00000000000E+00 -0.00000000000E+00 -0.17584782228E+04  0.17584782228E+04  0.00000000000E+00 0. -1.
         23    2    1    2    0    0 -0.11638400318E+03  0.98522922525E+01 -0.12132574554E+04  0.12252684843E+04  0.12508757584E+03 0.  0.
         23    2    1    2    0    0  0.11638400318E+03 -0.98522922525E+01 -0.52904065123E+03  0.54938985470E+03  0.91120238886E+02 0.  0.
          5    1    3    3  502    0 -0.57576164720E+02 -0.96985429295E+00 -0.15646512815E+03  0.16677758868E+03  0.41800000000E+01 0.  1.
         -5    1    3    3    0  502 -0.58807838459E+02  0.10822146545E+02 -0.10567923272E+04  0.10584908956E+04  0.41800000000E+01 0.  1.
        -11    1    4    4    0    0  0.11148307728E+03 -0.39355676488E+02 -0.42029368812E+03  0.43660523367E+03  0.00000000000E+00 0.  1.
         11    1    4    4    0    0  0.49009259008E+01  0.29503384235E+02 -0.10874696311E+03  0.11278462104E+03  0.00000000000E+00 0. -1.
</event>
<event>
 8    1  0.5951278E-006  0.1085346E+03  0.7561462E-02  0.1263308E+00
          1   -1    0    0  501    0  0.00000000000E+00  0.00000000000E+00  0.23436040718E+03  0.23436040718E+03  0.00000000000E+00 0. -1.
         -1   -1    0    0    0  501 -0.00000000000E+00 -0.00000000000E+00 -0.60971928725E+02  0.60971928725E+02  0.00000000000E+00 0.  1.
         23    2    1    2    0    0 -0.15780258522E+02 -0.26433921697E+02  0.12581603391E+03  0.18006880596E+03  0.12508929496E+03 0.  0.
         23    2    1    2    0    0  0.15780258522E+02  0.26433921697E+02  0.47572444539E+02  0.11526352995E+03  0.10037317909E+03 0.  0.
          5    1    3    3  502    0 -0.65388833178E+02  0.96951739761E+01  0.76787668058E+02  0.10140766376E+03  0.41800000000E+01 0.  1.
         -5    1    3    3    0  502  0.49608574656E+02 -0.36129095673E+02  0.49028365856E+02  0.78661142199E+02  0.41800000000E+01 0.  1.
        -11    1    4    4    0    0 -0.25506609554E+02  0.38611467634E+02 -0.58644690253E+01  0.46645734647E+02  0.00000000000E+00 0.  1.
         11    1    4    4    0    0  0.41286868076E+02 -0.12177545937E+02  0.53436913564E+02  0.68617795300E+02  0.00000000000E+00 0. -1.
</event>
<event>
 8    1  0.5951278E-006  0.1882661E+03  0.7561462E-02  0.1160035E+00
          3   -1    0    0  501    0  0.00000000000E+00  0.00000000000E+00  0.99727721144E+03  0.99727721144E+03  0.00000000000E+00 0. -1.
         -3   -1    0    0    0  501 -0.00000000000E+00 -0.00000000000E+00 -0.45375953490E+02  0.45375953490E+02  0.00000000000E+00 0.  1.
         23    2    1    2    0    0 -0.12826170411E+02 -0.17730227161E+03  0.60417668888E+03  0.64208792389E+03  0.12508726735E+03 0.  0.
         23    2    1    2    0    0  0.12826170411E+02  0.17730227161E+03  0.34772456907E+03  0.40056524105E+03  0.89104041618E+02 0.  0.
          5    1    3    3  502    0 -0.47511800045E+02 -0.12364271677E+03  0.25806530391E+03  0.29010354364E+03  0.41800000000E+01 0.  1.
         -5    1    3    3    0  502  0.34685629634E+02 -0.53659554839E+02  0.34611138497E+03  0.35198438024E+03  0.41800000000E+01 0.  1.
        -11    1    4    4    0    0  0.19527432903E+02  0.16321110864E+03  0.34809902556E+03  0.38495729402E+03  0.00000000000E+00 0. -1.
         11    1    4    4    0    0 -0.67012624922E+01  0.14091162964E+02 -0.37445649229E+00  0.15607947025E+02  0.00000000000E+00 0.  1.
</event>
<event>
 8    1  0.5951278E-006  0.1772027E+03  0.7561462E-02  0.1170538E+00
         -2   -1    0    0    0  501 -0.00000000000E+00  0.00000000000E+00  0.51299982386E+02  0.51299982386E+02  0.00000000000E+00 0.  1.
          2   -1    0    0  501    0  0.00000000000E+00 -0.00000000000E+00 -0.72453648910E+03  0.72453648910E+03  0.00000000000E+00 0. -1.
         23    2    1    2    0    0  0.14875250315E+03 -0.53313053317E+02 -0.38960407879E+03  0.43864441626E+03  0.12509195360E+03 0.  0.
         23    2    1    2    0    0 -0.14875250315E+03  0.53313053317E+02 -0.28363242792E+03  0.33719205523E+03  0.91002962009E+02 0.  0.
          5    1    3    3  502    0  0.93246366273E+02 -0.69258669014E+02 -0.34921003932E+03  0.36804452451E+03  0.41800000000E+01 0.  1.
         -5    1    3    3    0  502  0.55506136873E+02  0.15945615697E+02 -0.40394039473E+02  0.70599891752E+02  0.41800000000E+01 0.  1.
        -11    1    4    4    0    0 -0.47742350605E+02  0.62724182281E+02 -0.99260426766E+02  0.12675285956E+03  0.00000000000E+00 0. -1.
         11    1    4    4    0    0 -0.10101015254E+03 -0.94111289640E+01 -0.18437200116E+03  0.21043919567E+03  0.00000000000E+00 0.  1.
</event>
<event>
 8    1  0.5951278E-006  0.9848602E+02  0.7561462E-02  0.1283512E+00
          2   -1    0    0  501    0  0.00000000000E+00  0.00000000000E+00  0.60095985321E+03  0.60095985321E+03  0.00000000000E+00 0. -1.
         -2   -1    0    0    0  501 -0.00000000000E+00 -0.00000000000E+00 -0.20761795494E+02  0.20761795494E+02  0.00000000000E+00 0.  1.
         23    2    1    2    0    0  0.13843144631E+02 -0.13706098512E+02  0.39873323708E+03  0.41834754452E+03  0.12508790453E+03 0.  0.
         23    2    1    2    0    0 -0.13843144631E+02  0.13706098512E+02  0.18146482064E+03  0.20337410419E+03  0.89733245439E+02 0.  0.
          5    1    3    3  502    0  0.11991993700E+02 -0.65878210491E+02  0.28999108325E+03  0.29765088157E+03  0.41800000000E+01 0. -1.
         -5    1    3    3    0  502  0.18511509303E+01  0.52172111979E+02  0.10874215383E+03  0.12069666295E+03  0.41800000000E+01 0. -1.
        -11    1    4    4    0    0  0.49887492905E+00  0.43994061873E+02  0.45312337142E+02  0.63158010209E+02  0.00000000000E+00 0.  1.
         11    1    4    4    0    0 -0.14342019560E+02 -0.30287963361E+02  0.13615248350E+03  0.14021609398E+03  0.00000000000E+00 0. -1.
</event>
<event>
 6    1  0.5951278E-006  0.1522738E+03  0.7561462E-02  0.1197706E+00
         -2   -1    0    0    0  501 -0.00000000000E+00  0.00000000000E+00  0.64017774966E+02  0.64017774966E+02  0.00000000000E+00 0.  1.
          2   -1    0    0  501    0  0.00000000000E+00 -0.00000000000E+00 -0.61085281602E+03  0.61085281602E+03  0.00000000000E+00 0. -1.
          5    1    1    2  502    0 -0.34619634293E+02  0.77978289016E+02 -0.30187919002E+03  0.31373181286E+03  0.41800000000E+01 0. -1.
         -5    1    1    2    0  502  0.18509678392E+02  0.31853641975E+02  0.17928944107E+02  0.41184731856E+02  0.41800000000E+01 0.  1.
        -11    1    1    2    0    0  0.65731909432E+02 -0.48249710328E+01 -0.86069168059E+02  0.10840602360E+03  0.00000000000E+00 0.  1.
         11    1    1    2    0    0 -0.49621953532E+02 -0.10500695996E+03 -0.17681562708E+03  0.21154802266E+03  0.00000000000E+00 0. -1.
</event>
<event>
 8    1  0.5951278E-006  0.8409296E+02  0.7561462E-02  0.1317822E+00
         -1   -1    0    0    0  501 -0.00000000000E+00  0.00000000000E+00  0.11995455912E+03  0.11995455912E+03  0.00000000000E+00 0.  1.
          1   -1    0    0  501    0  0.00000000000E+00 -0.00000000000E+00 -0.10538836057E+03  0.10538836057E+03  0.00000000000E+00 0. -1.
         23    2    1    2    0    0 -0.19395700800E+02 -0.23919232351E+02  0.12210000076E+02  0.12940221507E+03  0.12509007265E+03 0.  0.
         23    2    1    2    0    0  0.19395700800E+02  0.23919232351E+02  0.23561984711E+01  0.95940704628E+02  0.90833607479E+02 0.  0.
          5    1    3    3  502    0  0.30709298588E+00  0.26441341551E+02 -0.43864044598E+02  0.51388380571E+02  0.41800000000E+01 0.  1.
         -5    1    3    3    0  502 -0.19702793786E+02 -0.50360573902E+02  0.56074044675E+02  0.78013834497E+02  0.41800000000E+01 0.  1.
        -11    1    4    4    0    0  0.50331070542E+02  0.42357820751E+01 -0.18460800202E+02  0.53776943534E+02  0.00000000000E+00 0. -1.
         11    1    4    4    0    0 -0.30935369742E+02  0.19683450276E+02  0.20816998673E+02  0.42163761095E+02  0.00000000000E+00 0.  1.
</event>
<event>
 8    1  0.5951278E-006  0.1127021E+03  0.7561462E-02  0.1255646E+00
         -3   -1    0    0    0  501 -0.00000000000E+00  0.00000000000E+00  0.12964638299E+04  0.12964638299E+04  0.00000000000E+00 0.  1.
          3   -1    0    0  501    0  0.00000000000E+00 -0.00000000000E+00 -0.10585146823E+02  0.10585146823E+02  0.00000000000E+00 0. -1.
         23    2    1    2    0    0  0.22907855192E+02  0.34979408082E+02  0.80806174885E+03  0.81875456721E+03  0.12508765944E+03 0.  0.
         23    2    1    2    0    0 -0.22907855192E+02 -0.34979408082E+02  0.47781693427E+03  0.48829440956E+03  0.91509993525E+02 0.  0.
          5    1    3    3  502    0  0.25216277416E+02  0.79239981859E+02  0.42204976018E+03  0.43018403950E+03  0.41800000000E+01 0.  1.
         -5    1    3    3    0  502 -0.23084222238E+01 -0.44260573777E+02  0.38601198868E+03  0.38857052771E+03  0.41800000000E+01 0.  1.
        -11    1    4    4    0    0 -0.53922118787E+02 -0.44472934885E+01  0.32198640878E+03  0.32650056777E+03  0.00000000000E+00 0.  1.
         11    1    4    4    0    0  0.31014263595E+02 -0.30532114593E+02  0.15583052549E+03  0.16179384179E+03  0.00000000000E+00 0. -1.
</event>
<event>
 8    1  0.5951278E-006  0.9500959E+02  0.7561462E-02  0.1291154E+00
          2   -1    0    0  501    0  0.00000000000E+00  0.00000000000E+00  0.43345928168E+03  0.43345928168E+03  0.00000000000E+00 0. -1.
         -2   -1    0    0    0  501 -0.00000000000E+00 -0.00000000000E+00 -0.42733395435E+02  0.42733395435E+02  0.00000000000E+00 0.  1.
         23    2    1    2    0    0 -0.23482389690E+02 -0.64692334513E+02  0.13927591556E+03  0.19945130944E+03  0.12508606401E+03 0.  0.
         23    2    1    2    0    0  0.23482389690E+02  0.64692334513E+02  0.25144997068E+03  0.27674136768E+03  0.92855673271E+02 0.  0.
          5    1    3    3  502    0 -0.86911757214E+01 -0.77484503877E+02  0.22901962629E+02  0.81371722170E+02  0.41800000000E+01 0. -1.
         -5    1    3    3    0  502 -0.14791213969E+02  0.12792169365E+02  0.11637395293E+03  0.11807958727E+03  0.41800000000E+01 0. -1.
        -11    1    4    4    0    0 -0.20379202129E+02  0.28707069708E+02  0.24710845995E+02  0.43012017396E+02  0.00000000000E+00 0.  1.
         11    1    4    4    0    0  0.43861591820E+02  0.35985264805E+02  0.22673912469E+03  0.23372935028E+03  0.00000000000E+00 0. -1.
</event>
<event>
 8    1  0.5951278E-006  0.1747232E+03  0.7561462E-02  0.1173010E+00
          4   -1    0    0  501    0  0.00000000000E+00  0.00000000000E+00  0.14058208961E+03  0.14058208961E+03  0.00000000000E+00 0. -1.
         -4   -1    0    0    0  501 -0.00000000000E+00 -0.00000000000E+00 -0.26455989807E+03  0.26455989807E+03  0.00000000000E+00 0.  1.
         23    2    1    2    0    0  0.44478630614E+02 -0.14774682351E+03 -0.95035105123E+02  0.22019680122E+03  0.12508991816E+03 0.  0.
         23    2    1    2    0    0 -0.44478630614E+02  0.14774682351E+03 -0.28942703336E+02  0.18494518646E+03  0.97773050892E+02 0.  0.
          5    1    3    3  502    0  0.73526562898E+02 -0.14018105269E+03 -0.50268661480E+02  0.16613637083E+03  0.41800000000E+01 0.  1.
         -5    1    3    3    0  502 -0.29047932283E+02 -0.75657708179E+01 -0.44766443643E+02  0.54060430395E+02  0.41800000000E+01 0.  1.
        -11    1    4    4    0    0 -0.87013140996E+01  0.10361033576E+03  0.24632732011E+02  0.10685310492E+03  0.00000000000E+00 0. -1.
         11    1    4    4    0    0 -0.35777316515E+02  0.44136487747E+02 -0.53575435347E+02  0.78092081546E+02  0.00000000000E+00 0.  1.
</event>
<event>
 8    1  0.5951278E-006  0.8710056E+02  0.7561462E-02  0.1310029E+00
         -3   -1    0    0    0  501 -0.00000000000E+00  0.00000000000E+00  0.18957386454E+03  0.18957386454E+03  0.00000000000E+00 0.  1.
          3   -1    0    0  501    0  0.00000000000E+00 -0.00000000000E+00 -0.86695052738E+02  0.86695052738E+02  0.00000000000E+00 0. -1.
         23    2    1    2    0    0 -0.51896596749E+02  0.30298265394E+01  0.10421181573E+03  0.17091588761E+03  0.12509876698E+03 0.  0.
         23    2    1    2    0    0  0.51896596749E+02 -0.30298265394E+01 -0.13330039221E+01  0.10535302967E+03  0.91624491034E+02 0.  0.
          5    1    3    3  502    0  0.13727217076E+02  0.32017661837E+02  0.91422451888E+02  0.97923971873E+02  0.41800000000E+01 0. -1.
         -5    1    3    3    0  502 -0.65623813825E+02 -0.28987835298E+02  0.12789363838E+02  0.72991915741E+02  0.41800000000E+01 0. -1.
        -11    1    4    4    0    0  0.44917209708E+02 -0.19800024630E+02  0.37967695798E+02  0.62057575101E+02  0.00000000000E+00 0.  1.
         11    1    4    4    0    0  0.69793870412E+01  0.16770198090E+02 -0.39300699720E+02  0.43295454564E+02  0.00000000000E+00 0. -1.
</event>
<event>
 8    1  0.5951278E-006  0.1574494E+03  0.7561462E-02  0.1191607E+00
          1   -1    0    0  501    0  0.00000000000E+00  0.00000000000E+00  0.80289991071E+03  0.80289991071E+03  0.00000000000E+00 0. -1.
         -1   -1    0    0    0  501 -0.00000000000E+00 -0.00000000000E+00 -0.42715124484E+02  0.42715124484E+02  0.00000000000E+00 0.  1.
         23    2    1    2    0    0 -0.96126805845E+02 -0.77484683889E+02  0.20667968709E+03  0.27131064695E+03  0.12509490418E+03 0.  0.
         23    2    1    2    0    0  0.96126805845E+02  0.77484683889E+02  0.55350509914E+03  0.57430438825E+03  0.90627791274E+02 0.  0.
          5    1    3    3  502    0 -0.22812395305E+01  0.27474860909E+02  0.68650617623E+02  0.74097582524E+02  0.41800000000E+01 0.  1.
         -5    1    3    3    0  502 -0.93845566314E+02 -0.10495954480E+03  0.13802906947E+03  0.19721306442E+03  0.41800000000E+01 0.  1.
        -11    1    4    4    0    0  0.84072998463E+02  0.18672567018E+02  0.23715497907E+03  0.25230818046E+03  0.00000000000E+00 0. -1.
         11    1    4    4    0    0  0.12053807382E+02  0.58812116871E+02  0.31635012007E+03  0.32199620779E+03  0.00000000000E+00 0.  1.
</event>
<event>
 8    1  0.5951278E-006  0.1796767E+03  0.7561462E-02  0.1168116E+00
         -2   -1    0    0    0  501 -0.00000000000E+00  0.00000000000E+00  0.14202206242E+03  0.14202206242E+03  0.00000000000E+00 0. -1.
          2   -1    0    0  501    0  0.00000000000E+00 -0.00000000000E+00 -0.28195284138E+03  0.28195284138E+03  0.00000000000E+00 0.  1.
         23    2    1    2    0    0  0.12577094529E+03  0.97354811477E+02 -0.18281223464E+02  0.20317197779E+03  0.12509340283E+03 0.  0.
         23    2    1    2    0    0 -0.12577094529E+03 -0.97354811477E+02 -0.12164955550E+03  0.22080292601E+03  0.93053897200E+02 0.  0.
          5    1    3    3  502    0  0.57644966545E+02  0.19599850234E+01 -0.55457642092E+02  0.80123692973E+02  0.41800000000E+01 0. -1.
         -5    1    3    3    0  502  0.68125978746E+02  0.95394826454E+02  0.37176418628E+02  0.12304828482E+03  0.41800000000E+01 0. -1.
        -11    1    4    4    0    0  0.91362987788E+01  0.87053786767E+01 -0.95737591024E+01  0.15840215801E+02  0.00000000000E+00 0. -1.
         11    1    4    4    0    0 -0.13490724407E+03 -0.10606019015E+03 -0.11207579639E+03  0.20496271021E+03  0.00000000000E+00 0.  1.
</event>
<event>
 8    1  0.5951278E-006  0.1045932E+03  0.7561462E-02  0.1270923E+00
         -1   -1    0    0    0  501 -0.00000000000E+00  0.00000000000E+00  0.17912913450E+03  0.17912913450E+03  0.00000000000E+00 0.  1.
          1   -1    0    0  501    0  0.00000000000E+00 -0.00000000000E+00 -0.70941013841E+02  0.70941013841E+02  0.00000000000E+00 0. -1.
         23    2    1    2    0    0  0.24322056309E+02 -0.14468012403E+02  0.73513756949E+02  0.14830630671E+03  0.12565668443E+03 0.  0.
         23    2    1    2    0    0 -0.24322056309E+02  0.14468012403E+02  0.34674363709E+02  0.10176384163E+03  0.91393009358E+02 0.  0.
          5    1    3    3  502    0 -0.14141799074E+02  0.50651054054E+02  0.25200075819E+02  0.58463971633E+02  0.41800000000E+01 0. -1.
         -5    1    3    3    0  502  0.38463855383E+02 -0.65119066456E+02  0.48313681130E+02  0.89842335073E+02  0.41800000000E+01 0. -1.
        -11    1    4    4    0    0 -0.41986919639E+02 -0.16436705355E+02  0.45995364462E+02  0.64409939106E+02  0.00000000000E+00 0.  1.
         11    1    4    4    0    0  0.17664863329E+02  0.30904717757E+02 -0.11321000752E+02  0.37353902529E+02  0.00000000000E+00 0. -1.
</event>
<event>
 8    1  0.5951278E-006  0.1283984E+03  0.7561462E-02  0.1229852E+00
          1   -1    0    0  501    0  0.00000000000E+00  0.00000000000E+00  0.65063000943E+03  0.65063000943E+03  0.00000000000E+00 0. -1.
         -1   -1    0    0    0  501 -0.00000000000E+00 -0.00000000000E+00 -0.40612338023E+02  0.40612338023E+02  0.00000000000E+00 0.  1.
         23    2    1    2    0    0  0.15958543613E+02  0.11015895836E+03  0.22614132097E+03  0.28139138365E+03  0.12510612504E+03 0.  0.
         23    2    1    2    0    0 -0.15958543613E+02 -0.11015895836E+03  0.38387635044E+03  0.40985096380E+03  0.90703301370E+02 0.  0.
          5    1    3    3  502    0  0.27155236380E+02  0.23224053601E+02  0.17739981264E+03  0.18101085452E+03  0.41800000000E+01 0. -1.
         -5    1    3    3    0  502 -0.11196692767E+02  0.86934904763E+02  0.48741508327E+02  0.10038052913E+03  0.41800000000E+01 0. -1.
        -11    1    4    4    0    0 -0.39980652678E+02 -0.31724584007E+02  0.22871122216E+03  0.23433677680E+03  0.00000000000E+00 0. -1.
         11    1    4    4    0    0  0.24022109065E+02 -0.78434374357E+02  0.15516512828E+03  0.17551418700E+03  0.00000000000E+00 0.  1.
</event>
<event>
 8    1  0.5951278E-006  0.9492048E+02  0.7561462E-02  0.1291355E+00
          1   -1    0    0  501    0  0.00000000000E+00  0.00000000000E+00  0.23027420869E+03  0.23027420869E+03  0.00000000000E+00 0. -1.
         -1   -1    0    0    0  501 -0.00000000000E+00 -0.00000000000E+00 -0.64003221522E+02  0.64003221522E+02  0.00000000000E+00 0.  1.
         23    2    1    2    0    0 -0.94919108133E-01  0.30105572177E+02  0.51344430710E+02  0.13852796345E+03  0.12508953436E+03 0.  0.
         23    2    1    2    0    0  0.94919108133E-01 -0.30105572177E+02  0.11492655646E+03  0.15574946677E+03  0.10071458947E+03 0.  0.
          5    1    3    3  502    0 -0.48456581868E+02  0.30787508974E+02 -0.11920277853E+02  0.58783300853E+02  0.41800000000E+01 0. -1.
         -5    1    3    3    0  502  0.48361662759E+02 -0.68193679677E+00  0.63264708563E+02  0.79744662594E+02  0.41800000000E+01 0. -1.
        -11    1    4    4    0    0 -0.65828480782E+01  0.26209017329E+02  0.89700773208E+02  0.93682843639E+02  0.00000000000E+00 0. -1.
         11    1    4    4    0    0  0.66777671863E+01 -0.56314589506E+02  0.25225783251E+02  0.62066623128E+02  0.00000000000E+00 0.  1.
</event>
<event>
 8    1  0.5951278E-006  0.2078866E+03  0.7561462E-02  0.1143251E+00
         -2   -1    0    0    0  501 -0.00000000000E+00  0.00000000000E+00  0.68359783047E+02  0.68359783047E+02  0.00000000000E+00 0.  1.
          2   -1    0    0  501    0  0.00000000000E+00 -0.00000000000E+00 -0.10636054905E+04  0.10636054905E+04  0.00000000000E+00 0. -1.
         23    2    1    2    0    0  0.14955617688E+03 -0.10454937553E+03 -0.16143416580E+03  0.27387340964E+03  0.12509209669E+03 0.  0.
         23    2    1    2    0    0 -0.14955617688E+03  0.10454937553E+03 -0.83381154166E+03  0.85809186391E+03  0.88217560261E+02 0.  0.
          5    1    3    3  502    0 -0.21513680225E+01  0.22149571547E+02 -0.95877191723E+01  0.24589198096E+02  0.41800000000E+01 0. -1.
         -5    1    3    3    0  502  0.15170754490E+03 -0.12669894708E+03 -0.15184644663E+03  0.24928421154E+03  0.41800000000E+01 0. -1.
        -11    1    4    4    0    0 -0.13666332554E+03  0.60361665672E+02 -0.71975917418E+03  0.73510112505E+03  0.00000000000E+00 0. -1.
         11    1    4    4    0    0 -0.12892851342E+02  0.44187709861E+02 -0.11405236747E+03  0.12299073886E+03  0.00000000000E+00 0.  1.
</event>
<event>
 8    1  0.5951278E-006  0.1222619E+03  0.7561462E-02  0.1239412E+00
         -2   -1    0    0    0  501 -0.00000000000E+00  0.00000000000E+00  0.12743646825E+03  0.12743646825E+03  0.00000000000E+00 0.  1.
          2   -1    0    0  501    0  0.00000000000E+00 -0.00000000000E+00 -0.17201063994E+03  0.17201063994E+03  0.00000000000E+00 0. -1.
         23    2    1    2    0    0 -0.82899021925E+00 -0.10091629983E+03 -0.10217771068E+02  0.16104310332E+03  0.12508273856E+03 0.  0.
         23    2    1    2    0    0  0.82899021925E+00  0.10091629983E+03 -0.34356400618E+02  0.13840400487E+03  0.88263919598E+02 0.  0.
          5    1    3    3  502    0 -0.50799215909E+02 -0.54876460595E+02 -0.42050273821E+02  0.85893446740E+02  0.41800000000E+01 0. -1.
         -5    1    3    3    0  502  0.49970225690E+02 -0.46039839239E+02  0.31832502754E+02  0.75149656581E+02  0.41800000000E+01 0. -1.
        -11    1    4    4    0    0 -0.34092892281E+01  0.10549708232E+02 -0.45885934236E+02  0.47206340226E+02  0.00000000000E+00 0. -1.
         11    1    4    4    0    0  0.42382794474E+01  0.90366591602E+02  0.11529533618E+02  0.91197664641E+02  0.00000000000E+00 0.  1.
</event>
<event>
 8    1  0.5951278E-006  0.1537416E+03  0.7561462E-02  0.1195949E+00
         -2   -1    0    0    0  501 -0.00000000000E+00  0.00000000000E+00  0.19973045916E+02  0.19973045916E+02  0.00000000000E+00 0.  1.
          2   -1    0    0  501    0  0.00000000000E+00 -0.00000000000E+00 -0.12053279161E+04  0.12053279161E+04  0.00000000000E+00 0. -1.
         23    2    1    2    0    0  0.86013990917E+02  0.32236145690E+02 -0.62240400562E+03  0.64146123021E+03  0.12509271735E+03 0.  0.
         23    2    1    2    0    0 -0.86013990917E+02 -0.32236145690E+02 -0.56295086458E+03  0.58383973182E+03  0.12456958214E+03 0.  0.
          5    1    3    3  502    0  0.11388498125E+03  0.22211602381E+01 -0.46361344287E+03  0.47741975170E+03  0.41800000000E+01 0. -1.
         -5    1    3    3    0  502 -0.27870990332E+02  0.30014985452E+02 -0.15879056275E+03  0.16404147851E+03  0.41800000000E+01 0. -1.
        -11    1    4    4    0    0  0.18513981958E+02 -0.43420539693E+02 -0.12985633359E+03  0.13816938217E+03  0.00000000000E+00 0.  1.
         11    1    4    4    0    0 -0.10452797288E+03  0.11184394003E+02 -0.43309453099E+03  0.44567034965E+03  0.00000000000E+00 0. -1.
</event>
<event>
 8    1  0.5951278E-006  0.1086493E+03  0.7561462E-02  0.1263092E+00
         -1   -1    0    0    0  501 -0.00000000000E+00  0.00000000000E+00  0.17355410797E+03  0.17355410797E+03  0.00000000000E+00 0.  1.
          1   -1    0    0  501    0  0.00000000000E+00 -0.00000000000E+00 -0.10533584452E+03  0.10533584452E+03  0.00000000000E+00 0. -1.
         23    2    1    2    0    0 -0.36910955836E+02 -0.72886479514E+02  0.38041111153E+02  0.15416918619E+03  0.12508458848E+03 0.  0.
         23    2    1    2    0    0  0.36910955836E+02  0.72886479514E+02  0.30177152300E+02  0.12472076630E+03  0.89273464526E+02 0.  0.
          5    1    3    3  502    0  0.35667470870E+02 -0.52459587810E+01 -0.17609131499E+02  0.40339093618E+02  0.41800000000E+01 0.  1.
         -5    1    3    3    0  502 -0.72578426706E+02 -0.67640520733E+02  0.55650242652E+02  0.11383009257E+03  0.41800000000E+01 0.  1.
        -11    1    4    4    0    0  0.10618333301E+02  0.22033117601E+02  0.56607825375E+02  0.61665656301E+02  0.00000000000E+00 0.  1.
         11    1    4    4    0    0  0.26292622535E+02  0.50853361913E+02 -0.26430673075E+02  0.63055109998E+02  0.00000000000E+00 0. -1.
</event>
<event>
 8    1  0.5951278E-006  0.9765361E+02  0.7561462E-02  0.1285309E+00
          1   -1    0    0  501    0  0.00000000000E+00  0.00000000000E+00  0.13975367839E+03  0.13975367839E+03  0.00000000000E+00 0. -1.
         -1   -1    0    0    0  501 -0.00000000000E+00 -0.00000000000E+00 -0.11163949565E+03  0.11163949565E+03  0.00000000000E+00 0.  1.
         23    2    1    2    0    0 -0.40406588009E+02  0.20370571556E+02 -0.26492363727E+02  0.13564162154E+03  0.12509656917E+03 0.  0.
         23    2    1    2    0    0  0.40406588009E+02 -0.20370571556E+02  0.54606546468E+02  0.11575155250E+03  0.91481661816E+02 0.  0.
          5    1    3    3  502    0 -0.63681510878E+01 -0.37826342628E+02  0.28961435081E+02  0.48245441928E+02  0.41800000000E+01 0.  1.
         -5    1    3    3    0  502 -0.34038436921E+02  0.58196914184E+02 -0.55453798809E+02  0.87396179612E+02  0.41800000000E+01 0.  1.
        -11    1    4    4    0    0 -0.52517636366E+01 -0.39369541539E+02  0.53053378622E+02  0.66273696181E+02  0.00000000000E+00 0. -1.
         11    1    4    4    0    0  0.45658351645E+02  0.18998969983E+02  0.15531678463E+01  0.49477856317E+02  0.00000000000E+00 0.  1.
</event>
<event>
 8    1  0.5951278E-006  0.1104458E+03  0.7561462E-02  0.1259747E+00
          1   -1    0    0  501    0  0.00000000000E+00  0.00000000000E+00  0.65510325814E+03  0.65510325814E+03  0.00000000000E+00 0. -1.
         -1   -1    0    0    0  501 -0.00000000000E+00 -0.00000000000E+00 -0.21061400409E+02  0.21061400409E+02  0.00000000000E+00 0.  1.
         23    2    1    2    0    0 -0.28450027391E+02 -0.14467080926E+02  0.26559708723E+03  0.29530977007E+03  0.12508935632E+03 0.  0.
         23    2    1    2    0    0  0.28450027391E+02  0.14467080926E+02  0.36844477050E+03  0.38085488848E+03  0.90995586042E+02 0.  0.
          5    1    3    3  502    0 -0.56786830907E+02  0.35489732212E+02  0.18043150440E+03  0.19250263748E+03  0.41800000000E+01 0.  1.
         -5    1    3    3    0  502  0.28336803516E+02 -0.49956813138E+02  0.85165582826E+02  0.10280713259E+03  0.41800000000E+01 0.  1.
        -11    1    4    4    0    0 -0.79318049252E+01  0.46842661287E+02  0.16909465903E+03  0.17564211385E+03  0.00000000000E+00 0.  1.
         11    1    4    4    0    0  0.36381832316E+02 -0.32375580361E+02  0.19935011147E+03  0.20521277463E+03  0.00000000000E+00 0. -1.
</event>
<event>
 7    1  0.5951278E-006  0.1565260E+03  0.7561462E-02  0.1192676E+00
          1   -1    0    0  501    0  0.00000000000E+00  0.00000000000E+00  0.24705433510E+03  0.24705433510E+03  0.00000000000E+00 0. -1.
         -1   -1    0    0    0  501 -0.00000000000E+00 -0.00000000000E+00 -0.17914213808E+03  0.17914213808E+03  0.00000000000E+00 0.  1.
         23    2    1    2    0    0  0.11283363704E+03  0.75475313791E+01  0.15823016223E+03  0.21480973450E+03  0.91203305419E+02 0.  0.
          5    1    1    2  502    0 -0.19442434898E+02 -0.61619790468E+02  0.81234684117E+01  0.65256953584E+02  0.41800000000E+01 0. -1.
         -5    1    1    2    0  502 -0.93391202138E+02  0.54072259089E+02 -0.98441433616E+02  0.14612978510E+03  0.41800000000E+01 0.  1.
        -11    1    3    3    0    0 -0.10172863900E+02  0.13796237817E+02  0.43047552889E+01  0.17673546784E+02  0.00000000000E+00 0.  1.
         11    1    3    3    0    0  0.12300650094E+03 -0.62487064383E+01  0.15392540694E+03  0.19713618772E+03  0.00000000000E+00 0. -1.
</event>
<event>
 8    1  0.5951278E-006  0.1147986E+03  0.7561462E-02  0.1251933E+00
          2   -1    0    0  501    0  0.00000000000E+00  0.00000000000E+00  0.21400992041E+02  0.21400992041E+02  0.00000000000E+00 0. -1.
         -2   -1    0    0    0  501 -0.00000000000E+00 -0.00000000000E+00 -0.91670855075E+03  0.91670855075E+03  0.00000000000E+00 0.  1.
         23    2    1    2    0    0 -0.92899031678E+02 -0.21425267508E+02 -0.54831388963E+03  0.57042541335E+03  0.12509100073E+03 0.  0.
         23    2    1    2    0    0  0.92899031678E+02  0.21425267508E+02 -0.34699366908E+03  0.36768412944E+03  0.75483378872E+02 0.  0.
          5    1    3    3  502    0 -0.15879514065E+02  0.15561281323E+02 -0.89637537390E+01  0.24333797987E+02  0.41800000000E+01 0. -1.
         -5    1    3    3    0  502 -0.77019517613E+02 -0.36986548831E+02 -0.53935013589E+03  0.54609161536E+03  0.41800000000E+01 0. -1.
        -11    1    4    4    0    0  0.54285600327E+02 -0.26070157994E+02 -0.16238135533E+03  0.17318857959E+03  0.00000000000E+00 0. -1.
         11    1    4    4    0    0  0.38613431351E+02  0.47495425502E+02 -0.18461231374E+03  0.19449554985E+03  0.00000000000E+00 0.  1.
</event>
<event>
 8    1  0.5951278E-006  0.1357403E+03  0.7561462E-02  0.1219178E+00
         -2   -1    0    0    0  501 -0.00000000000E+00  0.00000000000E+00  0.36160172678E+03  0.36160172678E+03  0.00000000000E+00 0.  1.
          2   -1    0    0  501    0  0.00000000000E+00 -0.00000000000E+00 -0.55637553651E+02  0.55637553651E+02  0.00000000000E+00 0. -1.
         23    2    1    2    0    0 -0.53672518538E+02  0.71172164048E+02  0.21244299076E+03  0.26215582048E+03  0.12508970264E+03 0.  0.
         23    2    1    2    0    0  0.53672518538E+02 -0.71172164048E+02  0.93521182377E+02  0.15508345996E+03  0.85781418840E+02 0.  0.
          5    1    3    3  502    0 -0.90879761913E+02  0.35586711364E+02  0.10792752895E+03  0.14557255598E+03  0.41800000000E+01 0. -1.
         -5    1    3    3    0  502  0.37207243376E+02  0.35585452684E+02  0.10451546181E+03  0.11658326449E+03  0.41800000000E+01 0. -1.
        -11    1    4    4    0    0  0.74303525745E+02 -0.38994072214E+02  0.75269535852E+02  0.11272557222E+03  0.00000000000E+00 0.  1.
         11    1    4    4    0    0 -0.20631007207E+02 -0.32178091835E+02  0.18251646525E+02  0.42357887735E+02  0.00000000000E+00 0. -1.
</event>
<event>
 8    1  0.5951278E-006  0.9518078E+02  0.7561462E-02  0.1290769E+00
         -1   -1    0    0    0  501 -0.00000000000E+00  0.00000000000E+00  0.52538928518E+02  0.52538928518E+02  0.00000000000E+00 0.  1.
          1   -1    0    0  501    0  0.00000000000E+00 -0.00000000000E+00 -0.22078529838E+03  0.22078529838E+03  0.00000000000E+00 0. -1.
         23    2    1    2    0    0 -0.15337667059E+02 -0.26228196112E+02 -0.10914041267E+03  0.16877012574E+03  0.12509421794E+03 0.  0.
         23    2    1    2    0    0  0.15337667059E+02  0.26228196112E+02 -0.59105957191E+02  0.10455410115E+03  0.80714828816E+02 0.  0.
          5    1    3    3  502    0  0.46737368588E+02  0.20200463672E+02 -0.42102067486E+02  0.66200429316E+02  0.41800000000E+01 0. -1.
         -5    1    3    3    0  502 -0.62075035647E+02 -0.46428659783E+02 -0.67038345182E+02  0.10256969642E+03  0.41800000000E+01 0. -1.
        -11    1    4    4    0    0  0.34827688326E+02  0.98699094689E+01 -0.68462273585E+02  0.77443307597E+02  0.00000000000E+00 0. -1.
         11    1    4    4    0    0 -0.19490021267E+02  0.16358286643E+02  0.93563163940E+01  0.27110793558E+02  0.00000000000E+00 0.  1.
</event>
<event>
 8    1  0.5951278E-006  0.1111993E+03  0.7561462E-02  0.1258365E+00
         -1   -1    0    0    0  501 -0.00000000000E+00  0.00000000000E+00  0.22423834436E+03  0.22423834436E+03  0.00000000000E+00 0.  1.
          1   -1    0    0  501    0  0.00000000000E+00 -0.00000000000E+00 -0.75991264479E+02  0.75991264479E+02  0.00000000000E+00 0. -1.
         23    2    1    2    0    0  0.26471642528E+02 -0.12502335025E+02  0.15202581743E+03  0.19903947438E+03  0.12509119456E+03 0.  0.
         23    2    1    2    0    0 -0.26471642528E+02  0.12502335025E+02 -0.37787375504E+01  0.10119013446E+03  0.96788988091E+02 0.  0.
          5    1    3    3  502    0 -0.46196419895E+02  0.12233902950E+02  0.82260088346E+02  0.95225900506E+02  0.41800000000E+01 0. -1.
         -5    1    3    3    0  502  0.72668062422E+02 -0.24736237976E+02  0.69765729088E+02  0.10381357387E+03  0.41800000000E+01 0. -1.
        -11    1    4    4    0    0  0.34990362993E+02  0.89220444647E+00  0.11426316710E+02  0.36819590501E+02  0.00000000000E+00 0.  1.
         11    1    4    4    0    0 -0.61462005520E+02  0.11610130579E+02 -0.15205054260E+02  0.64370543960E+02  0.00000000000E+00 0. -1.
</event>
<event>
 8    1  0.5951278E-006  0.2295211E+03  0.7561462E-02  0.1126977E+00
          2   -1    0    0  501    0  0.00000000000E+00  0.00000000000E+00  0.72467598186E+02  0.72467598186E+02  0.00000000000E+00 0. -1.
         -2   -1    0    0    0  501 -0.00000000000E+00 -0.00000000000E+00 -0.79084838248E+03  0.79084838248E+03  0.00000000000E+00 0.  1.
         23    2    1    2    0    0  0.10868150066E+03 -0.18242286188E+03 -0.34768496106E+03  0.42617183714E+03  0.12509130067E+03 0.  0.
         23    2    1    2    0    0 -0.10868150066E+03  0.18242286188E+03 -0.37069582323E+03  0.43714414353E+03  0.92681388305E+02 0.  0.
          5    1    3    3  502    0  0.47055888290E+02  0.17558857421E+01 -0.10622063721E+03  0.11626536856E+03  0.41800000000E+01 0.  1.
         -5    1    3    3    0  502  0.61625612367E+02 -0.18417874762E+03 -0.24146432386E+03  0.30990646858E+03  0.41800000000E+01 0.  1.
        -11    1    4    4    0    0 -0.47361057200E+02  0.38391962620E+02 -0.44981914012E+02  0.75765329282E+02  0.00000000000E+00 0.  1.
         11    1    4    4    0    0 -0.61320443457E+02  0.14403089926E+03 -0.32571390922E+03  0.36137881425E+03  0.00000000000E+00 0. -1.
</event>
<event>
 7    1  0.5951278E-006  0.1234321E+03  0.7561462E-02  0.1237540E+00
          2   -1    0    0  501    0  0.00000000000E+00  0.00000000000E+00  0.63957979994E+03  0.63957979994E+03  0.00000000000E+00 0. -1.
         -2   -1    0    0    0  501 -0.00000000000E+00 -0.00000000000E+00 -0.39790480503E+02  0.39790480503E+02  0.00000000000E+00 0.  1.
         23    2    1    2    0    0  0.58533034751E+02  0.92028249723E+02  0.31863473668E+03  0.34855180496E+03  0.89805068990E+02 0.  0.
          5    1    1    2  502    0 -0.58282937597E+01 -0.28000531388E+02  0.23309077174E+03  0.23487609294E+03  0.41800000000E+01 0. -1.
         -5    1    1    2    0  502 -0.52704740991E+02 -0.64027718336E+02  0.48063811017E+02  0.95942382541E+02  0.41800000000E+01 0.  1.
        -11    1    3    3    0    0  0.78144918475E+02  0.80424455829E+02  0.29557724616E+03  0.31613387959E+03  0.00000000000E+00 0.  1.
         11    1    3    3    0    0 -0.19611883724E+02  0.11603793894E+02  0.23057490522E+02  0.32417925367E+02  0.00000000000E+00 0. -1.
</event>
<event>
 8    1  0.5951278E-006  0.1109591E+03  0.7561462E-02  0.1258804E+00
          1   -1    0    0  501    0  0.00000000000E+00  0.00000000000E+00  0.40603013545E+03  0.40603013545E+03  0.00000000000E+00 0. -1.
         -1   -1    0    0    0  501 -0.00000000000E+00 -0.00000000000E+00 -0.62606378315E+02  0.62606378315E+02  0.00000000000E+00 0.  1.
         23    2    1    2    0    0  0.59585862511E+02  0.29783013305E+02  0.37976873797E+02  0.14265559287E+03  0.12029493896E+03 0.  0.
         23    2    1    2    0    0 -0.59585862511E+02 -0.29783013305E+02  0.30544688334E+03  0.32598092090E+03  0.92348575278E+02 0.  0.
          5    1    3    3  502    0  0.54633933286E+02  0.57615976748E+02  0.65472948896E+02  0.10299828581E+03  0.41800000000E+01 0. -1.
         -5    1    3    3    0  502  0.49519292246E+01 -0.27832963443E+02 -0.27496075099E+02  0.39657307055E+02  0.41800000000E+01 0.  1.
        -11    1    4    4    0    0 -0.57862333500E+02  0.22084749624E+02  0.17033064287E+03  0.18124103759E+03  0.00000000000E+00 0. -1.
         11    1    4    4    0    0 -0.17235290102E+01 -0.51867762929E+02  0.13511624046E+03  0.14473988331E+03  0.00000000000E+00 0.  1.
</event>
<event>
 8    1  0.5951278E-006  0.1358988E+03  0.7561462E-02  0.1218956E+00
         -1   -1    0    0    0  501 -0.00000000000E+00  0.00000000000E+00  0.82004996924E+02  0.82004996924E+02  0.00000000000E+00 0.  1.
          1   -1    0    0  501    0  0.00000000000E+00 -0.00000000000E+00 -0.28981944194E+03  0.28981944194E+03  0.00000000000E+00 0. -1.
         23    2    1    2    0    0  0.94595927085E+02  0.54483794112E+02 -0.11275206042E+03  0.20069502134E+03  0.12509432929E+03 0.  0.
         23    2    1    2    0    0 -0.94595927085E+02 -0.54483794112E+02 -0.95062384595E+02  0.17112941752E+03  0.91277310074E+02 0.  0.
          5    1    3    3  502    0 -0.21488027003E+02  0.39967224441E+02 -0.14372008488E+02  0.47782228516E+02  0.41800000000E+01 0. -1.
         -5    1    3    3    0  502  0.11608395409E+03  0.14516569671E+02 -0.98380051934E+02  0.15291279283E+03  0.41800000000E+01 0. -1.
        -11    1    4    4    0    0 -0.43011546426E+02 -0.24530079318E+02  0.98121513194E+01  0.50477680521E+02  0.00000000000E+00 0.  1.
         11    1    4    4    0    0 -0.51584380660E+02 -0.29953714795E+02 -0.10487453591E+03  0.12065173700E+03  0.00000000000E+00 0. -1.
</event>
<event>
 8    1  0.5951278E-006  0.2281206E+03  0.7561462E-02  0.1127970E+00
          1   -1    0    0  501    0  0.00000000000E+00  0.00000000000E+00  0.52533894760E+03  0.52533894760E+03  0.00000000000E+00 0. -1.
         -1   -1    0    0    0  501 -0.00000000000E+00 -0.00000000000E+00 -0.10927185470E+03  0.10927185470E+03  0.00000000000E+00 0.  1.
         23    2    1    2    0    0  0.17756377424E+03  0.96313044358E+02  0.12508796886E+03  0.26851413237E+03  0.12509093850E+03 0.  0.
         23    2    1    2    0    0 -0.17756377424E+03 -0.96313044358E+02  0.29097912404E+03  0.36609666993E+03  0.92481482866E+02 0.  0.
          5    1    3    3  502    0  0.19309045644E+03  0.73958596609E+02  0.94568825589E+02  0.22740829702E+03  0.41800000000E+01 0.  1.
         -5    1    3    3    0  502 -0.15526682195E+02  0.22354447749E+02  0.30519143274E+02  0.41105835356E+02  0.41800000000E+01 0.  1.
        -11    1    4    4    0    0  0.80655818866E+01 -0.19307338025E+02  0.22404554838E+02  0.30656010671E+02  0.00000000000E+00 0.  1.
         11    1    4    4    0    0 -0.18562935613E+03 -0.77005706332E+02  0.26857456920E+03  0.33544065926E+03  0.00000000000E+00 0. -1.
</event>
<event>
 8    1  0.5951278E-006  0.1053574E+03  0.7561462E-02  0.1269417E+00
         -1   -1    0    0    0  501 -0.00000000000E+00  0.00000000000E+00  0.49805845188E+03  0.49805845188E+03  0.00000000000E+00 0.  1.
          1   -1    0    0  501    0  0.00000000000E+00 -0.00000000000E+00 -0.40201994238E+02  0.40201994238E+02  0.00000000000E+00 0. -1.
         23    2    1    2    0    0  0.72874529455E+02  0.10703396521E+02  0.36753478959E+03  0.39135806270E+03  0.11249023043E+03 0.  0.
         23    2    1    2    0    0 -0.72874529455E+02 -0.10703396521E+02  0.90321668054E+02  0.14690238342E+03  0.89426208651E+02 0.  0.
          5    1    3    3  502    0  0.95153833085E+01  0.46475587840E+02  0.67566960584E+02  0.82663712397E+02  0.41800000000E+01 0. -1.
         -5    1    3    3    0  502  0.63359146146E+02 -0.35772191320E+02  0.29996782900E+03  0.30869435030E+03  0.41800000000E+01 0.  1.
        -11    1    4    4    0    0  0.67605058283E+01 -0.80769722196E+01  0.61152012277E+02  0.62052482020E+02  0.00000000000E+00 0.  1.
         11    1    4    4    0    0 -0.79635035283E+02 -0.26264243011E+01  0.29169655776E+02  0.84849901398E+02  0.00000000000E+00 0. -1.
</event>
<event>
 7    1  0.5951278E-006  0.2819662E+03  0.7561462E-02  0.1094620E+00
         -2   -1    0    0    0  501 -0.00000000000E+00  0.00000000000E+00  0.10142194625E+03  0.10142194625E+03  0.00000000000E+00 0.  1.
          2   -1    0    0  501    0  0.00000000000E+00 -0.00000000000E+00 -0.96108924908E+03  0.96108924908E+03  0.00000000000E+00 0. -1.
         23    2    1    2    0    0 -0.24861111123E+03 -0.61231231474E+02 -0.61855812500E+03  0.67565924914E+03  0.91348336648E+02 0.  0.
          5    1    1    2  502    0  0.11917398997E+03 -0.45602318838E+02 -0.14581679494E+03  0.19380923986E+03  0.41800000000E+01 0. -1.
         -5    1    1    2    0  502  0.12943712126E+03  0.10683355031E+03 -0.95292382893E+02  0.19304270634E+03  0.41800000000E+01 0.  1.
        -11    1    3    3    0    0 -0.19520082313E+02  0.17420471134E+02 -0.99261309721E+02  0.10265142004E+03  0.00000000000E+00 0.  1.
         11    1    3    3    0    0 -0.22909102891E+03 -0.78651702609E+02 -0.51929681528E+03  0.57300782911E+03  0.00000000000E+00 0. -1.
</event>
<event>
 8    1  0.5951278E-006  0.1389263E+03  0.7561462E-02  0.1214781E+00
         -2   -1    0    0    0  501 -0.00000000000E+00  0.00000000000E+00  0.65529283023E+02  0.65529283023E+02  0.00000000000E+00 0.  1.
          2   -1    0    0  501    0  0.00000000000E+00 -0.00000000000E+00 -0.39472348232E+03  0.39472348232E+03  0.00000000000E+00 0. -1.
         23    2    1    2    0    0  0.11521098356E+03 -0.21518691423E+02 -0.20417881709E+03  0.26659517541E+03  0.12508946154E+03 0.  0.
         23    2    1    2    0    0 -0.11521098356E+03  0.21518691423E+02 -0.12501538220E+03  0.19365758993E+03  0.90209708655E+02 0.  0.
          5    1    3    3  502    0  0.11556848343E+03 -0.33702094236E+01 -0.21564664061E+03  0.24472102215E+03  0.41800000000E+01 0. -1.
         -5    1    3    3    0  502 -0.35749986921E+00 -0.18148481999E+02  0.11467823514E+02  0.21874153268E+02  0.41800000000E+01 0. -1.
        -11    1    4    4    0    0 -0.12667636382E+03  0.96704886965E+01 -0.92338093080E+02  0.15705649600E+03  0.00000000000E+00 0.  1.
         11    1    4    4    0    0  0.11465380257E+02  0.11848202726E+02 -0.32677289125E+02  0.36601093930E+02  0.00000000000E+00 0. -1.
</event>
<event>
 8    1  0.5951278E-006  0.1006131E+03  0.7561462E-02  0.1279012E+00
         -1   -1    0    0    0  501 -0.00000000000E+00  0.00000000000E+00  0.39470734500E+03  0.39470734500E+03  0.00000000000E+00 0.  1.
          1   -1    0    0  501    0  0.00000000000E+00 -0.00000000000E+00 -0.47741582927E+02  0.47741582927E+02  0.00000000000E+00 0. -1.
         23    2    1    2    0    0  0.69516033731E+02  0.39080584276E+02  0.21922778886E+03  0.26470427342E+03  0.12509099865E+03 0.  0.
         23    2    1    2    0    0 -0.69516033731E+02 -0.39080584276E+02  0.12773797321E+03  0.17774465451E+03  0.94426698515E+02 0.  0.
          5    1    3    3  502    0  0.28875979670E+02 -0.10130714226E+02 -0.52178020201E+01  0.31323336836E+02  0.41800000000E+01 0. -1.
         -5    1    3    3    0  502  0.40640054061E+02  0.49211298502E+02  0.22444559088E+03  0.23338093658E+03  0.41800000000E+01 0. -1.
        -11    1    4    4    0    0  0.74040430746E+01  0.11960473745E+02 -0.59565023101E+01  0.15275886417E+02  0.00000000000E+00 0. -1.
         11    1    4    4    0    0 -0.76920076806E+02 -0.51041058021E+02  0.13369447552E+03  0.16246876809E+03  0.00000000000E+00 0.  1.
</event>
<event>
 8    1  0.5951278E-006  0.2888998E+03  0.7561462E-02  0.1090925E+00
          2   -1    0    0  501    0  0.00000000000E+00  0.00000000000E+00  0.44565821063E+03  0.44565821063E+03  0.00000000000E+00 0. -1.
         -2   -1    0    0    0  501 -0.00000000000E+00 -0.00000000000E+00 -0.19517829373E+03  0.19517829373E+03  0.00000000000E+00 0.  1.
         23    2    1    2    0    0 -0.18653334625E+03 -0.20053262326E+03  0.14790126989E+03  0.33545561909E+03  0.12509062509E+03 0.  0.
         23    2    1    2    0    0  0.18653334625E+03  0.20053262326E+03  0.10257864701E+03  0.30538088528E+03  0.87903833901E+02 0.  0.
          5    1    3    3  502    0 -0.27514666095E+02 -0.10231201126E+03  0.17371869250E+02  0.10744328150E+03  0.41800000000E+01 0.  1.
         -5    1    3    3    0  502 -0.15901868015E+03 -0.98220612004E+02  0.13052940064E+03  0.22801233759E+03  0.41800000000E+01 0.  1.
        -11    1    4    4    0    0  0.13711327409E+03  0.18996465812E+03  0.67319443269E+02  0.24375916128E+03  0.00000000000E+00 0.  1.
         11    1    4    4    0    0  0.49420072163E+02  0.10567965141E+02  0.35259203744E+02  0.61621723998E+02  0.00000000000E+00 0. -1.
</event>
<event>
 8    1  0.5951278E-006  0.1190900E+03  0.7561462E-02  0.1244606E+00
         -3   -1    0    0    0  501 -0.00000000000E+00  0.00000000000E+00  0.73053907915E+02  0.73053907915E+02  0.00000000000E+00 0.  1.
          3   -1    0    0  501    0  0.00000000000E+00 -0.00000000000E+00 -0.26847260111E+03  0.26847260111E+03  0.00000000000E+00 0. -1.
         23    2    1    2    0    0 -0.58931765272E+02 -0.10962895015E+01 -0.16985695016E+02  0.13211746394E+03  0.11701433943E+03 0.  0.
         23    2    1    2    0    0  0.58931765272E+02  0.10962895015E+01 -0.17843299818E+03  0.20940904509E+03  0.92410272789E+02 0.  0.
          5    1    3    3  502    0 -0.34784574121E+02 -0.58245708185E+02 -0.12803123125E+01  0.67982650128E+02  0.41800000000E+01 0. -1.
         -5    1    3    3    0  502 -0.24147191151E+02  0.57149418684E+02 -0.15705382703E+02  0.64134813808E+02  0.41800000000E+01 0.  1.
        -11    1    4    4    0    0 -0.47782026752E+01  0.35364512810E+02 -0.76506358623E+02  0.84419801569E+02  0.00000000000E+00 0.  1.
         11    1    4    4    0    0  0.63709967948E+02 -0.34268223308E+02 -0.10192663955E+03  0.12498924352E+03  0.00000000000E+00 0. -1.
</event>
<event>
 8    1  0.5951278E-006  0.1121783E+03  0.7561462E-02  0.1256588E+00
          1   -1    0    0  501    0  0.00000000000E+00  0.00000000000E+00  0.34789825798E+02  0.34789825798E+02  0.00000000000E+00 0. -1.
         -1   -1    0    0    0  501 -0.00000000000E+00 -0.00000000000E+00 -0.60190758188E+03  0.60190758188E+03  0.00000000000E+00 0.  1.
         23    2    1    2    0    0  0.68305726570E+02 -0.34596127066E+02 -0.38615834841E+03  0.41307114290E+03  0.12508770827E+03 0.  0.
         23    2    1    2    0    0 -0.68305726570E+02  0.34596127066E+02 -0.18095940767E+03  0.22362626478E+03  0.10677000882E+03 0.  0.
          5    1    3    3  502    0  0.56701743413E+02  0.14262913294E+02 -0.33908069113E+03  0.34411002005E+03  0.41800000000E+01 0. -1.
         -5    1    3    3    0  502  0.11603983157E+02 -0.48859040360E+02 -0.47077657287E+02  0.68961122856E+02  0.41800000000E+01 0. -1.
        -11    1    4    4    0    0 -0.27726887674E+02 -0.28863234059E+02 -0.17569995974E+02  0.43710082807E+02  0.00000000000E+00 0.  1.
         11    1    4    4    0    0 -0.40578838895E+02  0.63459361125E+02 -0.16338941170E+03  0.17991618197E+03  0.00000000000E+00 0. -1.
</event>
<event>
 8    1  0.5951278E-006  0.9955468E+02  0.7561462E-02  0.1281235E+00
          1   -1    0    0  501    0  0.00000000000E+00  0.00000000000E+00  0.20361272253E+03  0.20361272253E+03  0.00000000000E+00 0. -1.
         -1   -1    0    0    0  501 -0.00000000000E+00 -0.00000000000E+00 -0.62801360974E+02  0.62801360974E+02  0.00000000000E+00 0.  1.
         23    2    1    2    0    0 -0.12964533332E+01  0.17384883344E+02  0.47214745122E+02  0.13483504148E+03  0.12508933325E+03 0.  0.
         23    2    1    2    0    0  0.12964533332E+01 -0.17384883344E+02  0.93596616432E+02  0.13157904202E+03  0.90822919637E+02 0.  0.
          5    1    3    3  502    0 -0.56600615586E+02 -0.16692765173E+02  0.10446340604E+02  0.60073925507E+02  0.41800000000E+01 0.  1.
         -5    1    3    3    0  502  0.55304162253E+02  0.34077648516E+02  0.36768404518E+02  0.74761115974E+02  0.41800000000E+01 0.  1.
        -11    1    4    4    0    0  0.28715902644E+02  0.15020312299E+02  0.42801377901E+01  0.32688414243E+02  0.00000000000E+00 0.  1.
         11    1    4    4    0    0 -0.27419449311E+02 -0.32405195643E+02  0.89316478642E+02  0.98890627777E+02  0.00000000000E+00 0. -1.
</event>
<event>
 8    1  0.5951278E-006  0.2372902E+03  0.7561462E-02  0.1121611E+00
         -2   -1    0    0    0  501 -0.00000000000E+00  0.00000000000E+00  0.54069047532E+02  0.54069047532E+02  0.00000000000E+00 0.  1.
          2   -1    0    0  501    0  0.00000000000E+00 -0.00000000000E+00 -0.11663238759E+04  0.11663238759E+04  0.00000000000E+00 0. -1.
         23    2    1    2    0    0  0.16435418899E+03 -0.14824342413E+03 -0.45765118323E+03  0.52352774769E+03  0.12509310473E+03 0.  0.
         23    2    1    2    0    0 -0.16435418899E+03  0.14824342413E+03 -0.65460364510E+03  0.69686517570E+03  0.90148370476E+02 0.  0.
          5    1    3    3  502    0  0.16653736010E+03 -0.10032538496E+03 -0.41847939572E+03  0.46145677178E+03  0.41800000000E+01 0.  1.
         -5    1    3    3    0  502 -0.21831711088E+01 -0.47918039168E+02 -0.39171787510E+02  0.62070975911E+02  0.41800000000E+01 0.  1.
        -11    1    4    4    0    0 -0.49145803665E+02  0.90758482943E+02 -0.37671916006E+03  0.39060176369E+03  0.00000000000E+00 0.  1.
         11    1    4    4    0    0 -0.11520838533E+03  0.57484941182E+02 -0.27788448503E+03  0.30626341201E+03  0.00000000000E+00 0. -1.
</event>
<event>
 8    1  0.5951278E-006  0.9091367E+02  0.7561462E-02  0.1300654E+00
         -1   -1    0    0    0  501 -0.00000000000E+00  0.00000000000E+00  0.74070293117E+02  0.74070293117E+02  0.00000000000E+00 0.  1.
          1   -1    0    0  501    0  0.00000000000E+00 -0.00000000000E+00 -0.33290275145E+03  0.33290275145E+03  0.00000000000E+00 0. -1.
         23    2    1    2    0    0 -0.18339651554E+02  0.77318848869E+02 -0.34394030261E+02  0.15213669597E+03  0.12509227688E+03 0.  0.
         23    2    1    2    0    0  0.18339651554E+02 -0.77318848869E+02 -0.22443842807E+03  0.25483634859E+03  0.90853780102E+02 0.  0.
          5    1    3    3  502    0  0.62814549783E+01 -0.64270069961E+01  0.37616268187E+02  0.38900117325E+02  0.41800000000E+01 0.  1.
         -5    1    3    3    0  502 -0.24621106532E+02  0.83745855866E+02 -0.72010298448E+02  0.11323657865E+03  0.41800000000E+01 0.  1.
        -11    1    4    4    0    0 -0.71884358109E+01 -0.29002847471E+02 -0.70714655153E+01  0.30705771369E+02  0.00000000000E+00 0.  1.
         11    1    4    4    0    0  0.25528087365E+02 -0.48316001399E+02 -0.21736696255E+03  0.22413057722E+03  0.00000000000E+00 0. -1.
</event>
<event>
 8    1  0.5951278E-006  0.8711791E+02  0.7561462E-02  0.1309985E+00
          1   -1    0    0  501    0  0.00000000000E+00  0.00000000000E+00  0.33020767700E+03  0.33020767700E+03  0.00000000000E+00 0. -1.
         -1   -1    0    0    0  501 -0.00000000000E+00 -0.00000000000E+00 -0.59219784912E+02  0.59219784912E+02  0.00000000000E+00 0.  1.
         23    2    1    2    0    0  0.42574108297E+02  0.49868584454E+02  0.67057668703E+02  0.15634728288E+03  0.12509321132E+03 0.  0.
         23    2    1    2    0    0 -0.42574108297E+02 -0.49868584454E+02  0.20393022338E+03  0.23308017903E+03  0.91866225766E+02 0.  0.
          5    1    3    3  502    0  0.30031925369E+02 -0.55182900224E+01 -0.30517341114E+02  0.43372209707E+02  0.41800000000E+01 0. -1.
         -5    1    3    3    0  502  0.12542182928E+02  0.55386874476E+02  0.97575009818E+02  0.11297507317E+03  0.41800000000E+01 0. -1.
        -11    1    4    4    0    0  0.13678135567E+02 -0.51628078833E+01 -0.22007252083E+01  0.14784761387E+02  0.00000000000E+00 0.  1.
         11    1    4    4    0    0 -0.56252243864E+02 -0.44705776570E+02  0.20613094859E+03  0.21829541764E+03  0.00000000000E+00 0. -1.
</event>
<event>
 8    1  0.5951278E-006  0.7130834E+02  0.7561462E-02  0.1355700E+00
          1   -1    0    0  501    0  0.00000000000E+00  0.00000000000E+00  0.22714945194E+03  0.22714945194E+03  0.00000000000E+00 0. -1.
         -1   -1    0    0    0  501 -0.00000000000E+00 -0.00000000000E+00 -0.51586144500E+02  0.51586144500E+02  0.00000000000E+00 0.  1.
         23    2    1    2    0    0 -0.73277225718E+01 -0.40952864798E+01  0.91525379638E+02  0.15522618955E+03  0.12509119840E+03 0.  0.
         23    2    1    2    0    0  0.73277225718E+01  0.40952864798E+01  0.84037927807E+02  0.12350940689E+03  0.90120660178E+02 0.  0.
          5    1    3    3  502    0 -0.75172907529E+01  0.23518789020E+02 -0.25009052042E+02  0.35391639991E+02  0.41800000000E+01 0.  1.
         -5    1    3    3    0  502  0.18956818110E+00 -0.27614075500E+02  0.11653443168E+03  0.11983454956E+03  0.41800000000E+01 0.  1.
        -11    1    4    4    0    0 -0.15000876678E+02  0.42583784593E+02  0.33798548006E+02  0.56398110418E+02  0.00000000000E+00 0.  1.
         11    1    4    4    0    0  0.22328599249E+02 -0.38488498114E+02  0.50239379801E+02  0.67111296473E+02  0.00000000000E+00 0. -1.
</event>
<event>
 8    1  0.5951278E-006  0.1128774E+03  0.7561462E-02  0.1255332E+00
         -3   -1    0    0    0  501 -0.00000000000E+00  0.00000000000E+00  0.19973269422E+03  0.19973269422E+03  0.00000000000E+00 0.  1.
          3   -1    0    0  501    0  0.00000000000E+00 -0.00000000000E+00 -0.67703630362E+02  0.67703630362E+02  0.00000000000E+00 0. -1.
         23    2    1    2    0    0 -0.20586787142E+02 -0.13653436781E+02  0.86265483451E+02  0.15394080473E+03  0.12508319466E+03 0.  0.
         23    2    1    2    0    0  0.20586787142E+02  0.13653436781E+02  0.45763580410E+02  0.11349551985E+03  0.10087960941E+03 0.  0.
          5    1    3    3  502    0 -0.70387110599E+02 -0.25620132300E+02  0.60926680894E+02  0.96645069001E+02  0.41800000000E+01 0. -1.
         -5    1    3    3    0  502  0.49800323457E+02  0.11966695519E+02  0.25338802557E+02  0.57295735732E+02  0.41800000000E+01 0. -1.
        -11    1    4    4    0    0 -0.22582181058E+02  0.42010747489E+02  0.55107016518E+01  0.48012765372E+02  0.00000000000E+00 0. -1.
         11    1    4    4    0    0  0.43168968200E+02 -0.28357310708E+02  0.40252878758E+02  0.65482754481E+02  0.00000000000E+00 0.  1.
</event>
<event>
 8    1  0.5951278E-006  0.8992862E+02  0.7561462E-02  0.1303025E+00
          1   -1    0    0  501    0  0.00000000000E+00  0.00000000000E+00  0.87769726631E+02  0.87769726631E+02  0.00000000000E+00 0. -1.
         -1   -1    0    0    0  501 -0.00000000000E+00 -0.00000000000E+00 -0.15938186781E+03  0.15938186781E+03  0.00000000000E+00 0.  1.
         23    2    1    2    0    0 -0.29927061295E+02 -0.19722410553E+02 -0.65165177984E+02  0.14553881955E+03  0.12510173899E+03 0.  0.
         23    2    1    2    0    0  0.29927061295E+02  0.19722410553E+02 -0.64469631922E+01  0.10161277489E+03  0.94863007596E+02 0.  0.
          5    1    3    3  502    0  0.10109877972E+02  0.23548466027E+02  0.26095568530E+02  0.36812918680E+02  0.41800000000E+01 0.  1.
         -5    1    3    3    0  502 -0.40036939267E+02 -0.43270876580E+02 -0.91260746514E+02  0.10872590087E+03  0.41800000000E+01 0.  1.
        -11    1    4    4    0    0  0.61318942225E+02  0.13574783257E+02 -0.21336582575E+02  0.66329007018E+02  0.00000000000E+00 0.  1.
         11    1    4    4    0    0 -0.31391880930E+02  0.61476272957E+01  0.14889619382E+02  0.35283767869E+02  0.00000000000E+00 0. -1.
</event>
<event>
 8    1  0.5951278E-006  0.1201706E+03  0.7561462E-02  0.1242816E+00
          3   -1    0    0  501    0  0.00000000000E+00  0.00000000000E+00  0.26790643315E+02  0.26790643315E+02  0.00000000000E+00 0. -1.
         -3   -1    0    0    0  501 -0.00000000000E+00 -0.00000000000E+00 -0.63200705204E+03  0.63200705204E+03  0.00000000000E+00 0.  1.
         23    2    1    2    0    0 -0.62416138660E+02  0.28961558650E+02 -0.35252790785E+03  0.38034035858E+03  0.12509323047E+03 0.  0.
         23    2    1    2    0    0  0.62416138660E+02 -0.28961558650E+02 -0.25268850088E+03  0.27845733677E+03  0.94617459711E+02 0.  0.
          5    1    3    3  502    0 -0.92309462819E+02 -0.23275541855E+01 -0.17909522577E+03  0.20154162530E+03  0.41800000000E+01 0. -1.
         -5    1    3    3    0  502  0.29893324158E+02  0.31289112836E+02 -0.17343268208E+03  0.17879873328E+03  0.41800000000E+01 0. -1.
        -11    1    4    4    0    0 -0.18887784348E+02 -0.76804652267E+01 -0.11763679210E+03  0.11939075676E+03  0.00000000000E+00 0.  1.
         11    1    4    4    0    0  0.81303923008E+02 -0.21281093423E+02 -0.13505170878E+03  0.15906658001E+03  0.00000000000E+00 0. -1.
</event>
<event>
 8    1  0.5951278E-006  0.1251032E+03  0.7561462E-02  0.1234908E+00
          3   -1    0    0  501    0  0.00000000000E+00  0.00000000000E+00  0.37967435244E+02  0.37967435244E+02  0.00000000000E+00 0. -1.
         -3   -1    0    0    0  501 -0.00000000000E+00 -0.00000000000E+00 -0.55287588010E+03  0.55287588010E+03  0.00000000000E+00 0.  1.
         23    2    1    2    0    0  0.87465437684E+02 -0.29315066109E+02 -0.31000087042E+03  0.34678211532E+03  0.12509084681E+03 0.  0.
         23    2    1    2    0    0 -0.87465437684E+02  0.29315066109E+02 -0.20490757444E+03  0.24406120003E+03  0.95232239316E+02 0.  0.
          5    1    3    3  502    0  0.10732391351E+03 -0.10565983357E+02 -0.15219991832E+03  0.18658067947E+03  0.41800000000E+01 0. -1.
         -5    1    3    3    0  502 -0.19858475821E+02 -0.18749082752E+02 -0.15780095210E+03  0.16020143585E+03  0.41800000000E+01 0. -1.
        -11    1    4    4    0    0 -0.12823567533E+02  0.37435948229E+02 -0.19680556232E+02  0.44195230486E+02  0.00000000000E+00 0. -1.
         11    1    4    4    0    0 -0.74641870151E+02 -0.81208821201E+01 -0.18522701821E+03  0.19986596954E+03  0.00000000000E+00 0.  1.
</event>
<event>
 8    1  0.5951278E-006  0.7030704E+02  0.7561462E-02  0.1359052E+00
          1   -1    0    0  501    0  0.00000000000E+00  0.00000000000E+00  0.37937701384E+03  0.37937701384E+03  0.00000000000E+00 0. -1.
         -1   -1    0    0    0  501 -0.00000000000E+00 -0.00000000000E+00 -0.45050057209E+02  0.45050057209E+02  0.00000000000E+00 0.  1.
         23    2    1    2    0    0  0.24654342890E+02 -0.38076274409E+02  0.87384856801E+02  0.14977591097E+03  0.11286749317E+03 0.  0.
         23    2    1    2    0    0 -0.24654342890E+02  0.38076274409E+02  0.24694209983E+03  0.27465116007E+03  0.11133382130E+03 0.  0.
          5    1    3    3  502    0  0.12612039319E+02 -0.10520670507E+02  0.11039004259E+03  0.11168340049E+03  0.41800000000E+01 0. -1.
         -5    1    3    3    0  502  0.12042303571E+02 -0.27555603901E+02 -0.23005185785E+02  0.38092510480E+02  0.41800000000E+01 0.  1.
        -11    1    4    4    0    0 -0.23090041540E+01  0.61145046316E+02  0.23066972127E+03  0.23864737271E+03  0.00000000000E+00 0. -1.
         11    1    4    4    0    0 -0.22345338736E+02 -0.23068771907E+02  0.16272378553E+02  0.36003787361E+02  0.00000000000E+00 0.  1.
</event>
<event>
 8    1  0.5951278E-006  0.1512616E+03  0.7561462E-02  0.1198931E+00
          2   -1    0    0  501    0  0.00000000000E+00  0.00000000000E+00  0.27405920202E+03  0.27405920202E+03  0.00000000000E+00 0. -1.
         -2   -1    0    0    0  501 -0.00000000000E+00 -0.00000000000E+00 -0.10973731077E+03  0.10973731077E+03  0.00000000000E+00 0.  1.
         23    2    1    2    0    0 -0.72333207711E+02  0.10498584414E+03  0.16057216642E+02  0.17933086182E+03  0.12509038087E+03 0.  0.
         23    2    1    2    0    0  0.72333207711E+02 -0.10498584414E+03  0.14826467461E+03  0.20446565098E+03  0.59746701048E+02 0.  0.
          5    1    3    3  502    0 -0.98410666628E+01 -0.19776860898E+02 -0.25190093613E+02  0.33763649629E+02  0.41800000000E+01 0.  1.
         -5    1    3    3    0  502 -0.62492141048E+02  0.12476270504E+03  0.41247310255E+02  0.14556721219E+03  0.41800000000E+01 0.  1.
        -11    1    4    4    0    0  0.67172976855E+02 -0.46430492420E+02  0.93323832688E+02  0.12400539179E+03  0.00000000000E+00 0. -1.
         11    1    4    4    0    0  0.51602308561E+01 -0.58555351721E+02  0.54940841920E+02  0.80460259188E+02  0.00000000000E+00 0.  1.
</event>
<event>
 8    1  0.5951278E-006  0.1035204E+03  0.7561462E-02  0.1273063E+00
          2   -1    0    0  501    0  0.00000000000E+00  0.00000000000E+00  0.62016811646E+02  0.62016811646E+02  0.00000000000E+00 0. -1.
         -2   -1    0    0    0  501 -0.00000000000E+00 -0.00000000000E+00 -0.31315254237E+03  0.31315254237E+03  0.00000000000E+00 0.  1.
         23    2    1    2    0    0  0.67629683619E+02 -0.44563414908E+02 -0.18610014685E+03  0.23841200975E+03  0.12508936677E+03 0.  0.
         23    2    1    2    0    0 -0.67629683619E+02  0.44563414908E+02 -0.65035583871E+02  0.13675734427E+03  0.88956573601E+02 0.  0.
          5    1    3    3  502    0 -0.83022115220E+01 -0.12658216961E+02 -0.14576387840E+03  0.14660742757E+03  0.41800000000E+01 0.  1.
         -5    1    3    3    0  502  0.75931895141E+02 -0.31905197947E+02 -0.40336268449E+02  0.91804582174E+02  0.41800000000E+01 0.  1.
        -11    1    4    4    0    0 -0.44342733829E+02 -0.13464216081E+02  0.27394691571E+00  0.46342617589E+02  0.00000000000E+00 0. -1.
         11    1    4    4    0    0 -0.23286949790E+02  0.58027630989E+02 -0.65309530786E+02  0.90414726678E+02  0.00000000000E+00 0.  1.
</event>
<event>
 8    1  0.5951278E-006  0.7850080E+02  0.7561462E-02  0.1333361E+00
          1   -1    0    0  501    0  0.00000000000E+00  0.00000000000E+00  0.54311590427E+03  0.54311590427E+03  0.00000000000E+00 0. -1.
         -1   -1    0    0    0  501 -0.00000000000E+00 -0.00000000000E+00 -0.91604999065E+02  0.91604999065E+02  0.00000000000E+00 0.  1.
         23    2    1    2    0    0  0.22920982682E+02 -0.52656128820E+01 -0.49796920504E+02  0.12465715490E+03  0.11183279864E+03 0.  0.
         23    2    1    2    0    0 -0.22920982682E+02  0.52656128820E+01  0.50130782571E+03  0.51006374843E+03  0.91117469350E+02 0.  0.
          5    1    3    3  502    0  0.25755662751E+02  0.22698035250E+02 -0.77565446710E+02  0.84926002445E+02  0.41800000000E+01 0.  1.
         -5    1    3    3    0  502 -0.28346800693E+01 -0.27963648132E+02  0.27768526207E+02  0.39731152458E+02  0.41800000000E+01 0. -1.
        -11    1    4    4    0    0 -0.47030582879E+02  0.32849264780E+02  0.31737838044E+03  0.32252129588E+03  0.00000000000E+00 0. -1.
         11    1    4    4    0    0  0.24109600197E+02 -0.27583651898E+02  0.18392944527E+03  0.18754245256E+03  0.00000000000E+00 0.  1.
</event>
<event>
 8    1  0.5951278E-006  0.1703525E+03  0.7561462E-02  0.1177481E+00
          2   -1    0    0  501    0  0.00000000000E+00  0.00000000000E+00  0.84192129077E+03  0.84192129077E+03  0.00000000000E+00 0. -1.
         -2   -1    0    0    0  501 -0.00000000000E+00 -0.00000000000E+00 -0.14770395021E+03  0.14770395021E+03  0.00000000000E+00 0.  1.
         23    2    1    2    0    0 -0.14104354487E+03 -0.89439966646E+02 -0.59461164330E+02  0.21199618536E+03  0.11624957359E+03 0.  0.
         23    2    1    2    0    0  0.14104354487E+03  0.89439966646E+02  0.75367850490E+03  0.77762905562E+03  0.93716968681E+02 0.  0.
          5    1    3    3  502    0 -0.47893257939E+02 -0.62971619790E+01  0.31182659263E+02  0.57647628257E+02  0.41800000000E+01 0. -1.
         -5    1    3    3    0  502 -0.93150286933E+02 -0.83142804667E+02 -0.90643823593E+02  0.15434855710E+03  0.41800000000E+01 0.  1.
        -11    1    4    4    0    0  0.12448486643E+03  0.75088857450E+02  0.73373926479E+03  0.74800275881E+03  0.00000000000E+00 0. -1.
         11    1    4    4    0    0  0.16558678446E+02  0.14351109196E+02  0.19939240102E+02  0.29626296813E+02  0.00000000000E+00 0.  1.
</event>
<event>
 8    1  0.5951278E-006  0.7016213E+02  0.7561462E-02  0.1359543E+00
         -3   -1    0    0    0  501 -0.00000000000E+00  0.00000000000E+00  0.23187111773E+03  0.23187111773E+03  0.00000000000E+00 0.  1.
          3   -1    0    0  501    0  0.00000000000E+00 -0.00000000000E+00 -0.12794905906E+03  0.12794905906E+03  0.00000000000E+00 0. -1.
         23    2    1    2    0    0 -0.43864190983E+02 -0.15822635150E+00  0.18676964035E+03  0.22902963006E+03  0.12509028982E+03 0.  0.
         23    2    1    2    0    0  0.43864190983E+02  0.15822635150E+00 -0.82847581676E+02  0.13079054673E+03  0.91205005561E+02 0.  0.
          5    1    3    3  502    0 -0.64383878966E+02  0.17950107233E+02  0.18971536208E+03  0.20118867073E+03  0.41800000000E+01 0. -1.
         -5    1    3    3    0  502  0.20519687983E+02 -0.18108333585E+02 -0.29457217348E+01  0.27840959335E+02  0.41800000000E+01 0. -1.
        -11    1    4    4    0    0  0.19246570950E+02 -0.62424449120E+01 -0.98743978036E+02  0.10079569341E+03  0.00000000000E+00 0. -1.
         11    1    4    4    0    0  0.24617620033E+02  0.64006712635E+01  0.15896396360E+02  0.29994853324E+02  0.00000000000E+00 0.  1.
</event>
<event>
 8    1  0.5951278E-006  0.1083032E+03  0.7561462E-02  0.1263745E+00
          1   -1    0    0  501    0  0.00000000000E+00  0.00000000000E+00  0.22926495471E+03  0.22926495471E+03  0.00000000000E+00 0. -1.
         -1   -1    0    0    0  501 -0.00000000000E+00 -0.00000000000E+00 -0.56577793730E+02  0.56577793730E+02  0.00000000000E+00 0.  1.
         23    2    1    2    0    0  0.10305720629E+02  0.16141108709E+02  0.60464084521E+02  0.14024934700E+03  0.12508889059E+03 0.  0.
         23    2    1    2    0    0 -0.10305720629E+02 -0.16141108709E+02  0.11222307646E+03  0.14559340144E+03  0.90756136895E+02 0.  0.
          5    1    3    3  502    0 -0.49399295104E+02 -0.20589212349E+02  0.40494803013E+02  0.67242155625E+02  0.41800000000E+01 0.  1.
         -5    1    3    3    0  502  0.59705015733E+02  0.36730321059E+02  0.19969281507E+02  0.73007191376E+02  0.41800000000E+01 0.  1.
        -11    1    4    4    0    0  0.11416941017E+02 -0.50652493003E+02  0.60415915157E+02  0.79662440296E+02  0.00000000000E+00 0. -1.
         11    1    4    4    0    0 -0.21722661646E+02  0.34511384294E+02  0.51807161300E+02  0.65930961140E+02  0.00000000000E+00 0.  1.
</event>
<event>
 8    1  0.5951278E-006  0.8043769E+02  0.7561462E-02  0.1327814E+00
          1   -1    0    0  501    0  0.00000000000E+00  0.00000000000E+00  0.22009866321E+03  0.22009866321E+03  0.00000000000E+00 0. -1.
         -1   -1    0    0    0  501 -0.00000000000E+00 -0.00000000000E+00 -0.67689681218E+02  0.67689681218E+02  0.00000000000E+00 0.  1.
         23    2    1    2    0    0  0.47257426260E+02 -0.30000550158E+02  0.40357682580E+02  0.13321344972E+03  0.11394640537E+03 0.  0.
         23    2    1    2    0    0 -0.47257426260E+02  0.30000550158E+02  0.11205129941E+03  0.15457489471E+03  0.90579285870E+02 0.  0.
          5    1    3    3  502    0 -0.21191290408E+00 -0.59215889422E+01  0.71190605313E+02  0.71558960358E+02  0.41800000000E+01 0. -1.
         -5    1    3    3    0  502  0.47469339164E+02 -0.24078961215E+02 -0.30832922734E+02  0.61654489359E+02  0.41800000000E+01 0.  1.
        -11    1    4    4    0    0 -0.11290739545E+01  0.49959142483E+02  0.81964924545E+02  0.95997081108E+02  0.00000000000E+00 0. -1.
         11    1    4    4    0    0 -0.46128352305E+02 -0.19958592325E+02  0.30086374870E+02  0.58577813605E+02  0.00000000000E+00 0.  1.
</event>
<event>
 8    1  0.5951278E-006  0.1336368E+03  0.7561462E-02  0.1222157E+00
          2   -1    0    0  501    0  0.00000000000E+00  0.00000000000E+00  0.22591757805E+03  0.22591757805E+03  0.00000000000E+00 0. -1.
         -2   -1    0    0    0  501 -0.00000000000E+00 -0.00000000000E+00 -0.10578850911E+03  0.10578850911E+03  0.00000000000E+00 0.  1.
         23    2    1    2    0    0 -0.10099223385E+03 -0.40192348660E+02  0.45769600618E+02  0.17193131637E+03  0.12510261795E+03 0.  0.
         23    2    1    2    0    0  0.10099223385E+03  0.40192348660E+02  0.74359468315E+02  0.15977477079E+03  0.90464306024E+02 0.  0.
          5    1    3    3  502    0 -0.89832957172E+02  0.57847840916E+01 -0.18520388253E+02  0.91999462511E+02  0.41800000000E+01 0. -1.
         -5    1    3    3    0  502 -0.11159276677E+02 -0.45977132751E+02  0.64289988871E+02  0.79931853857E+02  0.41800000000E+01 0. -1.
        -11    1    4    4    0    0  0.34230025494E+02 -0.20107259815E+02  0.54870311143E+02  0.67725531283E+02  0.00000000000E+00 0. -1.
         11    1    4    4    0    0  0.66762208355E+02  0.60299608475E+02  0.19489157172E+02  0.92049239508E+02  0.00000000000E+00 0.  1.
</event>
<event>
 8    1  0.5951278E-006  0.1757873E+03  0.7561462E-02  0.1171944E+00
          1   -1    0    0  501    0  0.00000000000E+00  0.00000000000E+00  0.70515950620E+03  0.70515950620E+03  0.00000000000E+00 0. -1.
         -1   -1    0    0    0  501 -0.00000000000E+00 -0.00000000000E+00 -0.45534200782E+02  0.45534200782E+02  0.00000000000E+00 0.  1.
         23    2    1    2    0    0 -0.13518434148E+03 -0.12343083132E+01  0.29457475312E+03  0.34741582197E+03  0.12508852258E+03 0.  0.
         23    2    1    2    0    0  0.13518434148E+03  0.12343083132E+01  0.36505055230E+03  0.40327788501E+03  0.10533193773E+03 0.  0.
          5    1    3    3  502    0 -0.23173610714E+02  0.51779099861E+02  0.12510559196E+03  0.13742988378E+03  0.41800000000E+01 0.  1.
         -5    1    3    3    0  502 -0.11201073077E+03 -0.53013408174E+02  0.16946916117E+03  0.20998593820E+03  0.41800000000E+01 0.  1.
        -11    1    4    4    0    0  0.39039688831E+02  0.49562746993E+02  0.15263940813E+03  0.16516462124E+03  0.00000000000E+00 0. -1.
         11    1    4    4    0    0  0.96144652654E+02 -0.48328438680E+02  0.21241114416E+03  0.23811326377E+03  0.00000000000E+00 0.  1.
</event>
<event>
 8    1  0.5951278E-006  0.1088221E+03  0.7561462E-02  0.1262767E+00
          1   -1    0    0  501    0  0.00000000000E+00  0.00000000000E+00  0.69983190384E+03  0.69983190384E+03  0.00000000000E+00 0. -1.
         -1   -1    0    0    0  501 -0.00000000000E+00 -0.00000000000E+00 -0.17139218064E+02  0.17139218064E+02  0.00000000000E+00 0.  1.
         23    2    1    2    0    0  0.50111236643E+01  0.11904864440E+02  0.35725044281E+03  0.37875011607E+03  0.12512767233E+03 0.  0.
         23    2    1    2    0    0 -0.50111236643E+01 -0.11904864440E+02  0.32544224297E+03  0.33822100583E+03  0.91180908745E+02 0.  0.
          5    1    3    3  502    0  0.60954862298E+02  0.28151794632E+02  0.19931037924E+03  0.21035712123E+03  0.41800000000E+01 0. -1.
         -5    1    3    3    0  502 -0.55943738634E+02 -0.16246930191E+02  0.15794006357E+03  0.16839299484E+03  0.41800000000E+01 0. -1.
        -11    1    4    4    0    0 -0.21986972512E+02 -0.47604785379E+02  0.17682145011E+03  0.18443282726E+03  0.00000000000E+00 0. -1.
         11    1    4    4    0    0  0.16975848847E+02  0.35699920939E+02  0.14862079285E+03  0.15378817857E+03  0.00000000000E+00 0.  1.
</event>
<event>
 7    1  0.5951278E-006  0.1112163E+03  0.7561462E-02  0.1258334E+00
          2   -1    0    0  501    0  0.00000000000E+00  0.00000000000E+00  0.71675645164E+03  0.71675645164E+03  0.00000000000E+00 0. -1.
         -2   -1    0    0    0  501 -0.00000000000E+00 -0.00000000000E+00 -0.23678962714E+02  0.23678962714E+02  0.00000000000E+00 0.  1.
         23    2    1    2    0    0  0.81529891910E+02  0.38460254381E+02  0.40947353756E+03  0.43844716861E+03  0.12822256923E+03 0.  0.
          5    1    3    3  502    0  0.10138668582E+02 -0.25631254763E+02  0.25526008573E+03  0.25677799281E+03  0.41800000000E+01 0. -1.
         -5    1    3    3    0  502  0.71391223328E+02  0.64091509145E+02  0.15421345182E+03  0.18166917580E+03  0.41800000000E+01 0.  1.
        -11    1    1    2    0    0 -0.45491955156E+02 -0.42504697620E+02  0.12969056965E+03  0.14386038774E+03  0.00000000000E+00 0. -1.
         11    1    1    2    0    0 -0.36037936754E+02  0.40444432388E+01  0.15391338172E+03  0.15812785801E+03  0.00000000000E+00 0.  1.
</event>
<event>
 8    1  0.5951278E-006  0.1109289E+03  0.7561462E-02  0.1258859E+00
         -1   -1    0    0    0  501 -0.00000000000E+00  0.00000000000E+00  0.18588169868E+02  0.18588169868E+02  0.00000000000E+00 0.  1.
          1   -1    0    0  501    0  0.00000000000E+00 -0.00000000000E+00 -0.74639440827E+03  0.74639440827E+03  0.00000000000E+00 0. -1.
         23    2    1    2    0    0 -0.43202943002E+02  0.43592355374E+01 -0.33563339671E+03  0.36080879323E+03  0.12509081127E+03 0.  0.
         23    2    1    2    0    0  0.43202943002E+02 -0.43592355374E+01 -0.39217284169E+03  0.40417378490E+03  0.87586605312E+02 0.  0.
          5    1    3    3  502    0 -0.78948076309E+02 -0.24534530505E+02 -0.17351499670E+03  0.19224897509E+03  0.41800000000E+01 0.  1.
         -5    1    3    3    0  502  0.35745133308E+02  0.28893766042E+02 -0.16211840001E+03  0.16855981814E+03  0.41800000000E+01 0.  1.
        -11    1    4    4    0    0  0.67810280769E+02 -0.70381825173E+01 -0.33509703627E+03  0.34196168486E+03  0.00000000000E+00 0.  1.
         11    1    4    4    0    0 -0.24607337767E+02  0.26789469798E+01 -0.57075805412E+02  0.62212100047E+02  0.00000000000E+00 0. -1.
</event>
<event>
 8    1  0.5951278E-006  0.1131327E+03  0.7561462E-02  0.1254876E+00
          1   -1    0    0  501    0  0.00000000000E+00  0.00000000000E+00  0.20026115905E+03  0.20026115905E+03  0.00000000000E+00 0. -1.
         -1   -1    0    0    0  501 -0.00000000000E+00 -0.00000000000E+00 -0.19913963449E+03  0.19913963449E+03  0.00000000000E+00 0.  1.
         23    2    1    2    0    0 -0.80626394811E+02 -0.31370182275E+02 -0.14544697324E+03  0.21043697977E+03  0.12507676265E+03 0.  0.
         23    2    1    2    0    0  0.80626394811E+02  0.31370182275E+02  0.14656849781E+03  0.18896381376E+03  0.82099296501E+02 0.  0.
          5    1    3    3  502    0 -0.50530969782E+02  0.16311944960E+02 -0.14437508918E+03  0.15388663759E+03  0.41800000000E+01 0.  1.
         -5    1    3    3    0  502 -0.30095425029E+02 -0.47682127235E+02 -0.10718840696E+01  0.56550342181E+02  0.41800000000E+01 0.  1.
        -11    1    4    4    0    0  0.80644587455E+02 -0.43314565294E+01  0.81454906871E+02  0.11470489464E+03  0.00000000000E+00 0. -1.
         11    1    4    4    0    0 -0.18192643595E-01  0.35701638805E+02  0.65113590938E+02  0.74258919121E+02  0.00000000000E+00 0.  1.
</event>
<event>
 8    1  0.5951278E-006  0.8455577E+02  0.7561462E-02  0.1316598E+00
          1   -1    0    0  501    0  0.00000000000E+00  0.00000000000E+00  0.48127255027E+03  0.48127255027E+03  0.00000000000E+00 0. -1.
         -1   -1    0    0    0  501 -0.00000000000E+00 -0.00000000000E+00 -0.40355124188E+02  0.40355124188E+02  0.00000000000E+00 0.  1.
         23    2    1    2    0    0  0.45701273263E+01  0.61565417646E+02  0.12450291685E+03  0.18697923671E+03  0.12509625071E+03 0.  0.
         23    2    1    2    0    0 -0.45701273263E+01 -0.61565417646E+02  0.31641450923E+03  0.33464843775E+03  0.89778886839E+02 0.  0.
          5    1    3    3  502    0 -0.20384859745E+02  0.25573471455E+01 -0.19925122204E+02  0.28923440772E+02  0.41800000000E+01 0. -1.
         -5    1    3    3    0  502  0.24954987071E+02  0.59008070501E+02  0.14442803905E+03  0.15805579594E+03  0.41800000000E+01 0. -1.
        -11    1    4    4    0    0 -0.30407490007E+02 -0.40262276924E+02  0.28256235023E+03  0.28703161526E+03  0.00000000000E+00 0. -1.
         11    1    4    4    0    0  0.25837362680E+02 -0.21303140722E+02  0.33852159003E+02  0.47616822490E+02  0.00000000000E+00 0.  1.
</event>
<event>
 8    1  0.5951278E-006  0.8647975E+02  0.7561462E-02  0.1311608E+00
         -4   -1    0    0    0  501 -0.00000000000E+00  0.00000000000E+00  0.12183934949E+04  0.12183934949E+04  0.00000000000E+00 0.  1.
          4   -1    0    0  501    0  0.00000000000E+00 -0.00000000000E+00 -0.12064577712E+02  0.12064577712E+02  0.00000000000E+00 0. -1.
         23    2    1    2    0    0 -0.46230515178E+02  0.86044038473E+01  0.82633566674E+03  0.83707485806E+03  0.12510950230E+03 0.  0.
         23    2    1    2    0    0  0.46230515178E+02 -0.86044038473E+01  0.37999325042E+03  0.39338321453E+03  0.90245148387E+02 0.  0.
          5    1    3    3  502    0 -0.43986113507E+02  0.27733673190E+02  0.12482551380E+03  0.13528790081E+03  0.41800000000E+01 0.  1.
         -5    1    3    3    0  502 -0.22444016704E+01 -0.19129269342E+02  0.70151015293E+03  0.70178695724E+03  0.41800000000E+01 0.  1.
        -11    1    4    4    0    0  0.29817335465E+01 -0.44670528761E+02  0.14606068089E+03  0.15276802472E+03  0.00000000000E+00 0. -1.
         11    1    4    4    0    0  0.43248781631E+02  0.36066124914E+02  0.23393256953E+03  0.24061518981E+03  0.00000000000E+00 0.  1.
</event>
<event>
 8    1  0.5951278E-006  0.1118200E+03  0.7561462E-02  0.1257236E+00
         -3   -1    0    0    0  501 -0.00000000000E+00  0.00000000000E+00  0.79381606444E+02  0.79381606444E+02  0.00000000000E+00 0.  1.
          3   -1    0    0  501    0  0.00000000000E+00 -0.00000000000E+00 -0.20586004527E+03  0.20586004527E+03  0.00000000000E+00 0. -1.
         23    2    1    2    0    0  0.44315223347E+02 -0.48545654731E+02 -0.19654521978E+02  0.14266935841E+03  0.12509087090E+03 0.  0.
         23    2    1    2    0    0 -0.44315223347E+02  0.48545654731E+02 -0.10682391685E+03  0.14257229330E+03  0.67786355507E+02 0.  0.
          5    1    3    3  502    0 -0.34708573160E+02  0.71279517713E+01  0.16590270288E+02  0.39347200859E+02  0.41800000000E+01 0.  1.
         -5    1    3    3    0  502  0.79023796506E+02 -0.55673606502E+02 -0.36244792266E+02  0.10332215755E+03  0.41800000000E+01 0.  1.
        -11    1    4    4    0    0  0.16079932868E+02  0.53277667802E+01 -0.36748753584E+02  0.40465049485E+02  0.00000000000E+00 0. -1.
         11    1    4    4    0    0 -0.60395156215E+02  0.43217887950E+02 -0.70075163265E+02  0.10210724382E+03  0.00000000000E+00 0.  1.
</event>
<event>
 8    1  0.5951278E-006  0.1805607E+03  0.7561462E-02  0.1167261E+00
          2   -1    0    0  501    0  0.00000000000E+00  0.00000000000E+00  0.25268386152E+03  0.25268386152E+03  0.00000000000E+00 0. -1.
         -2   -1    0    0    0  501 -0.00000000000E+00 -0.00000000000E+00 -0.18144761193E+03  0.18144761193E+03  0.00000000000E+00 0.  1.
         23    2    1    2    0    0 -0.30454993614E+02 -0.16858360045E+03 -0.33333628195E+02  0.21472816884E+03  0.12509643779E+03 0.  0.
         23    2    1    2    0    0  0.30454993614E+02  0.16858360045E+03  0.10456987778E+03  0.21940330460E+03  0.88628515463E+02 0.  0.
          5    1    3    3  502    0 -0.29358472188E+02 -0.16353915873E+03  0.14126663381E+02  0.16680530970E+03  0.41800000000E+01 0. -1.
         -5    1    3    3    0  502 -0.10965214264E+01 -0.50444417258E+01 -0.47460291575E+02  0.47922859138E+02  0.41800000000E+01 0. -1.
        -11    1    4    4    0    0 -0.16714947140E+02  0.41706780144E+01  0.25965536110E+02  0.31160761841E+02  0.00000000000E+00 0. -1.
         11    1    4    4    0    0  0.47169940754E+02  0.16441292244E+03  0.78604341674E+02  0.18824254276E+03  0.00000000000E+00 0.  1.
</event>
<event>
 8    1  0.5951278E-006  0.7639300E+02  0.7561462E-02  0.1339611E+00
         -1   -1    0    0    0  501 -0.00000000000E+00  0.00000000000E+00  0.23797827734E+03  0.23797827734E+03  0.00000000000E+00 0.  1.
          1   -1    0    0  501    0  0.00000000000E+00 -0.00000000000E+00 -0.54468163309E+02  0.54468163309E+02  0.00000000000E+00 0. -1.
         23    2    1    2    0    0 -0.29125088226E+02 -0.76726855503E+00  0.12793977708E+03  0.18128984720E+03  0.12509421520E+03 0.  0.
         23    2    1    2    0    0  0.29125088226E+02  0.76726855503E+00  0.55570336959E+02  0.11115659345E+03  0.91754381105E+02 0.  0.
          5    1    3    3  502    0  0.17765612821E+02  0.33231373671E+02 -0.30194707140E+01  0.38033285401E+02  0.41800000000E+01 0. -1.
         -5    1    3    3    0  502 -0.46890701048E+02 -0.33998642227E+02  0.13095924779E+03  0.14325656180E+03  0.41800000000E+01 0. -1.
        -11    1    4    4    0    0  0.13205515179E+02 -0.23980979766E+02  0.72298280976E+02  0.77307919736E+02  0.00000000000E+00 0.  1.
         11    1    4    4    0    0  0.15919573048E+02  0.24748248322E+02 -0.16727944018E+02  0.33848673712E+02  0.00000000000E+00 0. -1.
</event>
<event>
 8    1  0.5951278E-006  0.9018929E+02  0.7561462E-02  0.1302394E+00
         -1   -1    0    0    0  501 -0.00000000000E+00  0.00000000000E+00  0.12788500407E+04  0.12788500407E+04  0.00000000000E+00 0.  1.
          1   -1    0    0  501    0  0.00000000000E+00 -0.00000000000E+00 -0.16377470905E+02  0.16377470905E+02  0.00000000000E+00 0. -1.
         23    2    1    2    0    0  0.62287359368E+01  0.64436581981E+02  0.10281229637E+04  0.10377264287E+04  0.12509373344E+03 0.  0.
         23    2    1    2    0    0 -0.62287359368E+01 -0.64436581981E+02  0.23434960610E+03  0.25750108288E+03  0.84830416460E+02 0.  0.
          5    1    3    3  502    0 -0.15987117561E+02  0.55859451199E+02  0.99507323514E+03  0.99677684659E+03  0.41800000000E+01 0.  1.
         -5    1    3    3    0  502  0.22215853498E+02  0.85771307821E+01  0.33049728564E+02  0.40949582137E+02  0.41800000000E+01 0.  1.
        -11    1    4    4    0    0 -0.11192600894E+02 -0.80428443418E+02  0.22286142741E+03  0.23719448698E+03  0.00000000000E+00 0.  1.
         11    1    4    4    0    0  0.49638649573E+01  0.15991861437E+02  0.11488178689E+02  0.20306595902E+02  0.00000000000E+00 0. -1.
</event>
<event>
 8    1  0.8495403E-006  0.1161709E+03  0.7561462E-02  0.1249551E+00
          2   -1    0    0  501    0  0.00000000000E+00  0.00000000000E+00  0.30880368004E+03  0.30880368004E+03  0.00000000000E+00 0. -1.
         -2   -1    0    0    0  501 -0.00000000000E+00 -0.00000000000E+00 -0.70097716272E+02  0.70097716272E+02  0.00000000000E+00 0.  1.
         23    2    1    2    0    0 -0.75761962064E+02 -0.59979528523E+02  0.10048540463E+03  0.18730314350E+03  0.12509089608E+03 0.  0.
         23    2    1    2    0    0  0.75761962064E+02  0.59979528523E+02  0.13822055914E+03  0.19159825282E+03  0.90926062135E+02 0.  0.
          5    1    3    3  502    0 -0.49827163061E+02  0.17916936388E+02 -0.52460454121E+01  0.53373740554E+02  0.41800000000E+01 0.  1.
         -5    1    3    3    0  502 -0.25934799003E+02 -0.77896464911E+02  0.10573145004E+03  0.13392940294E+03  0.41800000000E+01 0.  1.
        -11    1    4    4    0    0  0.51039327946E+02  0.35086953032E+02  0.15340303613E+02  0.63807775272E+02  0.00000000000E+00 0.  1.
         11    1    4    4    0    0  0.24722634118E+02  0.24892575491E+02  0.12288025553E+03  0.12779047755E+03  0.00000000000E+00 0. -1.
</event>
<event>
 8    1  0.5951278E-006  0.1105495E+03  0.7561462E-02  0.1259556E+00
          1   -1    0    0  501    0  0.00000000000E+00  0.00000000000E+00  0.34578046199E+03  0.34578046199E+03  0.00000000000E+00 0. -1.
         -1   -1    0    0    0  501 -0.00000000000E+00 -0.00000000000E+00 -0.38812980306E+02  0.38812980306E+02  0.00000000000E+00 0.  1.
         23    2    1    2    0    0  0.27586912584E+02  0.20691314793E+02  0.14275047315E+03  0.19292110044E+03  0.12510669510E+03 0.  0.
         23    2    1    2    0    0 -0.27586912584E+02 -0.20691314793E+02  0.16421700854E+03  0.19167234185E+03  0.92638504335E+02 0.  0.
          5    1    3    3  502    0 -0.45303615285E+02 -0.37809851275E+01  0.24506421620E+02  0.51814578133E+02  0.41800000000E+01 0. -1.
         -5    1    3    3    0  502  0.72890527870E+02  0.24472299921E+02  0.11824405153E+03  0.14110652231E+03  0.41800000000E+01 0. -1.
        -11    1    4    4    0    0 -0.24317407795E+02 -0.57009136319E+02  0.11158908983E+03  0.12764600626E+03  0.00000000000E+00 0.  1.
         11    1    4    4    0    0 -0.32695047897E+01  0.36317821526E+02  0.52627918709E+02  0.64026335594E+02  0.00000000000E+00 0. -1.
</event>
<event>
 8    1  0.5951278E-006  0.1038815E+03  0.7561462E-02  0.1272339E+00
         -1   -1    0    0    0  501 -0.00000000000E+00  0.00000000000E+00  0.58089490009E+03  0.58089490009E+03  0.00000000000E+00 0.  1.
          1   -1    0    0  501    0  0.00000000000E+00 -0.00000000000E+00 -0.20258685633E+02  0.20258685633E+02  0.00000000000E+00 0. -1.
         23    2    1    2    0    0 -0.19545786873E+01  0.42151884817E+01  0.34233777909E+03  0.36450485693E+03  0.12508815906E+03 0.  0.
         23    2    1    2    0    0  0.19545786873E+01 -0.42151884817E+01  0.21829843536E+03  0.23664872880E+03  0.91251442548E+02 0.  0.
          5    1    3    3  502    0  0.59024988414E+02  0.18324030540E+02  0.15383557791E+03  0.16583900863E+03  0.41800000000E+01 0.  1.
         -5    1    3    3    0  502 -0.60979567101E+02 -0.14108842059E+02  0.18850220118E+03  0.19866584829E+03  0.41800000000E+01 0.  1.
        -11    1    4    4    0    0 -0.11260366185E+02 -0.41777766412E+02  0.63707552694E+02  0.77011881442E+02  0.00000000000E+00 0. -1.
         11    1    4    4    0    0  0.13214944873E+02  0.37562577930E+02  0.15459088267E+03  0.15963684736E+03  0.00000000000E+00 0.  1.
</event>
<event>
 8    1  0.5951278E-006  0.1041982E+03  0.7561462E-02  0.1271708E+00
          2   -1    0    0  501    0  0.00000000000E+00  0.00000000000E+00  0.22321673811E+03  0.22321673811E+03  0.00000000000E+00 0.  1.
         -2   -1    0    0    0  501 -0.00000000000E+00 -0.00000000000E+00 -0.10142474228E+03  0.10142474228E+03  0.00000000000E+00 0. -1.
         23    2    1    2    0    0 -0.10058972668E+03 -0.19362872450E+02  0.47515920080E+02  0.16851602792E+03  0.12508667019E+03 0.  0.
         23    2    1    2    0    0  0.10058972668E+03  0.19362872450E+02  0.74276075755E+02  0.15612545248E+03  0.91460415143E+02 0.  0.
          5    1    3    3  502    0 -0.29701871567E+02 -0.85840886572E+01  0.82807323990E+02  0.88489621194E+02  0.41800000000E+01 0. -1.
         -5    1    3    3    0  502 -0.70887855116E+02 -0.10778783793E+02 -0.35291403910E+02  0.80026406723E+02  0.41800000000E+01 0. -1.
        -11    1    4    4    0    0  0.21716930487E+02  0.14973077336E+02  0.72457444876E+02  0.77109658491E+02  0.00000000000E+00 0.  1.
         11    1    4    4    0    0  0.78872796197E+02  0.43897951139E+01  0.18186308789E+01  0.79015793986E+02  0.00000000000E+00 0. -1.
</event>
<event>
 8    1  0.5951278E-006  0.1358443E+03  0.7561462E-02  0.1219033E+00
          4   -1    0    0  501    0  0.00000000000E+00  0.00000000000E+00  0.61643863287E+03  0.61643863287E+03  0.00000000000E+00 0. -1.
         -4   -1    0    0    0  501 -0.00000000000E+00 -0.00000000000E+00 -0.54884748133E+02  0.54884748133E+02  0.00000000000E+00 0.  1.
         23    2    1    2    0    0 -0.82439609603E+02 -0.95645711378E+02  0.15463538215E+03  0.23558863852E+03  0.12508202848E+03 0.  0.
         23    2    1    2    0    0  0.82439609603E+02  0.95645711378E+02  0.40691850258E+03  0.43573474248E+03  0.91311043832E+02 0.  0.
          5    1    3    3  502    0 -0.55099342869E+02 -0.81080579658E+02  0.23656190454E+02  0.10093109397E+03  0.41800000000E+01 0.  1.
         -5    1    3    3    0  502 -0.27340266734E+02 -0.14565131719E+02  0.13097919170E+03  0.13465754455E+03  0.41800000000E+01 0.  1.
        -11    1    4    4    0    0  0.69543671899E+02  0.30564845682E+02  0.12634129600E+03  0.14741999582E+03  0.00000000000E+00 0.  1.
         11    1    4    4    0    0  0.12895937704E+02  0.65080865696E+02  0.28057720658E+03  0.28831474666E+03  0.00000000000E+00 0. -1.
</event>
<event>
 7    1  0.5951278E-006  0.1110805E+03  0.7561462E-02  0.1258582E+00
         -1   -1    0    0    0  501 -0.00000000000E+00  0.00000000000E+00  0.50173261024E+03  0.50173261024E+03  0.00000000000E+00 0.  1.
          1   -1    0    0  501    0  0.00000000000E+00 -0.00000000000E+00 -0.71127086679E+02  0.71127086679E+02  0.00000000000E+00 0. -1.
         23    2    1    2    0    0  0.67183831976E+02 -0.71406961585E+02  0.59990429828E+02  0.14642855427E+03  0.90718511852E+02 0.  0.
          5    1    1    2  502    0  0.66777596279E+01  0.36328077912E+02  0.33514970676E+03  0.33720486363E+03  0.41800000000E+01 0. -1.
         -5    1    1    2    0  502 -0.73861591604E+02  0.35078883673E+02  0.35465386980E+02  0.89226279019E+02  0.41800000000E+01 0.  1.
        -11    1    3    3    0    0 -0.15928175944E+01 -0.12373833162E+02  0.54187965058E+02  0.55605614574E+02  0.00000000000E+00 0.  1.
         11    1    3    3    0    0  0.68776649570E+02 -0.59033128423E+02  0.58024647700E+01  0.90822939696E+02  0.00000000000E+00 0. -1.
</event>
<event>
 8    1  0.5951278E-006  0.1135390E+03  0.7561462E-02  0.1254153E+00
         -1   -1    0    0    0  501 -0.00000000000E+00  0.00000000000E+00  0.27057604033E+03  0.27057604033E+03  0.00000000000E+00 0.  1.
          1   -1    0    0  501    0  0.00000000000E+00 -0.00000000000E+00 -0.62044932772E+02  0.62044932772E+02  0.00000000000E+00 0. -1.
         23    2    1    2    0    0 -0.48424451676E+02 -0.59816128569E+02  0.13146093169E+03  0.19710941866E+03  0.12508896677E+03 0.  0.
         23    2    1    2    0    0  0.48424451676E+02  0.59816128569E+02  0.77070175866E+02  0.13551155444E+03  0.80626748790E+02 0.  0.
          5    1    3    3  502    0 -0.89638314736E+02 -0.46153963149E+02  0.74832775519E+02  0.12562894760E+03  0.41800000000E+01 0.  1.
         -5    1    3    3    0  502  0.41213863060E+02 -0.13662165420E+02  0.56628156172E+02  0.71480471065E+02  0.41800000000E+01 0.  1.
        -11    1    4    4    0    0  0.49463582951E+02  0.42537135308E+02  0.91910831728E+02  0.11271049156E+03  0.00000000000E+00 0.  1.
         11    1    4    4    0    0 -0.10391312749E+01  0.17278993261E+02 -0.14840655861E+02  0.22801062877E+02  0.00000000000E+00 0. -1.
</event>
<event>
 8    1  0.5951278E-006  0.1709849E+03  0.7561462E-02  0.1176825E+00
          1   -1    0    0  501    0  0.00000000000E+00  0.00000000000E+00  0.44375368735E+03  0.44375368735E+03  0.00000000000E+00 0. -1.
         -1   -1    0    0    0  501 -0.00000000000E+00 -0.00000000000E+00 -0.20440704607E+03  0.20440704607E+03  0.00000000000E+00 0.  1.
         23    2    1    2    0    0 -0.61625965085E+01  0.15062439614E+03 -0.13331676884E+03  0.23694955514E+03  0.12508414976E+03 0.  0.
         23    2    1    2    0    0  0.61625965085E+01 -0.15062439614E+03  0.37266341012E+03  0.41121117827E+03  0.86550156459E+02 0.  0.
          5    1    3    3  502    0  0.50214169209E+02  0.54835716888E+02 -0.17757312290E+02  0.76558560434E+02  0.41800000000E+01 0. -1.
         -5    1    3    3    0  502 -0.56376765717E+02  0.95788679252E+02 -0.11555945655E+03  0.16039099471E+03  0.41800000000E+01 0. -1.
        -11    1    4    4    0    0  0.18970844357E+02 -0.33895208384E+02  0.30283964517E+02  0.49253391699E+02  0.00000000000E+00 0. -1.
         11    1    4    4    0    0 -0.12808247849E+02 -0.11672918776E+03  0.34237944561E+03  0.36195778657E+03  0.00000000000E+00 0.  1.
</event>
<event>
 8    1  0.5951278E-006  0.7199904E+02  0.7561462E-02  0.1353424E+00
         -2   -1    0    0    0  501 -0.00000000000E+00  0.00000000000E+00  0.37082621407E+02  0.37082621407E+02  0.00000000000E+00 0.  1.
          2   -1    0    0  501    0  0.00000000000E+00 -0.00000000000E+00 -0.29964511686E+03  0.29964511686E+03  0.00000000000E+00 0. -1.
         23    2    1    2    0    0  0.42167641256E+01 -0.10241507433E+02 -0.16297219263E+03  0.20574219495E+03  0.12508895092E+03 0.  0.
         23    2    1    2    0    0 -0.42167641256E+01  0.10241507433E+02 -0.99590302832E+02  0.13098554332E+03  0.84358251319E+02 0.  0.
          5    1    3    3  502    0 -0.32014185962E+02  0.52402987205E+01  0.50639363751E+01  0.33098106972E+02  0.41800000000E+01 0.  1.
         -5    1    3    3    0  502  0.36230950088E+02 -0.15481806153E+02 -0.16803612900E+03  0.17264408798E+03  0.41800000000E+01 0.  1.
        -11    1    4    4    0    0 -0.27558370834E+02  0.30252763628E+02 -0.19769281748E+02  0.45447970373E+02  0.00000000000E+00 0.  1.
         11    1    4    4    0    0  0.23341606709E+02 -0.20011256195E+02 -0.79821021084E+02  0.85537572944E+02  0.00000000000E+00 0. -1.
</event>
<event>
 8    1  0.5951278E-006  0.7909926E+02  0.7561462E-02  0.1331627E+00
         -1   -1    0    0    0  501 -0.00000000000E+00  0.00000000000E+00  0.10198308354E+03  0.10198308354E+03  0.00000000000E+00 0.  1.
          1   -1    0    0  501    0  0.00000000000E+00 -0.00000000000E+00 -0.13153843017E+03  0.13153843017E+03  0.00000000000E+00 0. -1.
         23    2    1    2    0    0  0.45996391530E+01 -0.21478002877E+02  0.19379630231E+02  0.12847476627E+03  0.12509090380E+03 0.  0.
         23    2    1    2    0    0 -0.45996391530E+01  0.21478002877E+02 -0.48934976856E+02  0.10504674744E+03  0.90320130091E+02 0.  0.
          5    1    3    3  502    0 -0.26341430753E+02 -0.25245579426E+02  0.64057774285E+02  0.73838208951E+02  0.41800000000E+01 0. -1.
         -5    1    3    3    0  502  0.30941069906E+02  0.37675765489E+01 -0.44678144054E+02  0.54636557323E+02  0.41800000000E+01 0. -1.
        -11    1    4    4    0    0  0.41304108610E+02  0.70030319676E+01 -0.98294750041E+01  0.43031272624E+02  0.00000000000E+00 0.  1.
         11    1    4    4    0    0 -0.45903747763E+02  0.14474970910E+02 -0.39105501851E+02  0.62015474815E+02  0.00000000000E+00 0. -1.
</event>
<event>
 8    1  0.5951278E-006  0.1153156E+03  0.7561462E-02  0.1251031E+00
         -2   -1    0    0    0  501 -0.00000000000E+00  0.00000000000E+00  0.29480945580E+02  0.29480945580E+02  0.00000000000E+00 0.  1.
          2   -1    0    0  501    0  0.00000000000E+00 -0.00000000000E+00 -0.50332818760E+03  0.50332818760E+03  0.00000000000E+00 0. -1.
         23    2    1    2    0    0  0.45492015123E+02 -0.31469707208E+02 -0.26457633138E+03  0.29783802087E+03  0.12508791162E+03 0.  0.
         23    2    1    2    0    0 -0.45492015123E+02  0.31469707208E+02 -0.20927091064E+03  0.23497111231E+03  0.91417961427E+02 0.  0.
          5    1    3    3  502    0 -0.64349751524E+01 -0.66113534661E+02 -0.18503045326E+03  0.19663710078E+03  0.41800000000E+01 0.  1.
         -5    1    3    3    0  502  0.51926990275E+02  0.34643827453E+02 -0.79545878125E+02  0.10120092009E+03  0.41800000000E+01 0.  1.
        -11    1    4    4    0    0 -0.84797651032E+01 -0.29220140090E+02 -0.32892511228E+02  0.44806699253E+02  0.00000000000E+00 0.  1.
         11    1    4    4    0    0 -0.37012250019E+02  0.60689847298E+02 -0.17637839941E+03  0.19016441306E+03  0.00000000000E+00 0. -1.
</event>
<event>
 8    1  0.5951278E-006  0.1583811E+03  0.7561462E-02  0.1190537E+00
          2   -1    0    0  501    0  0.00000000000E+00  0.00000000000E+00  0.20365827482E+03  0.20365827482E+03  0.00000000000E+00 0. -1.
         -2   -1    0    0    0  501 -0.00000000000E+00 -0.00000000000E+00 -0.16737500099E+03  0.16737500099E+03  0.00000000000E+00 0.  1.
         23    2    1    2    0    0  0.76836779576E+02  0.11927869460E+03 -0.26886690672E+02  0.19105867607E+03  0.12509686601E+03 0.  0.
         23    2    1    2    0    0 -0.76836779576E+02 -0.11927869460E+03  0.63169964500E+02  0.17997459974E+03  0.90934671364E+02 0.  0.
          5    1    3    3  502    0  0.66471518928E+02  0.13649125753E+03  0.63381560914E+01  0.15200648287E+03  0.41800000000E+01 0.  1.
         -5    1    3    3    0  502  0.10365260648E+02 -0.17212562938E+02 -0.33224846763E+02  0.39052193199E+02  0.41800000000E+01 0.  1.
        -11    1    4    4    0    0 -0.10360170696E+02 -0.37875913918E+02  0.63752428342E+02  0.74875163516E+02  0.00000000000E+00 0. -1.
         11    1    4    4    0    0 -0.66476608880E+02 -0.81402780678E+02 -0.58246384201E+00  0.10509943622E+03  0.00000000000E+00 0.  1.
</event>
<event>
 8    1  0.5951278E-006  0.1056130E+03  0.7561462E-02  0.1268917E+00
          1   -1    0    0  501    0  0.00000000000E+00  0.00000000000E+00  0.29919563486E+03  0.29919563486E+03  0.00000000000E+00 0. -1.
         -1   -1    0    0    0  501 -0.00000000000E+00 -0.00000000000E+00 -0.47915739243E+02  0.47915739243E+02  0.00000000000E+00 0.  1.
         23    2    1    2    0    0  0.10715624996E+02  0.19392695672E+02  0.77513749203E+02  0.14881283542E+03  0.12508388147E+03 0.  0.
         23    2    1    2    0    0 -0.10715624996E+02 -0.19392695672E+02  0.17376614642E+03  0.19829853869E+03  0.92934038656E+02 0.  0.
          5    1    3    3  502    0 -0.52569499750E+02 -0.26108336352E-01  0.90837038141E+01  0.53512045939E+02  0.41800000000E+01 0.  1.
         -5    1    3    3    0  502  0.63285124745E+02  0.19418804008E+02  0.68430045389E+02  0.95300789477E+02  0.41800000000E+01 0.  1.
        -11    1    4    4    0    0  0.92605226592E+01 -0.52599791339E+02  0.73919986921E+02  0.91195722461E+02  0.00000000000E+00 0.  1.
         11    1    4    4    0    0 -0.19976147655E+02  0.33207095667E+02  0.99846159494E+02  0.10710281623E+03  0.00000000000E+00 0. -1.
</event>
<event>
 8    1  0.5951278E-006  0.6667318E+02  0.7561462E-02  0.1371786E+00
         -1   -1    0    0    0  501 -0.00000000000E+00  0.00000000000E+00  0.13712034720E+02  0.13712034720E+02  0.00000000000E+00 0.  1.
          1   -1    0    0  501    0  0.00000000000E+00 -0.00000000000E+00 -0.87280969015E+03  0.87280969015E+03  0.00000000000E+00 0. -1.
         23    2    1    2    0    0  0.12233927412E+02 -0.12908241863E+02 -0.49198169547E+03  0.50794679301E+03  0.12509062382E+03 0.  0.
         23    2    1    2    0    0 -0.12233927412E+02  0.12908241863E+02 -0.36711595997E+03  0.37857493186E+03  0.90711406582E+02 0.  0.
          5    1    3    3  502    0  0.18638071052E+02  0.66728632918E+01 -0.48553863253E+03  0.48596001983E+03  0.41800000000E+01 0. -1.
         -5    1    3    3    0  502 -0.64041436398E+01 -0.19581105154E+02 -0.64430629381E+01  0.21986773180E+02  0.41800000000E+01 0. -1.
        -11    1    4    4    0    0 -0.26606579215E+02  0.47605122865E+02 -0.20105122514E+03  0.20831647297E+03  0.00000000000E+00 0.  1.
         11    1    4    4    0    0  0.14372651803E+02 -0.34696881002E+02 -0.16606473483E+03  0.17025845889E+03  0.00000000000E+00 0. -1.
</event>
<event>
 8    1  0.5951278E-006  0.8930394E+02  0.7561462E-02  0.1304546E+00
          1   -1    0    0  501    0  0.00000000000E+00  0.00000000000E+00  0.22506004473E+03  0.22506004473E+03  0.00000000000E+00 0. -1.
         -1   -1    0    0    0  501 -0.00000000000E+00 -0.00000000000E+00 -0.60371447375E+02  0.60371447375E+02  0.00000000000E+00 0.  1.
         23    2    1    2    0    0  0.39466582280E+02 -0.19875270958E+02  0.71861515236E+02  0.15086863945E+03  0.12507850129E+03 0.  0.
         23    2    1    2    0    0 -0.39466582280E+02  0.19875270958E+02  0.92827082122E+02  0.13456285266E+03  0.86819678803E+02 0.  0.
          5    1    3    3  502    0  0.50301286908E+02  0.23378892489E+02 -0.10976726566E+02  0.56698791916E+02  0.41800000000E+01 0.  1.
         -5    1    3    3    0  502 -0.10834704627E+02 -0.43254163447E+02  0.82838241803E+02  0.94169847535E+02  0.41800000000E+01 0.  1.
        -11    1    4    4    0    0 -0.56739856077E+02  0.81581141390E+01  0.23141026698E+02  0.61818065407E+02  0.00000000000E+00 0.  1.
         11    1    4    4    0    0  0.17273273797E+02  0.11717156819E+02  0.69686055424E+02  0.72744787251E+02  0.00000000000E+00 0. -1.
</event>
<event>
 8    1  0.5951278E-006  0.3503336E+03  0.7561462E-02  0.1062478E+00
         -1   -1    0    0    0  501 -0.00000000000E+00  0.00000000000E+00  0.88555271582E+02  0.88555271582E+02  0.00000000000E+00 0.  1.
          1   -1    0    0  501    0  0.00000000000E+00 -0.00000000000E+00 -0.15849024564E+04  0.15849024564E+04  0.00000000000E+00 0. -1.
         23    2    1    2    0    0 -0.14652253666E+03 -0.30485551400E+03 -0.49612787681E+03  0.61334901957E+03  0.12509361093E+03 0.  0.
         23    2    1    2    0    0  0.14652253666E+03  0.30485551400E+03 -0.10002193080E+04  0.10601087084E+04  0.94794891040E+02 0.  0.
          5    1    3    3  502    0 -0.10493351769E+03 -0.82817908711E+02 -0.20630959514E+03  0.24586779086E+03  0.41800000000E+01 0. -1.
         -5    1    3    3    0  502 -0.41589018973E+02 -0.22203760529E+03 -0.28981828167E+03  0.36748122871E+03  0.41800000000E+01 0. -1.
        -11    1    4    4    0    0  0.81433399357E+01  0.52971613590E+02 -0.81965800583E+02  0.97932110652E+02  0.00000000000E+00 0.  1.
         11    1    4    4    0    0  0.13837919672E+03  0.25188390041E+03 -0.91825350746E+03  0.96217659779E+03  0.00000000000E+00 0. -1.
</event>
<event>
 8    1  0.5951278E-006  0.1327103E+03  0.7561462E-02  0.1223489E+00
          2   -1    0    0  501    0  0.00000000000E+00  0.00000000000E+00  0.48901071898E+03  0.48901071898E+03  0.00000000000E+00 0. -1.
         -2   -1    0    0    0  501 -0.00000000000E+00 -0.00000000000E+00 -0.50559781623E+02  0.50559781623E+02  0.00000000000E+00 0.  1.
         23    2    1    2    0    0 -0.61000241973E+02  0.88260181444E+02  0.23946419509E+03  0.29069148627E+03  0.12509016871E+03 0.  0.
         23    2    1    2    0    0  0.61000241973E+02 -0.88260181444E+02  0.19898674226E+03  0.24887901433E+03  0.10408722799E+03 0.  0.
          5    1    3    3  502    0 -0.18462409372E+02  0.64167296944E+02  0.23151362929E+03  0.24098617285E+03  0.41800000000E+01 0.  1.
         -5    1    3    3    0  502 -0.42537832601E+02  0.24092884500E+02  0.79505658064E+01  0.49705313424E+02  0.41800000000E+01 0.  1.
        -11    1    4    4    0    0  0.84584187932E+02 -0.35631857556E+02  0.12456386752E+03  0.15472643993E+03  0.00000000000E+00 0.  1.
         11    1    4    4    0    0 -0.23583945959E+02 -0.52628323889E+02  0.74422874742E+02  0.94152574405E+02  0.00000000000E+00 0. -1.
</event>
<event>
 8    1  0.5951278E-006  0.9288493E+02  0.7561462E-02  0.1296012E+00
          3   -1    0    0  501    0  0.00000000000E+00  0.00000000000E+00  0.70454402903E+02  0.70454402903E+02  0.00000000000E+00 0. -1.
         -3   -1    0    0    0  501 -0.00000000000E+00 -0.00000000000E+00 -0.21321740113E+03  0.21321740113E+03  0.00000000000E+00 0.  1.
         23    2    1    2    0    0  0.44130561181E+02  0.18730972488E+02 -0.11472018420E+03  0.17635634337E+03  0.12506991414E+03 0.  0.
         23    2    1    2    0    0 -0.44130561181E+02 -0.18730972488E+02 -0.28042814026E+02  0.10731546066E+03  0.91825121392E+02 0.  0.
          5    1    3    3  502    0 -0.28332435678E+01 -0.22884430521E+02 -0.11090356464E+03  0.11335253627E+03  0.41800000000E+01 0.  1.
         -5    1    3    3    0  502  0.46963804749E+02  0.41615403009E+02 -0.38166195633E+01  0.63003807099E+02  0.41800000000E+01 0.  1.
        -11    1    4    4    0    0  0.26732829687E+02 -0.34498922316E+01 -0.21592670970E+02  0.34536782987E+02  0.00000000000E+00 0.  1.
         11    1    4    4    0    0 -0.70863390868E+02 -0.15281080256E+02 -0.64501430561E+01  0.72778677678E+02  0.00000000000E+00 0. -1.
</event>
<event>
 8    1  0.5951278E-006  0.9819607E+02  0.7561462E-02  0.1284136E+00
         -2   -1    0    0    0  501 -0.00000000000E+00  0.00000000000E+00  0.22818191237E+03  0.22818191237E+03  0.00000000000E+00 0.  1.
          2   -1    0    0  501    0  0.00000000000E+00 -0.00000000000E+00 -0.92084323029E+02  0.92084323029E+02  0.00000000000E+00 0. -1.
         23    2    1    2    0    0 -0.49709519100E+02  0.23650572716E+02  0.14535603030E+03  0.19951274655E+03  0.12508626867E+03 0.  0.
         23    2    1    2    0    0  0.49709519100E+02 -0.23650572716E+02 -0.92584409628E+01  0.12075348885E+03  0.10707614329E+03 0.  0.
          5    1    3    3  502    0 -0.65936094300E+01 -0.25550757827E+02  0.12928717534E+03  0.13201879798E+03  0.41800000000E+01 0.  1.
         -5    1    3    3    0  502 -0.43115909670E+02  0.49201330543E+02  0.16068854958E+02  0.67493948570E+02  0.41800000000E+01 0.  1.
        -11    1    4    4    0    0 -0.63408464481E+01 -0.44028159247E+02 -0.34198584056E+02  0.56109074951E+02  0.00000000000E+00 0. -1.
         11    1    4    4    0    0  0.56050365548E+02  0.20377586531E+02  0.24940143093E+02  0.64644413900E+02  0.00000000000E+00 0.  1.
</event>
<event>
 8    1  0.5951278E-006  0.2927528E+03  0.7561462E-02  0.1088921E+00
          3   -1    0    0  501    0  0.00000000000E+00  0.00000000000E+00  0.40462304976E+03  0.40462304976E+03  0.00000000000E+00 0. -1.
         -3   -1    0    0    0  501 -0.00000000000E+00 -0.00000000000E+00 -0.23875376723E+03  0.23875376723E+03  0.00000000000E+00 0.  1.
         23    2    1    2    0    0  0.13470591049E+03 -0.24820419787E+03  0.50721184818E+01  0.30890769950E+03  0.12508890544E+03 0.  0.
         23    2    1    2    0    0 -0.13470591049E+03  0.24820419787E+03  0.16079716404E+03  0.33446911749E+03  0.79138210914E+02 0.  0.
          5    1    3    3  502    0 -0.16719234511E+02 -0.52971039535E+02 -0.22885272660E+02  0.60221855973E+02  0.41800000000E+01 0. -1.
         -5    1    3    3    0  502  0.15142514500E+03 -0.19523315834E+03  0.27957391142E+02  0.24868584353E+03  0.41800000000E+01 0. -1.
        -11    1    4    4    0    0 -0.47090353107E+02  0.74340483120E+02  0.10726166399E+02  0.88651336323E+02  0.00000000000E+00 0.  1.
         11    1    4    4    0    0 -0.87615557381E+02  0.17386371475E+03  0.15007099764E+03  0.24581778116E+03  0.00000000000E+00 0. -1.
</event>
<event>
 7    1  0.5951278E-006  0.1037494E+03  0.7561462E-02  0.1272603E+00
         -1   -1    0    0    0  501 -0.00000000000E+00  0.00000000000E+00  0.14893407132E+03  0.14893407132E+03  0.00000000000E+00 0.  1.
          1   -1    0    0  501    0  0.00000000000E+00 -0.00000000000E+00 -0.12874272517E+03  0.12874272517E+03  0.00000000000E+00 0. -1.
         23    2    1    2    0    0 -0.48676151562E+02  0.45640946901E+02  0.24846951717E+02  0.11367665557E+03  0.88614599520E+02 0.  0.
          5    1    1    2  502    0 -0.19740988165E+02 -0.50696457766E+02 -0.56015954661E+02  0.78199085802E+02  0.41800000000E+01 0. -1.
         -5    1    1    2    0  502  0.68417139727E+02  0.50555108648E+01  0.51360349093E+02  0.85801055107E+02  0.41800000000E+01 0.  1.
        -11    1    3    3    0    0 -0.11654409260E+02  0.45719319133E+02  0.50133263700E+02  0.68843485722E+02  0.00000000000E+00 0.  1.
         11    1    3    3    0    0 -0.37021742302E+02 -0.78372232224E-01 -0.25286311983E+02  0.44833169852E+02  0.00000000000E+00 0. -1.
</event>
<event>
 8    1  0.5951278E-006  0.1279327E+03  0.7561462E-02  0.1230556E+00
         -1   -1    0    0    0  501 -0.00000000000E+00  0.00000000000E+00  0.41792390874E+02  0.41792390874E+02  0.00000000000E+00 0.  1.
          1   -1    0    0  501    0  0.00000000000E+00 -0.00000000000E+00 -0.58528331570E+03  0.58528331570E+03  0.00000000000E+00 0. -1.
         23    2    1    2    0    0 -0.42120761685E+02  0.10011897829E+03 -0.23769956113E+03  0.28973516689E+03  0.12508963662E+03 0.  0.
         23    2    1    2    0    0  0.42120761685E+02 -0.10011897829E+03 -0.30579136370E+03  0.33734053969E+03  0.92153747774E+02 0.  0.
          5    1    3    3  502    0 -0.12748032989E+02  0.11378775165E+03 -0.22879003278E+03  0.25587597830E+03  0.41800000000E+01 0. -1.
         -5    1    3    3    0  502 -0.29372728696E+02 -0.13668773366E+02 -0.89095283545E+01  0.33859188589E+02  0.41800000000E+01 0. -1.
        -11    1    4    4    0    0  0.15123453050E+02 -0.37246742980E+02 -0.23674463730E+03  0.24013342538E+03  0.00000000000E+00 0. -1.
         11    1    4    4    0    0  0.26997308636E+02 -0.62872235307E+02 -0.69046726392E+02  0.97207114305E+02  0.00000000000E+00 0.  1.
</event>
<event>
 8    1  0.5951278E-006  0.1597199E+03  0.7561462E-02  0.1189013E+00
         -4   -1    0    0    0  501 -0.00000000000E+00  0.00000000000E+00  0.63485619811E+03  0.63485619811E+03  0.00000000000E+00 0.  1.
          4   -1    0    0  501    0  0.00000000000E+00 -0.00000000000E+00 -0.53147929981E+02  0.53147929981E+02  0.00000000000E+00 0. -1.
         23    2    1    2    0    0  0.27230671577E+02  0.11573284774E+03  0.47116303988E+03  0.50177461515E+03  0.12509017841E+03 0.  0.
         23    2    1    2    0    0 -0.27230671577E+02 -0.11573284774E+03  0.11054522825E+03  0.18622951294E+03  0.91244629879E+02 0.  0.
          5    1    3    3  502    0 -0.36127424741E+02 -0.44317657259E+01  0.10401465903E+03  0.11027852492E+03  0.41800000000E+01 0.  1.
         -5    1    3    3    0  502  0.63358096318E+02  0.12016461347E+03  0.36714838085E+03  0.39149609023E+03  0.41800000000E+01 0.  1.
        -11    1    4    4    0    0 -0.56947018477E+02 -0.94639397460E+02  0.65966752101E+02  0.12865143158E+03  0.00000000000E+00 0. -1.
         11    1    4    4    0    0  0.29716346900E+02 -0.21093450282E+02  0.44578476145E+02  0.57578081362E+02  0.00000000000E+00 0.  1.
</event>
<event>
 8    1  0.5951278E-006  0.1037750E+03  0.7561462E-02  0.1272552E+00
          2   -1    0    0  501    0  0.00000000000E+00  0.00000000000E+00  0.49292364545E+03  0.49292364545E+03  0.00000000000E+00 0. -1.
         -2   -1    0    0    0  501 -0.00000000000E+00 -0.00000000000E+00 -0.28964900803E+02  0.28964900803E+02  0.00000000000E+00 0.  1.
         23    2    1    2    0    0 -0.70896122511E+00 -0.53523731754E+02  0.24148958023E+03  0.27718294762E+03  0.12509147295E+03 0.  0.
         23    2    1    2    0    0  0.70896122511E+00  0.53523731754E+02  0.22246916442E+03  0.24470559863E+03  0.86735277704E+02 0.  0.
          5    1    3    3  502    0 -0.17298903081E+01 -0.91750938348E+02  0.20274144926E+03  0.22258210812E+03  0.41800000000E+01 0. -1.
         -5    1    3    3    0  502  0.10209290830E+01  0.38227206595E+02  0.38748130967E+02  0.54600839496E+02  0.41800000000E+01 0. -1.
        -11    1    4    4    0    0 -0.27814864271E+01  0.65083978185E+02  0.22329338964E+03  0.23260180296E+03  0.00000000000E+00 0. -1.
         11    1    4    4    0    0  0.34904476522E+01 -0.11560246432E+02 -0.82422522627E+00  0.12103795669E+02  0.00000000000E+00 0.  1.
</event>
<event>
 8    1  0.5951278E-006  0.1643852E+03  0.7561462E-02  0.1183833E+00
         -2   -1    0    0    0  501 -0.00000000000E+00  0.00000000000E+00  0.52998909545E+02  0.52998909545E+02  0.00000000000E+00 0.  1.
          2   -1    0    0  501    0  0.00000000000E+00 -0.00000000000E+00 -0.67518418291E+03  0.67518418291E+03  0.00000000000E+00 0. -1.
         23    2    1    2    0    0  0.12439143326E+03 -0.83784103900E+02 -0.38671746158E+03  0.43323366950E+03  0.12509201640E+03 0.  0.
         23    2    1    2    0    0 -0.12439143326E+03  0.83784103900E+02 -0.23546781179E+03  0.29494942295E+03  0.95168623922E+02 0.  0.
          5    1    3    3  502    0  0.70809819628E+01  0.12261566883E+02 -0.15866668340E+03  0.15935204784E+03  0.41800000000E+01 0.  1.
         -5    1    3    3    0  502  0.11731045129E+03 -0.96045670783E+02 -0.22805077818E+03  0.27388162167E+03  0.41800000000E+01 0.  1.
        -11    1    4    4    0    0 -0.81058631369E+02  0.17152430870E+02 -0.59932579537E+02  0.10225762414E+03  0.00000000000E+00 0. -1.
         11    1    4    4    0    0 -0.43332801887E+02  0.66631673030E+02 -0.17553523225E+03  0.19269179882E+03  0.00000000000E+00 0.  1.
</event>
<event>
 8    1  0.5951278E-006  0.1120975E+03  0.7561462E-02  0.1256734E+00
          1   -1    0    0  501    0  0.00000000000E+00  0.00000000000E+00  0.21192405229E+03  0.21192405229E+03  0.00000000000E+00 0. -1.
         -1   -1    0    0    0  501 -0.00000000000E+00 -0.00000000000E+00 -0.10140900037E+03  0.10140900037E+03  0.00000000000E+00 0.  1.
         23    2    1    2    0    0  0.34980865139E+02  0.33708676868E+02 -0.31698201140E+02  0.13788558422E+03  0.12509085721E+03 0.  0.
         23    2    1    2    0    0 -0.34980865139E+02 -0.33708676868E+02  0.14221325305E+03  0.17544746844E+03  0.90538770797E+02 0.  0.
          5    1    3    3  502    0  0.33589277795E+01  0.78659946993E+02 -0.14660234422E+02  0.80193918286E+02  0.41800000000E+01 0. -1.
         -5    1    3    3    0  502  0.31621937360E+02 -0.44951270125E+02 -0.17037966718E+02  0.57691665933E+02  0.41800000000E+01 0. -1.
        -11    1    4    4    0    0 -0.48847771974E+02  0.50130651624E+01  0.34123093638E+02  0.59796497962E+02  0.00000000000E+00 0.  1.
         11    1    4    4    0    0  0.13866906835E+02 -0.38721742030E+02  0.10809015942E+03  0.11565097048E+03  0.00000000000E+00 0. -1.
</event>
<event>
 8    1  0.5951278E-006  0.7211763E+02  0.7561462E-02  0.1353036E+00
          2   -1    0    0  501    0  0.00000000000E+00  0.00000000000E+00  0.15062969479E+03  0.15062969479E+03  0.00000000000E+00 0. -1.
         -2   -1    0    0    0  501 -0.00000000000E+00 -0.00000000000E+00 -0.10354363274E+03  0.10354363274E+03  0.00000000000E+00 0.  1.
         23    2    1    2    0    0  0.35734892605E+02  0.51054019422E+01 -0.19817525548E+02  0.13169235686E+03  0.12508834821E+03 0.  0.
         23    2    1    2    0    0 -0.35734892605E+02 -0.51054019422E+01  0.66903587599E+02  0.12248097067E+03  0.96033590293E+02 0.  0.
          5    1    3    3  502    0  0.34301394821E+02 -0.97666011390E+01  0.49223588675E+02  0.60929518843E+02  0.41800000000E+01 0. -1.
         -5    1    3    3    0  502  0.14334977845E+01  0.14872003081E+02 -0.69041114223E+02  0.70762838020E+02  0.41800000000E+01 0. -1.
        -11    1    4    4    0    0 -0.22566712307E+01 -0.42534874027E+02  0.51779077912E+01  0.42908260307E+02  0.00000000000E+00 0.  1.
         11    1    4    4    0    0 -0.33478221375E+02  0.37429472085E+02  0.61725679808E+02  0.79572710364E+02  0.00000000000E+00 0. -1.
</event>
<event>
 8    1  0.5951278E-006  0.9451136E+02  0.7561462E-02  0.1292280E+00
         -1   -1    0    0    0  501 -0.00000000000E+00  0.00000000000E+00  0.59195207174E+03  0.59195207174E+03  0.00000000000E+00 0.  1.
          1   -1    0    0  501    0  0.00000000000E+00 -0.00000000000E+00 -0.19873432412E+02  0.19873432412E+02  0.00000000000E+00 0. -1.
         23    2    1    2    0    0  0.10855167756E+01 -0.52916849746E+01  0.37317821541E+03  0.39361922749E+03  0.12507971665E+03 0.  0.
         23    2    1    2    0    0 -0.10855167756E+01  0.52916849746E+01  0.19890042391E+03  0.21820627665E+03  0.89573546665E+02 0.  0.
          5    1    3    3  502    0 -0.56617333225E+02 -0.20147001859E+02  0.24358097974E+03  0.25091948947E+03  0.41800000000E+01 0.  1.
         -5    1    3    3    0  502  0.57702850000E+02  0.14855316884E+02  0.12959723567E+03  0.14269973803E+03  0.41800000000E+01 0.  1.
        -11    1    4    4    0    0 -0.26429437364E+02 -0.20078499958E+02  0.16682236953E+03  0.17009222292E+03  0.00000000000E+00 0.  1.
         11    1    4    4    0    0  0.25343920589E+02  0.25370184933E+02  0.32078054380E+02  0.48114053738E+02  0.00000000000E+00 0. -1.
</event>
<event>
 8    1  0.5951278E-006  0.9108441E+02  0.7561462E-02  0.1300247E+00
         -2   -1    0    0    0  501 -0.00000000000E+00  0.00000000000E+00  0.11521367047E+03  0.11521367047E+03  0.00000000000E+00 0. -1.
          2   -1    0    0  501    0  0.00000000000E+00 -0.00000000000E+00 -0.12720785101E+03  0.12720785101E+03  0.00000000000E+00 0.  1.
         23    2    1    2    0    0 -0.81162161632E+01 -0.52349218037E+02  0.13949041602E+02  0.13656261854E+03  0.12509380251E+03 0.  0.
         23    2    1    2    0    0  0.81162161632E+01  0.52349218037E+02 -0.25943222141E+02  0.10585890295E+03  0.87901893977E+02 0.  0.
          5    1    3    3  502    0 -0.58244360511E+02 -0.33423069263E+02 -0.23264886147E+02  0.71191533329E+02  0.41800000000E+01 0. -1.
         -5    1    3    3    0  502  0.50128144348E+02 -0.18926148774E+02  0.37213927748E+02  0.65371085211E+02  0.41800000000E+01 0. -1.
        -11    1    4    4    0    0 -0.86276732613E+01  0.38372636594E+02 -0.56178525703E+02  0.68577858928E+02  0.00000000000E+00 0.  1.
         11    1    4    4    0    0  0.16743889425E+02  0.13976581443E+02  0.30235303561E+02  0.37281044022E+02  0.00000000000E+00 0. -1.
</event>
<event>
 8    1  0.5951278E-006  0.1902185E+03  0.7561462E-02  0.1158264E+00
         -2   -1    0    0    0  501 -0.00000000000E+00  0.00000000000E+00  0.22671877028E+03  0.22671877028E+03  0.00000000000E+00 0. -1.
          2   -1    0    0  501    0  0.00000000000E+00 -0.00000000000E+00 -0.20913739714E+03  0.20913739714E+03  0.00000000000E+00 0.  1.
         23    2    1    2    0    0 -0.11679493098E+03 -0.14046089192E+03  0.54366997000E+02  0.22797699808E+03  0.12508966077E+03 0.  0.
         23    2    1    2    0    0  0.11679493098E+03  0.14046089192E+03 -0.36785623855E+02  0.20787916933E+03  0.92142546409E+02 0.  0.
          5    1    3    3  502    0 -0.11701036641E+03 -0.10840847157E+03 -0.58057438632E+01  0.15967154291E+03  0.41800000000E+01 0. -1.
         -5    1    3    3    0  502  0.21543542977E+00 -0.32052420357E+02  0.60172740864E+02  0.68305455171E+02  0.41800000000E+01 0. -1.
        -11    1    4    4    0    0  0.88319528217E+02  0.70481891234E+02  0.18180631472E+02  0.11444899046E+03  0.00000000000E+00 0. -1.
         11    1    4    4    0    0  0.28475402759E+02  0.69979000689E+02 -0.54966255327E+02  0.93430178874E+02  0.00000000000E+00 0.  1.
</event>
<event>
 8    1  0.5951278E-006  0.8132824E+02  0.7561462E-02  0.1325324E+00
          1   -1    0    0  501    0  0.00000000000E+00  0.00000000000E+00  0.13743055663E+03  0.13743055663E+03  0.00000000000E+00 0. -1.
         -1   -1    0    0    0  501 -0.00000000000E+00 -0.00000000000E+00 -0.98532679550E+02  0.98532679550E+02  0.00000000000E+00 0.  1.
         23    2    1    2    0    0  0.40543058076E+00  0.19679383062E+01 -0.22252913210E+02  0.12707344137E+03  0.12509368569E+03 0.  0.
         23    2    1    2    0    0 -0.40543058076E+00 -0.19679383062E+01  0.61150790290E+02  0.10888979481E+03  0.90075141444E+02 0.  0.
          5    1    3    3  502    0  0.25657416026E+02 -0.54282302424E+02  0.31222172451E+01  0.60266839921E+02  0.41800000000E+01 0. -1.
         -5    1    3    3    0  502 -0.25251985445E+02  0.56250240730E+02 -0.25375130455E+02  0.66806601446E+02  0.41800000000E+01 0. -1.
        -11    1    4    4    0    0  0.18448677350E+02 -0.90265974675E+01 -0.17944007617E+02  0.27273074032E+02  0.00000000000E+00 0.  1.
         11    1    4    4    0    0 -0.18854107931E+02  0.70586591613E+01  0.79094797907E+02  0.81616720780E+02  0.00000000000E+00 0. -1.
</event>
<event>
 8    1  0.5951278E-006  0.1127168E+03  0.7561462E-02  0.1255620E+00
          1   -1    0    0  501    0  0.00000000000E+00  0.00000000000E+00  0.31670223339E+03  0.31670223339E+03  0.00000000000E+00 0. -1.
         -1   -1    0    0    0  501 -0.00000000000E+00 -0.00000000000E+00 -0.49687726671E+02  0.49687726671E+02  0.00000000000E+00 0.  1.
         23    2    1    2    0    0  0.54019582141E+02  0.17680048738E+02  0.10821503747E+03  0.17489596669E+03  0.12508958969E+03 0.  0.
         23    2    1    2    0    0 -0.54019582141E+02 -0.17680048738E+02  0.15879946925E+03  0.19149399337E+03  0.90675127169E+02 0.  0.
          5    1    3    3  502    0 -0.27824657535E+02  0.23768656418E+02 -0.26133791501E+01  0.36925096418E+02  0.41800000000E+01 0. -1.
         -5    1    3    3    0  502  0.81844239676E+02 -0.60886076804E+01  0.11082841662E+03  0.13797087027E+03  0.41800000000E+01 0. -1.
        -11    1    4    4    0    0 -0.19022580475E+02  0.36942200158E+02  0.52370424236E+02  0.66852419964E+02  0.00000000000E+00 0.  1.
         11    1    4    4    0    0 -0.34997001666E+02 -0.54622248896E+02  0.10642904501E+03  0.12464157341E+03  0.00000000000E+00 0. -1.
</event>
<event>
 8    1  0.5951278E-006  0.9590819E+02  0.7561462E-02  0.1289144E+00
         -2   -1    0    0    0  501 -0.00000000000E+00  0.00000000000E+00  0.32570073457E+02  0.32570073457E+02  0.00000000000E+00 0.  1.
          2   -1    0    0  501    0  0.00000000000E+00 -0.00000000000E+00 -0.48400764726E+03  0.48400764726E+03  0.00000000000E+00 0. -1.
         23    2    1    2    0    0  0.58250025059E+02  0.10172261266E+02 -0.20874886395E+03  0.25044032446E+03  0.12509087734E+03 0.  0.
         23    2    1    2    0    0 -0.58250025059E+02 -0.10172261266E+02 -0.24268870985E+03  0.26613739626E+03  0.91840968415E+02 0.  0.
          5    1    3    3  502    0  0.17511811583E+02 -0.48753234003E+02 -0.35555996424E+02  0.62970172720E+02  0.41800000000E+01 0.  1.
         -5    1    3    3    0  502  0.40738213476E+02  0.58925495269E+02 -0.17319286753E+03  0.18747015174E+03  0.41800000000E+01 0.  1.
        -11    1    4    4    0    0 -0.24624252902E+02  0.12416895011E+02 -0.90675344402E+01  0.29030213460E+02  0.00000000000E+00 0.  1.
         11    1    4    4    0    0 -0.33625772157E+02 -0.22589156277E+02 -0.23362117541E+03  0.23710718280E+03  0.00000000000E+00 0. -1.
</event>
<event>
 8    1  0.5951278E-006  0.1432709E+03  0.7561462E-02  0.1208994E+00
          2   -1    0    0  501    0  0.00000000000E+00  0.00000000000E+00  0.88131040600E+03  0.88131040600E+03  0.00000000000E+00 0. -1.
         -2   -1    0    0    0  501 -0.00000000000E+00 -0.00000000000E+00 -0.34461772102E+02  0.34461772102E+02  0.00000000000E+00 0.  1.
         23    2    1    2    0    0 -0.10184614808E+03 -0.90614120828E+02  0.46330843355E+03  0.49888496023E+03  0.12509173505E+03 0.  0.
         23    2    1    2    0    0  0.10184614808E+03  0.90614120828E+02  0.38354020035E+03  0.41688721787E+03  0.90046156858E+02 0.  0.
          5    1    3    3  502    0 -0.61765788731E+02 -0.64896181894E+02  0.43320365015E+03  0.44239055368E+03  0.41800000000E+01 0. -1.
         -5    1    3    3    0  502 -0.40080359348E+02 -0.25717938934E+02  0.30104783399E+02  0.56494406555E+02  0.41800000000E+01 0. -1.
        -11    1    4    4    0    0  0.36565926323E+02  0.72663344121E+02  0.12131443964E+03  0.14606239014E+03  0.00000000000E+00 0.  1.
         11    1    4    4    0    0  0.65280221757E+02  0.17950776707E+02  0.26222576071E+03  0.27082482773E+03  0.00000000000E+00 0. -1.
</event>
<event>
 8    1  0.5951278E-006  0.1271832E+03  0.7561462E-02  0.1231696E+00
          1   -1    0    0  501    0  0.00000000000E+00  0.00000000000E+00  0.36066265790E+03  0.36066265790E+03  0.00000000000E+00 0. -1.
         -1   -1    0    0    0  501 -0.00000000000E+00 -0.00000000000E+00 -0.54507168036E+02  0.54507168036E+02  0.00000000000E+00 0.  1.
         23    2    1    2    0    0 -0.87019025897E+02 -0.18371326124E+02  0.16795825634E+03  0.22752296465E+03  0.12508759763E+03 0.  0.
         23    2    1    2    0    0  0.87019025897E+02  0.18371326124E+02  0.13819723352E+03  0.18764686128E+03  0.90570705551E+02 0.  0.
          5    1    3    3  502    0 -0.10168830542E+03  0.22407848075E+02  0.14422727039E+03  0.17793707044E+03  0.41800000000E+01 0.  1.
         -5    1    3    3    0  502  0.14669279524E+02 -0.40779174199E+02  0.23730985951E+02  0.49585894207E+02  0.41800000000E+01 0.  1.
        -11    1    4    4    0    0  0.79745609003E+02 -0.71624291273E+01  0.47394743685E+02  0.93042593877E+02  0.00000000000E+00 0.  1.
         11    1    4    4    0    0  0.72734168932E+01  0.25533755251E+02  0.90802489838E+02  0.94604267406E+02  0.00000000000E+00 0. -1.
</event>
<event>
 8    1  0.7166680E-006  0.2055361E+03  0.7561462E-02  0.1145150E+00
         -1   -1    0    0    0  501 -0.00000000000E+00  0.00000000000E+00  0.78537733781E+02  0.78537733781E+02  0.00000000000E+00 0.  1.
          1   -1    0    0  501    0  0.00000000000E+00 -0.00000000000E+00 -0.66568893411E+03  0.66568893411E+03  0.00000000000E+00 0. -1.
         23    2    1    2    0    0  0.19476531037E+03 -0.24658425210E+01 -0.22698248035E+03  0.32420425447E+03  0.12509094983E+03 0.  0.
         23    2    1    2    0    0 -0.19476531037E+03  0.24658425210E+01 -0.36016871998E+03  0.42002241342E+03  0.93582660859E+02 0.  0.
          5    1    3    3  502    0  0.13394614592E+03 -0.44850008040E+02 -0.20065912267E+03  0.24542748244E+03  0.41800000000E+01 0. -1.
         -5    1    3    3    0  502  0.60819164459E+02  0.42384165519E+02 -0.26323357673E+02  0.78776772029E+02  0.41800000000E+01 0. -1.
        -11    1    4    4    0    0 -0.31620892356E+02  0.66312576163E+01 -0.10212945617E+02  0.33884490097E+02  0.00000000000E+00 0.  1.
         11    1    4    4    0    0 -0.16314441802E+03 -0.41654150953E+01 -0.34995577437E+03  0.38613792332E+03  0.00000000000E+00 0. -1.
</event>
<event>
 8    1  0.5951278E-006  0.1333786E+03  0.7561462E-02  0.1222527E+00
          1   -1    0    0  501    0  0.00000000000E+00  0.00000000000E+00  0.26024003858E+03  0.26024003858E+03  0.00000000000E+00 0. -1.
         -1   -1    0    0    0  501 -0.00000000000E+00 -0.00000000000E+00 -0.90267466910E+02  0.90267466910E+02  0.00000000000E+00 0.  1.
         23    2    1    2    0    0  0.91455550631E+01  0.10357093659E+03  0.60912473767E+02  0.17369654436E+03  0.12509828128E+03 0.  0.
         23    2    1    2    0    0 -0.91455550631E+01 -0.10357093659E+03  0.10906009790E+03  0.17681096113E+03  0.92506383231E+02 0.  0.
          5    1    3    3  502    0  0.64999908686E+02  0.39570607617E+02  0.17441759281E+02  0.78182533108E+02  0.41800000000E+01 0.  1.
         -5    1    3    3    0  502 -0.55854353622E+02  0.64000328971E+02  0.43470714486E+02  0.95514011250E+02  0.41800000000E+01 0.  1.
        -11    1    4    4    0    0  0.32776350024E+01 -0.62548664809E+02  0.33296968913E+01  0.62722924373E+02  0.00000000000E+00 0.  1.
         11    1    4    4    0    0 -0.12423190066E+02 -0.41022271780E+02  0.10573040101E+03  0.11408803676E+03  0.00000000000E+00 0. -1.
</event>
<event>
 8    1  0.5951278E-006  0.1088632E+03  0.7561462E-02  0.1262690E+00
          1   -1    0    0  501    0  0.00000000000E+00  0.00000000000E+00  0.53676105615E+03  0.53676105615E+03  0.00000000000E+00 0. -1.
         -1   -1    0    0    0  501 -0.00000000000E+00 -0.00000000000E+00 -0.29329648295E+02  0.29329648295E+02  0.00000000000E+00 0.  1.
         23    2    1    2    0    0  0.17424601260E+01 -0.57450056071E+02  0.16763987210E+03  0.20945359002E+03  0.11164288847E+03 0.  0.
         23    2    1    2    0    0 -0.17424601260E+01  0.57450056071E+02  0.33979153576E+03  0.35663711443E+03  0.91805220446E+02 0.  0.
          5    1    3    3  502    0  0.17268282082E+02 -0.81615061925E+02  0.15826137627E+03  0.17895068460E+03  0.41800000000E+01 0. -1.
         -5    1    3    3    0  502 -0.15525821956E+02  0.24165005854E+02  0.93784958287E+01  0.30502905425E+02  0.41800000000E+01 0.  1.
        -11    1    4    4    0    0  0.40971354321E+02  0.11754773081E+02  0.97657281693E+02  0.10655407657E+03  0.00000000000E+00 0. -1.
         11    1    4    4    0    0 -0.42713814447E+02  0.45695282990E+02  0.24213425407E+03  0.25008303786E+03  0.00000000000E+00 0.  1.
</event>
<event>
 8    1  0.5951278E-006  0.1007495E+03  0.7561462E-02  0.1278728E+00
          2   -1    0    0  501    0  0.00000000000E+00  0.00000000000E+00  0.17093865454E+03  0.17093865454E+03  0.00000000000E+00 0.  1.
         -2   -1    0    0    0  501 -0.00000000000E+00 -0.00000000000E+00 -0.73773293710E+02  0.73773293710E+02  0.00000000000E+00 0. -1.
         23    2    1    2    0    0  0.22195640259E+02  0.16083945403E+02  0.71736228800E+02  0.14678587522E+03  0.12509463176E+03 0.  0.
         23    2    1    2    0    0 -0.22195640259E+02 -0.16083945403E+02  0.25429132025E+02  0.97926073028E+02  0.90507100699E+02 0.  0.
          5    1    3    3  502    0 -0.51490638710E+02 -0.24343728383E+01  0.24530754043E+02  0.57240216105E+02  0.41800000000E+01 0.  1.
         -5    1    3    3    0  502  0.73686278969E+02  0.18518318242E+02  0.47205474758E+02  0.89545659112E+02  0.41800000000E+01 0.  1.
        -11    1    4    4    0    0  0.10798965723E+02  0.21267206820E+02 -0.19513687944E+02  0.30817134256E+02  0.00000000000E+00 0. -1.
         11    1    4    4    0    0 -0.32994605982E+02 -0.37351152223E+02  0.44942819969E+02  0.67108938772E+02  0.00000000000E+00 0.  1.
</event>
<event>
 8    1  0.5951278E-006  0.1932287E+03  0.7561462E-02  0.1155581E+00
          2   -1    0    0  501    0  0.00000000000E+00  0.00000000000E+00  0.11584980160E+03  0.11584980160E+03  0.00000000000E+00 0. -1.
         -2   -1    0    0    0  501 -0.00000000000E+00 -0.00000000000E+00 -0.36989822030E+03  0.36989822030E+03  0.00000000000E+00 0.  1.
         23    2    1    2    0    0 -0.16811804724E+03 -0.51233579993E+02 -0.14617144100E+03  0.26057327230E+03  0.12507510762E+03 0.  0.
         23    2    1    2    0    0  0.16811804724E+03  0.51233579993E+02 -0.10787697770E+03  0.22517474960E+03  0.90430459553E+02 0.  0.
          5    1    3    3  502    0  0.94042006365E+01  0.16083719380E+01 -0.51454650430E+02  0.52498374268E+02  0.41800000000E+01 0. -1.
         -5    1    3    3    0  502 -0.17752224788E+03 -0.52841951931E+02 -0.94716790566E+02  0.20807489803E+03  0.41800000000E+01 0. -1.
        -11    1    4    4    0    0  0.63232022848E+02  0.57818839069E+02 -0.19525881842E+02  0.87878136795E+02  0.00000000000E+00 0. -1.
         11    1    4    4    0    0  0.10488602439E+03 -0.65852590761E+01 -0.88351095856E+02  0.13729661281E+03  0.00000000000E+00 0.  1.
</event>
<event>
 8    1  0.5951278E-006  0.1543244E+03  0.7561462E-02  0.1195258E+00
          2   -1    0    0  501    0  0.00000000000E+00  0.00000000000E+00  0.64315055625E+02  0.64315055625E+02  0.00000000000E+00 0. -1.
         -2   -1    0    0    0  501 -0.00000000000E+00 -0.00000000000E+00 -0.44134331095E+03  0.44134331095E+03  0.00000000000E+00 0.  1.
         23    2    1    2    0    0 -0.10764204332E+03 -0.61795684393E+02 -0.15507538545E+03  0.23473664578E+03  0.12508957430E+03 0.  0.
         23    2    1    2    0    0  0.10764204332E+03  0.61795684393E+02 -0.22195286987E+03  0.27092172080E+03  0.93434395462E+02 0.  0.
          5    1    3    3  502    0 -0.10328346203E+03 -0.84358023675E+02 -0.78774122255E+02  0.15494058353E+03  0.41800000000E+01 0. -1.
         -5    1    3    3    0  502 -0.43585812857E+01  0.22562339282E+02 -0.76301263198E+02  0.79796062248E+02  0.41800000000E+01 0. -1.
        -11    1    4    4    0    0  0.10383224109E+03  0.81377485864E+02 -0.20894611163E+03  0.24710707611E+03  0.00000000000E+00 0.  1.
         11    1    4    4    0    0  0.38098022241E+01 -0.19581801470E+02 -0.13006758245E+02  0.23814644693E+02  0.00000000000E+00 0. -1.
</event>
<event>
 8    1  0.5951278E-006  0.1084944E+03  0.7561462E-02  0.1263384E+00
         -4   -1    0    0    0  501 -0.00000000000E+00  0.00000000000E+00  0.40971953129E+03  0.40971953129E+03  0.00000000000E+00 0.  1.
          4   -1    0    0  501    0  0.00000000000E+00 -0.00000000000E+00 -0.35863967313E+02  0.35863967313E+02  0.00000000000E+00 0. -1.
         23    2    1    2    0    0  0.45070720129E+02 -0.13556378991E+02  0.26048052479E+03  0.29276719691E+03  0.12508949823E+03 0.  0.
         23    2    1    2    0    0 -0.45070720129E+02  0.13556378991E+02  0.11337503919E+03  0.15281630170E+03  0.91015258766E+02 0.  0.
          5    1    3    3  502    0  0.46053795136E+02 -0.62065767433E+02  0.10924652364E+03  0.13388572314E+03  0.41800000000E+01 0. -1.
         -5    1    3    3    0  502 -0.98307500648E+00  0.48509388442E+02  0.15123400115E+03  0.15888147377E+03  0.41800000000E+01 0. -1.
        -11    1    4    4    0    0 -0.61310431946E+02 -0.10160654423E+02  0.10642862656E+03  0.12324471800E+03  0.00000000000E+00 0.  1.
         11    1    4    4    0    0  0.16239711817E+02  0.23717033414E+02  0.69464126333E+01  0.29571583697E+02  0.00000000000E+00 0. -1.
</event>
<event>
 8    1  0.5951278E-006  0.1501588E+03  0.7561462E-02  0.1200278E+00
         -3   -1    0    0    0  501 -0.00000000000E+00  0.00000000000E+00  0.60931242905E+02  0.60931242905E+02  0.00000000000E+00 0.  1.
          3   -1    0    0  501    0  0.00000000000E+00 -0.00000000000E+00 -0.40646682779E+03  0.40646682779E+03  0.00000000000E+00 0. -1.
         23    2    1    2    0    0 -0.12057569788E+03  0.21454055550E+02 -0.15119783322E+03  0.23131650071E+03  0.12509102011E+03 0.  0.
         23    2    1    2    0    0  0.12057569788E+03 -0.21454055550E+02 -0.19433775166E+03  0.23608156998E+03  0.54484589969E+02 0.  0.
          5    1    3    3  502    0 -0.59821392129E+01 -0.37749888664E+02 -0.93920462765E+01  0.39579325625E+02  0.41800000000E+01 0. -1.
         -5    1    3    3    0  502 -0.11459355867E+03  0.59203944214E+02 -0.14180578695E+03  0.19173717509E+03  0.41800000000E+01 0. -1.
        -11    1    4    4    0    0  0.15910277094E+01 -0.13471535752E+02 -0.31048878760E+02  0.33882835138E+02  0.00000000000E+00 0.  1.
         11    1    4    4    0    0  0.11898467017E+03 -0.79825197976E+01 -0.16328887290E+03  0.20219873484E+03  0.00000000000E+00 0. -1.
</event>
<event>
 8    1  0.5951278E-006  0.2871271E+03  0.7561462E-02  0.1091859E+00
          2   -1    0    0  501    0  0.00000000000E+00  0.00000000000E+00  0.29375534087E+03  0.29375534087E+03  0.00000000000E+00 0. -1.
         -2   -1    0    0    0  501 -0.00000000000E+00 -0.00000000000E+00 -0.31516561129E+03  0.31516561129E+03  0.00000000000E+00 0.  1.
         23    2    1    2    0    0  0.18643447057E+03  0.20706819355E+03 -0.64293154142E+02  0.31211252808E+03  0.12508226060E+03 0.  0.
         23    2    1    2    0    0 -0.18643447057E+03 -0.20706819355E+03  0.42882883720E+02  0.29680842408E+03  0.92850688176E+02 0.  0.
          5    1    3    3  502    0  0.11604945476E+03  0.56931197189E+02 -0.68173922634E+02  0.14619778825E+03  0.41800000000E+01 0.  1.
         -5    1    3    3    0  502  0.70385015814E+02  0.15013699636E+03  0.38807684924E+01  0.16591473982E+03  0.41800000000E+01 0.  1.
        -11    1    4    4    0    0 -0.13270449727E+03 -0.13668758327E+03 -0.14876144842E+02  0.19108971375E+03  0.00000000000E+00 0.  1.
         11    1    4    4    0    0 -0.53729973300E+02 -0.70380610274E+02  0.57759028562E+02  0.10571871033E+03  0.00000000000E+00 0. -1.
</event>
<event>
 8    1  0.5951278E-006  0.8243459E+02  0.7561462E-02  0.1322281E+00
         -3   -1    0    0    0  501 -0.00000000000E+00  0.00000000000E+00  0.19931738997E+02  0.19931738997E+02  0.00000000000E+00 0.  1.
          3   -1    0    0  501    0  0.00000000000E+00 -0.00000000000E+00 -0.63829582853E+03  0.63829582853E+03  0.00000000000E+00 0. -1.
         23    2    1    2    0    0 -0.23105790334E+02 -0.11861029032E+01 -0.29762305980E+03  0.32367055337E+03  0.12509139461E+03 0.  0.
         23    2    1    2    0    0  0.23105790334E+02  0.11861029032E+01 -0.32074102972E+03  0.33455701415E+03  0.92294654126E+02 0.  0.
          5    1    3    3  502    0 -0.42480491470E+02  0.13810776805E+02 -0.27958163627E+02  0.52862661917E+02  0.41800000000E+01 0.  1.
         -5    1    3    3    0  502  0.19374701136E+02 -0.14996879708E+02 -0.26966489618E+03  0.27080789146E+03  0.41800000000E+01 0.  1.
        -11    1    4    4    0    0  0.58360207038E+01  0.46392107345E+02 -0.15792329673E+03  0.16469989196E+03  0.00000000000E+00 0. -1.
         11    1    4    4    0    0  0.17269769630E+02 -0.45206004442E+02 -0.16281773300E+03  0.16985712219E+03  0.00000000000E+00 0.  1.
</event>
<event>
 8    1  0.5951278E-006  0.1065976E+03  0.7561462E-02  0.1267004E+00
          1   -1    0    0  501    0  0.00000000000E+00  0.00000000000E+00  0.54355263410E+03  0.54355263410E+03  0.00000000000E+00 0. -1.
         -1   -1    0    0    0  501 -0.00000000000E+00 -0.00000000000E+00 -0.24439260083E+02  0.24439260083E+02  0.00000000000E+00 0.  1.
         23    2    1    2    0    0 -0.34855135018E+02 -0.18699524867E+02  0.24390567901E+03  0.27694907753E+03  0.12508500561E+03 0.  0.
         23    2    1    2    0    0  0.34855135018E+02  0.18699524867E+02  0.27520769501E+03  0.29104281664E+03  0.86035417486E+02 0.  0.
          5    1    3    3  502    0 -0.72656677474E+02  0.15906077743E+02  0.18080869751E+03  0.19555371023E+03  0.41800000000E+01 0. -1.
         -5    1    3    3    0  502  0.37801542456E+02 -0.34605602610E+02  0.63096981499E+02  0.81395367303E+02  0.41800000000E+01 0. -1.
        -11    1    4    4    0    0  0.29340732504E+02  0.48657609925E+02  0.11870091618E+03  0.13159919867E+03  0.00000000000E+00 0.  1.
         11    1    4    4    0    0  0.55144025139E+01 -0.29958085059E+02  0.15650677882E+03  0.15944361798E+03  0.00000000000E+00 0. -1.
</event>
<event>
 8    1  0.5951278E-006  0.1533506E+03  0.7561462E-02  0.1196415E+00
         -1   -1    0    0    0  501 -0.00000000000E+00  0.00000000000E+00  0.62945957404E+02  0.62945957404E+02  0.00000000000E+00 0.  1.
          1   -1    0    0  501    0  0.00000000000E+00 -0.00000000000E+00 -0.53826442295E+03  0.53826442295E+03  0.00000000000E+00 0. -1.
         23    2    1    2    0    0 -0.37914124341E+02 -0.12850463085E+03 -0.14845841453E+03  0.23587876219E+03  0.12509184079E+03 0.  0.
         23    2    1    2    0    0  0.37914124341E+02  0.12850463085E+03 -0.32686005101E+03  0.36533161816E+03  0.93159955507E+02 0.  0.
          5    1    3    3  502    0 -0.74773924442E+02 -0.96118640593E+02 -0.62816936792E+02  0.13708892294E+03  0.41800000000E+01 0.  1.
         -5    1    3    3    0  502  0.36859800101E+02 -0.32385990252E+02 -0.85641477742E+02  0.98789839245E+02  0.41800000000E+01 0.  1.
        -11    1    4    4    0    0  0.17613295877E+02  0.93477202203E+02 -0.11315311010E+03  0.14782368501E+03  0.00000000000E+00 0.  1.
         11    1    4    4    0    0  0.20300828464E+02  0.35027428643E+02 -0.21370694091E+03  0.21750793315E+03  0.00000000000E+00 0. -1.
</event>
<event>
 8    1  0.5951278E-006  0.1070829E+03  0.7561462E-02  0.1266069E+00
          1   -1    0    0  501    0  0.00000000000E+00  0.00000000000E+00  0.86896355937E+02  0.86896355937E+02  0.00000000000E+00 0. -1.
         -1   -1    0    0    0  501 -0.00000000000E+00 -0.00000000000E+00 -0.16319920758E+03  0.16319920758E+03  0.00000000000E+00 0.  1.
         23    2    1    2    0    0 -0.31566531655E+02 -0.19807892866E+02 -0.76724044372E+02  0.15140404277E+03  0.12509119330E+03 0.  0.
         23    2    1    2    0    0  0.31566531655E+02  0.19807892866E+02  0.42119273023E+00  0.98691520746E+02  0.91384026631E+02 0.  0.
          5    1    3    3  502    0  0.32755260727E+02 -0.39083255536E+02 -0.65630015928E+02  0.83217662544E+02  0.41800000000E+01 0.  1.
         -5    1    3    3    0  502 -0.64321792382E+02  0.19275362670E+02 -0.11094028444E+02  0.68186380226E+02  0.41800000000E+01 0.  1.
        -11    1    4    4    0    0 -0.15965121452E+02  0.40762141181E+02 -0.11775725712E+02  0.45333265630E+02  0.00000000000E+00 0.  1.
         11    1    4    4    0    0  0.47531653107E+02 -0.20954248315E+02  0.12196918442E+02  0.53358255116E+02  0.00000000000E+00 0. -1.
</event>
<event>
 8    1  0.5951278E-006  0.1071658E+03  0.7561462E-02  0.1265910E+00
          1   -1    0    0  501    0  0.00000000000E+00  0.00000000000E+00  0.79508701996E+03  0.79508701996E+03  0.00000000000E+00 0. -1.
         -1   -1    0    0    0  501 -0.00000000000E+00 -0.00000000000E+00 -0.29842269909E+02  0.29842269909E+02  0.00000000000E+00 0.  1.
         23    2    1    2    0    0 -0.80751863749E+02  0.10798183278E+02  0.22044035056E+03  0.26623151636E+03  0.12509119829E+03 0.  0.
         23    2    1    2    0    0  0.80751863749E+02 -0.10798183278E+02  0.54480439949E+03  0.55869777350E+03  0.93241107622E+02 0.  0.
          5    1    3    3  502    0 -0.46577487408E+02 -0.13485328520E+02  0.75984128367E+01  0.49259767520E+02  0.41800000000E+01 0. -1.
         -5    1    3    3    0  502 -0.34174376341E+02  0.24283511798E+02  0.21284193772E+03  0.21697174884E+03  0.41800000000E+01 0. -1.
        -11    1    4    4    0    0  0.71785834982E+02  0.32868232637E+02  0.36620090058E+03  0.37461530456E+03  0.00000000000E+00 0. -1.
         11    1    4    4    0    0  0.89660287669E+01 -0.43666415915E+02  0.17860349891E+03  0.18408246895E+03  0.00000000000E+00 0.  1.
</event>
<event>
 8    1  0.5951278E-006  0.7055357E+02  0.7561462E-02  0.1358221E+00
         -2   -1    0    0    0  501 -0.00000000000E+00  0.00000000000E+00  0.28192137053E+02  0.28192137053E+02  0.00000000000E+00 0.  1.
          2   -1    0    0  501    0  0.00000000000E+00 -0.00000000000E+00 -0.60915102117E+03  0.60915102117E+03  0.00000000000E+00 0. -1.
         23    2    1    2    0    0 -0.34032791670E+02  0.11005807494E+02 -0.16191030633E+03  0.20771583205E+03  0.12510619841E+03 0.  0.
         23    2    1    2    0    0  0.34032791670E+02 -0.11005807494E+02 -0.41904857779E+03  0.42962732617E+03  0.87741496110E+02 0.  0.
          5    1    3    3  502    0 -0.93122437411E+01 -0.96843271198E+01  0.19148488832E+02  0.23762177927E+02  0.41800000000E+01 0. -1.
         -5    1    3    3    0  502 -0.24720547929E+02  0.20690134614E+02 -0.18105879516E+03  0.18395365412E+03  0.41800000000E+01 0. -1.
        -11    1    4    4    0    0  0.55574548752E+02  0.17985110073E+02 -0.24444025898E+03  0.25132257134E+03  0.00000000000E+00 0.  1.
         11    1    4    4    0    0 -0.21541757082E+02 -0.28990917567E+02 -0.17460831880E+03  0.17830475483E+03  0.00000000000E+00 0. -1.
</event>
<event>
 8    1  0.5951278E-006  0.1070052E+03  0.7561462E-02  0.1266218E+00
          2   -1    0    0  501    0  0.00000000000E+00  0.00000000000E+00  0.55643699544E+03  0.55643699544E+03  0.00000000000E+00 0.  1.
         -2   -1    0    0    0  501 -0.00000000000E+00 -0.00000000000E+00 -0.26122803955E+02  0.26122803955E+02  0.00000000000E+00 0. -1.
         23    2    1    2    0    0 -0.27391607561E+02 -0.22248650763E+02  0.20494551812E+03  0.24270595167E+03  0.12513277330E+03 0.  0.
         23    2    1    2    0    0  0.27391607561E+02  0.22248650763E+02  0.32536867337E+03  0.33985384773E+03  0.91600008619E+02 0.  0.
          5    1    3    3  502    0  0.12337266730E+02 -0.64703129295E+02  0.14380971843E+03  0.15823214151E+03  0.41800000000E+01 0.  1.
         -5    1    3    3    0  502 -0.39728874292E+02  0.42454478533E+02  0.61135799688E+02  0.84473810163E+02  0.41800000000E+01 0.  1.
        -11    1    4    4    0    0  0.32286980017E+02  0.51103016670E+02  0.27530618987E+03  0.28186426799E+03  0.00000000000E+00 0.  1.
         11    1    4    4    0    0 -0.48953724557E+01 -0.28854365908E+02  0.50062483501E+02  0.57989579734E+02  0.00000000000E+00 0. -1.
</event>
<event>
 7    1  0.5951278E-006  0.1048968E+03  0.7561462E-02  0.1270323E+00
         -1   -1    0    0    0  501 -0.00000000000E+00  0.00000000000E+00  0.88010907172E+02  0.88010907172E+02  0.00000000000E+00 0. -1.
          1   -1    0    0  501    0  0.00000000000E+00 -0.00000000000E+00 -0.19769303037E+03  0.19769303037E+03  0.00000000000E+00 0.  1.
         23    2    1    2    0    0  0.80759890499E+02  0.17970231682E+01 -0.12074902999E+02  0.14939363074E+03  0.12508902597E+03 0.  0.
          5    1    3    3  502    0  0.26177388652E+02  0.42206959076E+02 -0.50747263271E+02  0.71129742025E+02  0.41800000000E+01 0. -1.
         -5    1    3    3    0  502  0.54582501847E+02 -0.40409935907E+02  0.38672360272E+02  0.78263888716E+02  0.41800000000E+01 0. -1.
        -11    1    1    2    0    0 -0.66969843128E+02 -0.19236338973E+02 -0.57028918059E+02  0.90040513774E+02  0.00000000000E+00 0. -1.
         11    1    1    2    0    0 -0.13790047370E+02  0.17439315804E+02 -0.40578302139E+02  0.46269793026E+02  0.00000000000E+00 0.  1.
</event>
<event>
 8    1  0.5951278E-006  0.1149089E+03  0.7561462E-02  0.1251740E+00
         -3   -1    0    0    0  501 -0.00000000000E+00  0.00000000000E+00  0.43577990229E+02  0.43577990229E+02  0.00000000000E+00 0.  1.
          3   -1    0    0  501    0  0.00000000000E+00 -0.00000000000E+00 -0.32842024010E+03  0.32842024010E+03  0.00000000000E+00 0. -1.
         23    2    1    2    0    0 -0.28602573645E+02 -0.42343301152E+02 -0.14298768580E+03  0.19673165735E+03  0.12508718697E+03 0.  0.
         23    2    1    2    0    0  0.28602573645E+02  0.42343301152E+02 -0.14185456407E+03  0.17526657297E+03  0.89356543591E+02 0.  0.
          5    1    3    3  502    0 -0.30486745195E+02 -0.85919995497E+02 -0.98837415180E+02  0.13452878613E+03  0.41800000000E+01 0.  1.
         -5    1    3    3    0  502  0.18841715499E+01  0.43576694345E+02 -0.44150270617E+02  0.62202871220E+02  0.41800000000E+01 0.  1.
        -11    1    4    4    0    0  0.31210168880E+02 -0.16861770552E+02 -0.22495994261E+02  0.42005519941E+02  0.00000000000E+00 0.  1.
         11    1    4    4    0    0 -0.26075952352E+01  0.59205071704E+02 -0.11935856981E+03  0.13326105303E+03  0.00000000000E+00 0. -1.
</event>
<event>
 8    1  0.5951278E-006  0.1011566E+03  0.7561462E-02  0.1277882E+00
          2   -1    0    0  501    0  0.00000000000E+00  0.00000000000E+00  0.20230716305E+03  0.20230716305E+03  0.00000000000E+00 0. -1.
         -2   -1    0    0    0  501 -0.00000000000E+00 -0.00000000000E+00 -0.10537724710E+03  0.10537724710E+03  0.00000000000E+00 0.  1.
         23    2    1    2    0    0  0.79863962434E+02  0.30149592047E+01 -0.57334676961E+01  0.14855329037E+03  0.12509142638E+03 0.  0.
         23    2    1    2    0    0 -0.79863962434E+02 -0.30149592047E+01  0.10266338364E+03  0.15913111978E+03  0.91627509332E+02 0.  0.
          5    1    3    3  502    0  0.38694692065E+02  0.40433214208E+02 -0.51670257386E+02  0.76285069991E+02  0.41800000000E+01 0. -1.
         -5    1    3    3    0  502  0.41169270370E+02 -0.37418255003E+02  0.45936789690E+02  0.72268220383E+02  0.41800000000E+01 0. -1.
        -11    1    4    4    0    0 -0.64599650236E+02  0.15473181337E+02  0.14800346101E+02  0.68055744769E+02  0.00000000000E+00 0.  1.
         11    1    4    4    0    0 -0.15264312198E+02 -0.18488140542E+02  0.87863037536E+02  0.91075375007E+02  0.00000000000E+00 0. -1.
</event>
<event>
 8    1  0.5951278E-006  0.1113453E+03  0.7561462E-02  0.1258099E+00
          4   -1    0    0  501    0  0.00000000000E+00  0.00000000000E+00  0.15167149488E+03  0.15167149488E+03  0.00000000000E+00 0. -1.
         -4   -1    0    0    0  501 -0.00000000000E+00 -0.00000000000E+00 -0.10215569456E+03  0.10215569456E+03  0.00000000000E+00 0.  1.
         23    2    1    2    0    0  0.50569563553E+01  0.38452417920E+02 -0.12400130733E+02  0.13155143647E+03  0.12509139036E+03 0.  0.
         23    2    1    2    0    0 -0.50569563553E+01 -0.38452417920E+02  0.61915931057E+02  0.12227575297E+03  0.98049048927E+02 0.  0.
          5    1    3    3  502    0  0.63437852407E+02  0.34191932860E+02 -0.43631577782E+01  0.72318455020E+02  0.41800000000E+01 0.  1.
         -5    1    3    3    0  502 -0.58380896052E+02  0.42604850602E+01 -0.80369729548E+01  0.59232981446E+02  0.41800000000E+01 0.  1.
        -11    1    4    4    0    0  0.32256749764E+02 -0.43510993983E+02  0.54926360650E+01  0.54441469062E+02  0.00000000000E+00 0.  1.
         11    1    4    4    0    0 -0.37313706119E+02  0.50585760632E+01  0.56423294992E+02  0.67834283912E+02  0.00000000000E+00 0. -1.
</event>
<event>
 8    1  0.5951278E-006  0.9334095E+02  0.7561462E-02  0.1294957E+00
         -1   -1    0    0    0  501 -0.00000000000E+00  0.00000000000E+00  0.75854232348E+02  0.75854232348E+02  0.00000000000E+00 0.  1.
          1   -1    0    0  501    0  0.00000000000E+00 -0.00000000000E+00 -0.17308910757E+03  0.17308910757E+03  0.00000000000E+00 0. -1.
         23    2    1    2    0    0  0.38428301443E+02 -0.47185184447E+01 -0.27505285682E+02  0.12673823975E+03  0.11750336976E+03 0.  0.
         23    2    1    2    0    0 -0.38428301443E+02  0.47185184447E+01 -0.69729589540E+02  0.12220510017E+03  0.92589805501E+02 0.  0.
          5    1    3    3  502    0  0.67969913287E+02 -0.68595777971E+01 -0.53686207233E+02  0.86986459676E+02  0.41800000000E+01 0. -1.
         -5    1    3    3    0  502 -0.29541611845E+02  0.21410593523E+01  0.26180921551E+02  0.39751780071E+02  0.41800000000E+01 0.  1.
        -11    1    4    4    0    0 -0.21132068424E+02 -0.37309490497E+02 -0.63079687905E+02  0.76273254967E+02  0.00000000000E+00 0. -1.
         11    1    4    4    0    0 -0.17296233018E+02  0.42028008942E+02 -0.66499016353E+01  0.45931845206E+02  0.00000000000E+00 0.  1.
</event>
<event>
 8    1  0.5951278E-006  0.9260395E+02  0.7561462E-02  0.1296666E+00
          1   -1    0    0  501    0  0.00000000000E+00  0.00000000000E+00  0.16298521993E+03  0.16298521993E+03  0.00000000000E+00 0. -1.
         -1   -1    0    0    0  501 -0.00000000000E+00 -0.00000000000E+00 -0.20728587661E+03  0.20728587661E+03  0.00000000000E+00 0.  1.
         23    2    1    2    0    0 -0.40874259859E+02  0.18935585828E+02 -0.16584945860E+03  0.21256080178E+03  0.12508712966E+03 0.  0.
         23    2    1    2    0    0  0.40874259859E+02 -0.18935585828E+02  0.12154880192E+03  0.15771029477E+03  0.89828527201E+02 0.  0.
          5    1    3    3  502    0  0.30768050001E+02 -0.32268488250E+02 -0.57161036205E+02  0.72613942840E+02  0.41800000000E+01 0. -1.
         -5    1    3    3    0  502 -0.71642309859E+02  0.51204074078E+02 -0.10868842239E+03  0.13994685894E+03  0.41800000000E+01 0. -1.
        -11    1    4    4    0    0  0.13755910984E+02  0.63852722431E+01 -0.11851125913E+02  0.19246973113E+02  0.00000000000E+00 0.  1.
         11    1    4    4    0    0  0.27118348875E+02 -0.25320858071E+02  0.13339992783E+03  0.13846332166E+03  0.00000000000E+00 0. -1.
</event>
<event>
 8    1  0.5951278E-006  0.1350896E+03  0.7561462E-02  0.1220093E+00
          2   -1    0    0  501    0  0.00000000000E+00  0.00000000000E+00  0.57283193755E+02  0.57283193755E+02  0.00000000000E+00 0. -1.
         -2   -1    0    0    0  501 -0.00000000000E+00 -0.00000000000E+00 -0.38920406567E+03  0.38920406567E+03  0.00000000000E+00 0.  1.
         23    2    1    2    0    0 -0.50656581961E+02 -0.89437617864E+02 -0.17697325356E+03  0.23985320235E+03  0.12507937246E+03 0.  0.
         23    2    1    2    0    0  0.50656581961E+02  0.89437617864E+02 -0.15494761835E+03  0.20663405707E+03  0.90131527923E+02 0.  0.
          5    1    3    3  502    0 -0.36335610079E+02 -0.11376970603E+03 -0.93803173498E+02  0.15192211929E+03  0.41800000000E+01 0. -1.
         -5    1    3    3    0  502 -0.14320971881E+02  0.24332088168E+02 -0.83170080063E+02  0.87931083059E+02  0.41800000000E+01 0. -1.
        -11    1    4    4    0    0  0.65329994795E+02  0.57677626128E+02 -0.60977438358E+02  0.10636242177E+03  0.00000000000E+00 0. -1.
         11    1    4    4    0    0 -0.14673412835E+02  0.31759991736E+02 -0.93970179992E+02  0.10027163531E+03  0.00000000000E+00 0.  1.
</event>
<event>
 7    1  0.5951278E-006  0.2289573E+03  0.7561462E-02  0.1127376E+00
          2   -1    0    0  501    0  0.00000000000E+00  0.00000000000E+00  0.72345787539E+03  0.72345787539E+03  0.00000000000E+00 0. -1.
         -2   -1    0    0    0  501 -0.00000000000E+00 -0.00000000000E+00 -0.14916767413E+03  0.14916767413E+03  0.00000000000E+00 0.  1.
         23    2    1    2    0    0  0.56316738415E+02  0.43371170248E+02  0.21304081211E+03  0.24102981783E+03  0.87500583010E+02 0.  0.
          5    1    1    2  502    0 -0.15698471202E+03 -0.14775426224E+03  0.42232641545E+03  0.47418624549E+03  0.41800000000E+01 0. -1.
         -5    1    1    2    0  502  0.10066797361E+03  0.10438309199E+03 -0.61077026304E+02  0.15740948620E+03  0.41800000000E+01 0.  1.
        -11    1    3    3    0    0  0.70009255404E+02  0.45300761278E+02  0.21121775085E+03  0.22708234869E+03  0.00000000000E+00 0. -1.
         11    1    3    3    0    0 -0.13692516990E+02 -0.19295910305E+01  0.18230612591E+01  0.13947469140E+02  0.00000000000E+00 0.  1.
</event>
<event>
 7    1  0.5951278E-006  0.1312840E+03  0.7561462E-02  0.1225563E+00
         -2   -1    0    0    0  501 -0.00000000000E+00  0.00000000000E+00  0.26732975432E+03  0.26732975432E+03  0.00000000000E+00 0.  1.
          2   -1    0    0  501    0  0.00000000000E+00 -0.00000000000E+00 -0.25506517839E+03  0.25506517839E+03  0.00000000000E+00 0. -1.
         23    2    1    2    0    0 -0.11083869741E+03  0.46762881949E+02 -0.18116148386E+03  0.23626655592E+03  0.92360263312E+02 0.  0.
          5    1    1    2  502    0  0.10044744327E+02 -0.19860135787E+02 -0.31125497433E+02  0.38491438951E+02  0.41800000000E+01 0. -1.
         -5    1    1    2    0  502  0.10079395309E+03 -0.26902746162E+02  0.22455155722E+03  0.24763693783E+03  0.41800000000E+01 0.  1.
        -11    1    3    3    0    0 -0.63347463485E+02 -0.70571681111E+01 -0.33322343990E+02  0.71924150052E+02  0.00000000000E+00 0.  1.
         11    1    3    3    0    0 -0.47491233929E+02  0.53820050060E+02 -0.14783913987E+03  0.16434240587E+03  0.00000000000E+00 0. -1.
</event>
<event>
 8    1  0.5951278E-006  0.1037736E+03  0.7561462E-02  0.1272555E+00
         -2   -1    0    0    0  501 -0.00000000000E+00  0.00000000000E+00  0.89307014268E+02  0.89307014268E+02  0.00000000000E+00 0.  1.
          2   -1    0    0  501    0  0.00000000000E+00 -0.00000000000E+00 -0.18850130387E+03  0.18850130387E+03  0.00000000000E+00 0. -1.
         23    2    1    2    0    0  0.15587135380E+02  0.66225672864E+02 -0.76190171790E+02  0.16150051523E+03  0.12509466658E+03 0.  0.
         23    2    1    2    0    0 -0.15587135380E+02 -0.66225672864E+02 -0.23004117812E+02  0.11630780291E+03  0.91485064605E+02 0.  0.
          5    1    3    3  502    0  0.54962254494E+02  0.62876565193E+01 -0.70113417862E+02  0.89407761452E+02  0.41800000000E+01 0. -1.
         -5    1    3    3    0  502 -0.39375119114E+02  0.59938016345E+02 -0.60767539279E+01  0.72092753776E+02  0.41800000000E+01 0. -1.
        -11    1    4    4    0    0  0.18628056447E+01 -0.62323837933E+02  0.23384337787E+02  0.66592477603E+02  0.00000000000E+00 0.  1.
         11    1    4    4    0    0 -0.17449941025E+02 -0.39018349318E+01 -0.46388455599E+02  0.49715325308E+02  0.00000000000E+00 0. -1.
</event>
<event>
 8    1  0.5951278E-006  0.9631570E+02  0.7561462E-02  0.1288240E+00
         -1   -1    0    0    0  501 -0.00000000000E+00  0.00000000000E+00  0.61144003230E+02  0.61144003230E+02  0.00000000000E+00 0.  1.
          1   -1    0    0  501    0  0.00000000000E+00 -0.00000000000E+00 -0.22546125995E+03  0.22546125995E+03  0.00000000000E+00 0. -1.
         23    2    1    2    0    0 -0.37284823091E+01 -0.41240652610E+02 -0.10461565793E+03  0.16818751457E+03  0.12501164412E+03 0.  0.
         23    2    1    2    0    0  0.37284823091E+01  0.41240652610E+02 -0.59701598791E+02  0.11841774861E+03  0.93508231078E+02 0.  0.
          5    1    3    3  502    0  0.13125635415E+02 -0.80330292749E+02 -0.93415398014E+02  0.12397236476E+03  0.41800000000E+01 0.  1.
         -5    1    3    3    0  502 -0.16854117724E+02  0.39089640139E+02 -0.11200259912E+02  0.44215149808E+02  0.41800000000E+01 0.  1.
        -11    1    4    4    0    0  0.28556437426E+02  0.15098507352E+02  0.14890845743E+02  0.35569261022E+02  0.00000000000E+00 0.  1.
         11    1    4    4    0    0 -0.24827955117E+02  0.26142145257E+02 -0.74592444534E+02  0.82848487587E+02  0.00000000000E+00 0. -1.
</event>
<event>
 8    1  0.5951278E-006  0.1556062E+03  0.7561462E-02  0.1193748E+00
         -2   -1    0    0    0  501 -0.00000000000E+00  0.00000000000E+00  0.38638817764E+02  0.38638817764E+02  0.00000000000E+00 0.  1.
          2   -1    0    0  501    0  0.00000000000E+00 -0.00000000000E+00 -0.91981109015E+03  0.91981109015E+03  0.00000000000E+00 0. -1.
         23    2    1    2    0    0  0.13807882851E+03  0.34463315482E+02 -0.29250097374E+03  0.34851121382E+03  0.12509901489E+03 0.  0.
         23    2    1    2    0    0 -0.13807882851E+03 -0.34463315482E+02 -0.58867129865E+03  0.60993869409E+03  0.72372851981E+02 0.  0.
          5    1    3    3  502    0 -0.88840360456E+01  0.99622035650E+01  0.57242996193E+01  0.15113292244E+02  0.41800000000E+01 0. -1.
         -5    1    3    3    0  502  0.14696286455E+03  0.24501111917E+02 -0.29822527336E+03  0.33339792158E+03  0.41800000000E+01 0. -1.
        -11    1    4    4    0    0 -0.76812541685E+02 -0.40101058991E+02 -0.22516373342E+03  0.24126120356E+03  0.00000000000E+00 0.  1.
         11    1    4    4    0    0 -0.61266286823E+02  0.56377435092E+01 -0.36350756522E+03  0.36867749054E+03  0.00000000000E+00 0. -1.
</event>
<event>
 8    1  0.5951278E-006  0.1738562E+03  0.7561462E-02  0.1173885E+00
         -2   -1    0    0    0  501 -0.00000000000E+00  0.00000000000E+00  0.34614108527E+02  0.34614108527E+02  0.00000000000E+00 0.  1.
          2   -1    0    0  501    0  0.00000000000E+00 -0.00000000000E+00 -0.10197412184E+04  0.10197412184E+04  0.00000000000E+00 0. -1.
         23    2    1    2    0    0 -0.15067507718E+03 -0.16955792339E+02 -0.56136597151E+03  0.59478543917E+03  0.12508991525E+03 0.  0.
         23    2    1    2    0    0  0.15067507718E+03  0.16955792339E+02 -0.42376113836E+03  0.45956988776E+03  0.92954298318E+02 0.  0.
          5    1    3    3  502    0  0.21315675936E+02 -0.78171732066E+01 -0.47607766407E+02  0.52909716120E+02  0.41800000000E+01 0. -1.
         -5    1    3    3    0  502 -0.17199075311E+03 -0.91386191322E+01 -0.51375820511E+03  0.54187572305E+03  0.41800000000E+01 0. -1.
        -11    1    4    4    0    0  0.17770143120E+02 -0.27609608318E+01 -0.34570841658E+01  0.18312627396E+02  0.00000000000E+00 0.  1.
         11    1    4    4    0    0  0.13290493406E+03  0.19716753171E+02 -0.42030405420E+03  0.44125726037E+03  0.00000000000E+00 0. -1.
</event>
<event>
 8    1  0.5951278E-006  0.8198676E+02  0.7561462E-02  0.1323506E+00
          1   -1    0    0  501    0  0.00000000000E+00  0.00000000000E+00  0.17578203953E+03  0.17578203953E+03  0.00000000000E+00 0. -1.
         -1   -1    0    0    0  501 -0.00000000000E+00 -0.00000000000E+00 -0.73267298052E+02  0.73267298052E+02  0.00000000000E+00 0.  1.
         23    2    1    2    0    0 -0.34255779354E+02  0.51620279496E+01  0.63518368745E+02  0.14450385619E+03  0.12508667528E+03 0.  0.
         23    2    1    2    0    0  0.34255779354E+02 -0.51620279496E+01  0.38996372735E+02  0.10454548140E+03  0.90603176780E+02 0.  0.
          5    1    3    3  502    0 -0.17106593098E+02 -0.58884882509E+02  0.18255886328E+02  0.64115635388E+02  0.41800000000E+01 0.  1.
         -5    1    3    3    0  502 -0.17149186256E+02  0.64046910459E+02  0.45262482417E+02  0.80388220799E+02  0.41800000000E+01 0.  1.
        -11    1    4    4    0    0  0.24824778668E+02  0.94278124102E+00 -0.27527335205E+02  0.37079814669E+02  0.00000000000E+00 0.  1.
         11    1    4    4    0    0  0.94310006858E+01 -0.61048091907E+01  0.66523707939E+02  0.67465666729E+02  0.00000000000E+00 0. -1.
</event>
<event>
 8    1  0.5951278E-006  0.1269348E+03  0.7561462E-02  0.1232076E+00
          4   -1    0    0  501    0  0.00000000000E+00  0.00000000000E+00  0.31520637655E+02  0.31520637655E+02  0.00000000000E+00 0. -1.
         -4   -1    0    0    0  501 -0.00000000000E+00 -0.00000000000E+00 -0.75969831986E+03  0.75969831986E+03  0.00000000000E+00 0.  1.
         23    2    1    2    0    0 -0.20050877029E+02  0.97973060432E+02 -0.55259284894E+03  0.57533288687E+03  0.12509322832E+03 0.  0.
         23    2    1    2    0    0  0.20050877029E+02 -0.97973060432E+02 -0.17558483327E+03  0.21588607065E+03  0.76000023596E+02 0.  0.
          5    1    3    3  502    0 -0.36453794507E+02  0.11401434115E+03 -0.32183708973E+03  0.34340170915E+03  0.41800000000E+01 0.  1.
         -5    1    3    3    0  502  0.16402917479E+02 -0.16041280717E+02 -0.23075575921E+03  0.23193117772E+03  0.41800000000E+01 0.  1.
        -11    1    4    4    0    0  0.33137974878E+02 -0.43116770168E+02 -0.35674817792E+02  0.65037480526E+02  0.00000000000E+00 0. -1.
         11    1    4    4    0    0 -0.13087097849E+02 -0.54856290264E+02 -0.13991001547E+03  0.15084859012E+03  0.00000000000E+00 0.  1.
</event>
<event>
 8    1  0.5951278E-006  0.1022262E+03  0.7561462E-02  0.1275683E+00
          2   -1    0    0  501    0  0.00000000000E+00  0.00000000000E+00  0.91612293890E+02  0.91612293890E+02  0.00000000000E+00 0. -1.
         -2   -1    0    0    0  501 -0.00000000000E+00 -0.00000000000E+00 -0.17997230094E+03  0.17997230094E+03  0.00000000000E+00 0.  1.
         23    2    1    2    0    0 -0.34713685264E+01 -0.36021786705E+02 -0.10912134098E+03  0.16989653039E+03  0.12509094477E+03 0.  0.
         23    2    1    2    0    0  0.34713685264E+01  0.36021786705E+02  0.20761333929E+02  0.10168806444E+03  0.92735160252E+02 0.  0.
          5    1    3    3  502    0 -0.36639754005E+02  0.22658332545E+02 -0.89745050823E+02  0.99636931680E+02  0.41800000000E+01 0. -1.
         -5    1    3    3    0  502  0.33168385479E+02 -0.58680119250E+02 -0.19376290159E+02  0.70259598710E+02  0.41800000000E+01 0. -1.
        -11    1    4    4    0    0  0.15355531297E+02  0.62634708564E+02 -0.22872095486E+01  0.64530073499E+02  0.00000000000E+00 0. -1.
         11    1    4    4    0    0 -0.11884162771E+02 -0.26612921859E+02  0.23048543477E+02  0.37157990945E+02  0.00000000000E+00 0.  1.
</event>
<event>
 8    1  0.5951278E-006  0.1296209E+03  0.7561462E-02  0.1228019E+00
         -1   -1    0    0    0  501 -0.00000000000E+00  0.00000000000E+00  0.25671161382E+03  0.25671161382E+03  0.00000000000E+00 0.  1.
          1   -1    0    0  501    0  0.00000000000E+00 -0.00000000000E+00 -0.12475167909E+03  0.12475167909E+03  0.00000000000E+00 0. -1.
         23    2    1    2    0    0  0.13805571922E+02 -0.79906382380E+02  0.19394894215E+03  0.24461891363E+03  0.12508635810E+03 0.  0.
         23    2    1    2    0    0 -0.13805571922E+02  0.79906382380E+02 -0.61989007416E+02  0.13684437928E+03  0.91148907498E+02 0.  0.
          5    1    3    3  502    0  0.39387676506E+02 -0.98948404096E+02  0.10327550024E+03  0.14840982812E+03  0.41800000000E+01 0.  1.
         -5    1    3    3    0  502 -0.25582104585E+02  0.19042021716E+02  0.90673441913E+02  0.96209085508E+02  0.41800000000E+01 0.  1.
        -11    1    4    4    0    0 -0.88118202282E+01 -0.19272639940E+02 -0.19617739692E+02  0.28877993985E+02  0.00000000000E+00 0.  1.
         11    1    4    4    0    0 -0.49937516933E+01  0.99179022320E+02 -0.42371267725E+02  0.10796638529E+03  0.00000000000E+00 0. -1.
</event>
<event>
 8    1  0.5951278E-006  0.1446434E+03  0.7561462E-02  0.1207214E+00
         -2   -1    0    0    0  501 -0.00000000000E+00  0.00000000000E+00  0.49537055679E+02  0.49537055679E+02  0.00000000000E+00 0. -1.
          2   -1    0    0  501    0  0.00000000000E+00 -0.00000000000E+00 -0.59647289710E+03  0.59647289710E+03  0.00000000000E+00 0.  1.
         23    2    1    2    0    0 -0.11710305688E+03 -0.21083286802E+02 -0.17975835088E+03  0.24923365247E+03  0.12508684143E+03 0.  0.
         23    2    1    2    0    0  0.11710305688E+03  0.21083286802E+02 -0.36717749054E+03  0.39677630031E+03  0.91948311648E+02 0.  0.
          5    1    3    3  502    0 -0.41418595308E+02 -0.68785806138E+02 -0.63356591048E+02  0.10236462862E+03  0.41800000000E+01 0. -1.
         -5    1    3    3    0  502 -0.75684461571E+02  0.47702519336E+02 -0.11640175984E+03  0.14686902385E+03  0.41800000000E+01 0. -1.
        -11    1    4    4    0    0  0.61699121049E+02  0.65510882142E+01 -0.67540271153E+02  0.91713611435E+02  0.00000000000E+00 0. -1.
         11    1    4    4    0    0  0.55403935830E+02  0.14532198588E+02 -0.29963721939E+03  0.30506268887E+03  0.00000000000E+00 0.  1.
</event>
<event>
 8    1  0.5951278E-006  0.1085407E+03  0.7561462E-02  0.1263296E+00
         -2   -1    0    0    0  501 -0.00000000000E+00  0.00000000000E+00  0.85282356000E+02  0.85282356000E+02  0.00000000000E+00 0.  1.
          2   -1    0    0  501    0  0.00000000000E+00 -0.00000000000E+00 -0.16911371994E+03  0.16911371994E+03  0.00000000000E+00 0. -1.
         23    2    1    2    0    0  0.11200403342E+02 -0.20585003496E+02  0.43414615231E-01  0.12726513993E+03  0.12508885863E+03 0.  0.
         23    2    1    2    0    0 -0.11200403342E+02  0.20585003496E+02 -0.83874778558E+02  0.12713093601E+03  0.92618059840E+02 0.  0.
          5    1    3    3  502    0 -0.43758572366E+02  0.26102817213E+02  0.15448596953E+02  0.53406940277E+02  0.41800000000E+01 0. -1.
         -5    1    3    3    0  502  0.54958975708E+02 -0.46687820708E+02 -0.15405182338E+02  0.73858199655E+02  0.41800000000E+01 0. -1.
        -11    1    4    4    0    0 -0.50685594450E+02  0.19243971885E+02 -0.36093058419E+02  0.65131166155E+02  0.00000000000E+00 0.  1.
         11    1    4    4    0    0  0.39485191108E+02  0.13410316110E+01 -0.47781720139E+02  0.61999769855E+02  0.00000000000E+00 0. -1.
</event>
<event>
 8    1  0.5951278E-006  0.1081921E+03  0.7561462E-02  0.1263955E+00
         -1   -1    0    0    0  501 -0.00000000000E+00  0.00000000000E+00  0.45107543739E+03  0.45107543739E+03  0.00000000000E+00 0.  1.
          1   -1    0    0  501    0  0.00000000000E+00 -0.00000000000E+00 -0.40368944522E+02  0.40368944522E+02  0.00000000000E+00 0. -1.
         23    2    1    2    0    0  0.75913208110E+02 -0.21844212238E+02  0.25632072933E+03  0.29595110274E+03  0.12508698635E+03 0.  0.
         23    2    1    2    0    0 -0.75913208110E+02  0.21844212238E+02  0.15438576353E+03  0.19549327917E+03  0.90236763267E+02 0.  0.
          5    1    3    3  502    0  0.85151470614E+02 -0.13223359284E+01  0.76109540721E+02  0.11429197745E+03  0.41800000000E+01 0.  1.
         -5    1    3    3    0  502 -0.92382625044E+01 -0.20521876310E+02  0.18021118861E+03  0.18165912529E+03  0.41800000000E+01 0.  1.
        -11    1    4    4    0    0 -0.38605406145E+01 -0.23026342550E+02  0.77590874508E+02  0.81027526384E+02  0.00000000000E+00 0.  1.
         11    1    4    4    0    0 -0.72052667495E+02  0.44870554788E+02  0.76794889023E+02  0.11446575278E+03  0.00000000000E+00 0. -1.
</event>
<event>
 7    1  0.5951278E-006  0.1464902E+03  0.7561462E-02  0.1204853E+00
          1   -1    0    0  501    0  0.00000000000E+00  0.00000000000E+00  0.97587587413E+02  0.97587587413E+02  0.00000000000E+00 0. -1.
         -1   -1    0    0    0  501 -0.00000000000E+00 -0.00000000000E+00 -0.28548307254E+03  0.28548307254E+03  0.00000000000E+00 0.  1.
         23    2    1    2    0    0 -0.16014165783E+02  0.80757568123E+02 -0.81322916163E+02  0.15947018156E+03  0.10972275880E+03 0.  0.
          5    1    1    2  502    0  0.82804071542E+02 -0.93613693817E+02 -0.88192309807E+02  0.15302089349E+03  0.41800000000E+01 0. -1.
         -5    1    1    2    0  502 -0.66789905759E+02  0.12856125694E+02 -0.18380259157E+02  0.70579584909E+02  0.41800000000E+01 0.  1.
        -11    1    3    3    0    0 -0.31531098327E+02  0.20610176454E+02 -0.89226920129E+02  0.96852634506E+02  0.00000000000E+00 0.  1.
         11    1    3    3    0    0  0.15516932544E+02  0.60147391669E+02  0.79040039660E+01  0.62617547052E+02  0.00000000000E+00 0. -1.
</event>
<event>
 8    1  0.5951278E-006  0.9135132E+02  0.7561462E-02  0.1299612E+00
          1   -1    0    0  501    0  0.00000000000E+00  0.00000000000E+00  0.50266857409E+03  0.50266857409E+03  0.00000000000E+00 0. -1.
         -1   -1    0    0    0  501 -0.00000000000E+00 -0.00000000000E+00 -0.33966969184E+02  0.33966969184E+02  0.00000000000E+00 0.  1.
         23    2    1    2    0    0 -0.55967123591E+02 -0.45696058987E+02  0.22662808293E+03  0.26875408924E+03  0.12509206122E+03 0.  0.
         23    2    1    2    0    0  0.55967123591E+02  0.45696058987E+02  0.24207352198E+03  0.26788145404E+03  0.89109116502E+02 0.  0.
          5    1    3    3  502    0  0.15525917566E+02 -0.33004970231E+02  0.17684828925E+03  0.18061885833E+03  0.41800000000E+01 0. -1.
         -5    1    3    3    0  502 -0.71493041157E+02 -0.12691088756E+02  0.49779793685E+02  0.88135230907E+02  0.41800000000E+01 0. -1.
        -11    1    4    4    0    0  0.31004464860E+02  0.17508378002E+02  0.16600197935E+02  0.39285960763E+02  0.00000000000E+00 0.  1.
         11    1    4    4    0    0  0.24962658731E+02  0.28187680985E+02  0.22547332404E+03  0.22859549328E+03  0.00000000000E+00 0. -1.
</event>
<event>
 8    1  0.5951278E-006  0.1059401E+03  0.7561462E-02  0.1268278E+00
         -3   -1    0    0    0  501 -0.00000000000E+00  0.00000000000E+00  0.19990247312E+03  0.19990247312E+03  0.00000000000E+00 0.  1.
          3   -1    0    0  501    0  0.00000000000E+00 -0.00000000000E+00 -0.70194390717E+02  0.70194390717E+02  0.00000000000E+00 0. -1.
         23    2    1    2    0    0 -0.25685521251E+02  0.38964926370E+02  0.69765078402E+02  0.15063787613E+03  0.12508633847E+03 0.  0.
         23    2    1    2    0    0  0.25685521251E+02 -0.38964926370E+02  0.59943004003E+02  0.11945898771E+03  0.92191510059E+02 0.  0.
          5    1    3    3  502    0 -0.58033042656E+02 -0.54117986154E+01  0.75269644045E+02  0.95289628600E+02  0.41800000000E+01 0. -1.
         -5    1    3    3    0  502  0.32347521405E+02  0.44376724985E+02 -0.55045656433E+01  0.55348247528E+02  0.41800000000E+01 0. -1.
        -11    1    4    4    0    0  0.46278534533E+02 -0.55283591065E+02  0.59010248171E+02  0.93167524325E+02  0.00000000000E+00 0.  1.
         11    1    4    4    0    0 -0.20593013283E+02  0.16318664696E+02  0.93275583192E+00  0.26291463386E+02  0.00000000000E+00 0. -1.
</event>
<event>
 8    1  0.5951278E-006  0.1141906E+03  0.7561462E-02  0.1253001E+00
          1   -1    0    0  501    0  0.00000000000E+00  0.00000000000E+00  0.78052921533E+03  0.78052921533E+03  0.00000000000E+00 0. -1.
         -1   -1    0    0    0  501 -0.00000000000E+00 -0.00000000000E+00 -0.26640875983E+02  0.26640875983E+02  0.00000000000E+00 0.  1.
         23    2    1    2    0    0  0.25665393707E+02  0.86454474857E+02  0.36863925631E+03  0.39959475318E+03  0.12509187350E+03 0.  0.
         23    2    1    2    0    0 -0.25665393707E+02 -0.86454474857E+02  0.38524908303E+03  0.40757533813E+03  0.97814679984E+02 0.  0.
          5    1    3    3  502    0  0.78115705294E+01  0.72687551293E+02  0.74143274914E+02  0.10420747748E+03  0.41800000000E+01 0.  1.
         -5    1    3    3    0  502  0.17853823178E+02  0.13766923564E+02  0.29449598140E+03  0.29538727570E+03  0.41800000000E+01 0.  1.
        -11    1    4    4    0    0 -0.53738322465E+02 -0.89076831664E+02  0.32028569446E+03  0.33675720529E+03  0.00000000000E+00 0. -1.
         11    1    4    4    0    0  0.28072928758E+02  0.26223568068E+01  0.64963388574E+02  0.70818132843E+02  0.00000000000E+00 0.  1.
</event>
<event>
 7    1  0.5951278E-006  0.7335720E+02  0.7561462E-02  0.1349035E+00
          1   -1    0    0  501    0  0.00000000000E+00  0.00000000000E+00  0.61614137313E+02  0.61614137313E+02  0.00000000000E+00 0. -1.
         -1   -1    0    0    0  501 -0.00000000000E+00 -0.00000000000E+00 -0.24156214289E+03  0.24156214289E+03  0.00000000000E+00 0.  1.
         23    2    1    2    0    0  0.43440810613E+02 -0.21119473842E+01 -0.60420364237E+02  0.11909597956E+03  0.92960570047E+02 0.  0.
          5    1    1    2  502    0 -0.20280547853E+02  0.14218369829E+02  0.26008302423E+02  0.36157528355E+02  0.41800000000E+01 0. -1.
         -5    1    1    2    0  502 -0.23160262760E+02 -0.12106422445E+02 -0.14553594376E+03  0.14792277229E+03  0.41800000000E+01 0.  1.
        -11    1    3    3    0    0 -0.22727455180E+02 -0.15645648560E+02 -0.39896398397E+02  0.48508206965E+02  0.00000000000E+00 0.  1.
         11    1    3    3    0    0  0.66168265793E+02  0.13533701176E+02 -0.20523965839E+02  0.70587772591E+02  0.00000000000E+00 0. -1.
</event>
<event>
 8    1  0.5951278E-006  0.1505870E+03  0.7561462E-02  0.1199754E+00
         -1   -1    0    0    0  501 -0.00000000000E+00  0.00000000000E+00  0.61248365623E+02  0.61248365623E+02  0.00000000000E+00 0.  1.
          1   -1    0    0  501    0  0.00000000000E+00 -0.00000000000E+00 -0.41775469460E+03  0.41775469460E+03  0.00000000000E+00 0. -1.
         23    2    1    2    0    0 -0.55339133207E+02  0.99919848648E+02 -0.14363683348E+03  0.22209210628E+03  0.12508784083E+03 0.  0.
         23    2    1    2    0    0  0.55339133207E+02 -0.99919848648E+02 -0.21286949550E+03  0.25691095394E+03  0.87426656821E+02 0.  0.
          5    1    3    3  502    0 -0.94504895363E+02  0.64550955818E+02 -0.11320605657E+03  0.16103131617E+03  0.41800000000E+01 0. -1.
         -5    1    3    3    0  502  0.39165762157E+02  0.35368892830E+02 -0.30430776907E+02  0.61060790107E+02  0.41800000000E+01 0. -1.
        -11    1    4    4    0    0  0.46456588185E+02 -0.11051813770E+03 -0.14740488402E+03  0.19000177152E+03  0.00000000000E+00 0.  1.
         11    1    4    4    0    0  0.88825450217E+01  0.10598289049E+02 -0.65464611478E+02  0.66909182425E+02  0.00000000000E+00 0. -1.
</event>
<event>
 8    1  0.5951278E-006  0.1062672E+03  0.7561462E-02  0.1267643E+00
          2   -1    0    0  501    0  0.00000000000E+00  0.00000000000E+00  0.58970166670E+03  0.58970166670E+03  0.00000000000E+00 0. -1.
         -2   -1    0    0    0  501 -0.00000000000E+00 -0.00000000000E+00 -0.20707425305E+02  0.20707425305E+02  0.00000000000E+00 0.  1.
         23    2    1    2    0    0 -0.23488421828E+02 -0.14351967991E+01  0.29175841016E+03  0.31831521857E+03  0.12509133753E+03 0.  0.
         23    2    1    2    0    0  0.23488421828E+02  0.14351967991E+01  0.27723583123E+03  0.29209387343E+03  0.88912085939E+02 0.  0.
          5    1    3    3  502    0 -0.66231640242E+02  0.24273803795E+02  0.21808004974E+03  0.22924272772E+03  0.41800000000E+01 0.  1.
         -5    1    3    3    0  502  0.42743218414E+02 -0.25709000594E+02  0.73678360426E+02  0.89072490854E+02  0.41800000000E+01 0.  1.
        -11    1    4    4    0    0  0.18524259496E+02  0.44638402557E+02  0.13739624885E+03  0.14564842728E+03  0.00000000000E+00 0.  1.
         11    1    4    4    0    0  0.49641623322E+01 -0.43203205757E+02  0.13983958238E+03  0.14644544615E+03  0.00000000000E+00 0. -1.
</event>
<event>
 8    1  0.5951278E-006  0.1241002E+03  0.7561462E-02  0.1236482E+00
          1   -1    0    0  501    0  0.00000000000E+00  0.00000000000E+00  0.39623786428E+03  0.39623786428E+03  0.00000000000E+00 0. -1.
         -1   -1    0    0    0  501 -0.00000000000E+00 -0.00000000000E+00 -0.60115435200E+02  0.60115435200E+02  0.00000000000E+00 0.  1.
         23    2    1    2    0    0 -0.32273792386E+02  0.92554308139E+02  0.10730661337E+03  0.19176278792E+03  0.12510139858E+03 0.  0.
         23    2    1    2    0    0  0.32273792386E+02 -0.92554308139E+02  0.22881581571E+03  0.26459051156E+03  0.89685916724E+02 0.  0.
          5    1    3    3  502    0 -0.50946402513E+02  0.87094273439E+02  0.20942364462E+02  0.10313584936E+03  0.41800000000E+01 0. -1.
         -5    1    3    3    0  502  0.18672610128E+02  0.54600347000E+01  0.86364248910E+02  0.88626938556E+02  0.41800000000E+01 0. -1.
        -11    1    4    4    0    0  0.32502281155E+02  0.21845377504E+01  0.96534301916E+02  0.10188249080E+03  0.00000000000E+00 0.  1.
         11    1    4    4    0    0 -0.22848876980E+00 -0.94738845890E+02  0.13228151379E+03  0.16270802076E+03  0.00000000000E+00 0. -1.
</event>
<event>
 8    1  0.5951278E-006  0.9484036E+02  0.7561462E-02  0.1291536E+00
          2   -1    0    0  501    0  0.00000000000E+00  0.00000000000E+00  0.89593816714E+03  0.89593816714E+03  0.00000000000E+00 0. -1.
         -2   -1    0    0    0  501 -0.00000000000E+00 -0.00000000000E+00 -0.16356852631E+02  0.16356852631E+02  0.00000000000E+00 0.  1.
         23    2    1    2    0    0 -0.52422967839E+01  0.52772650577E+02  0.54306267018E+03  0.55980099316E+03  0.12509058268E+03 0.  0.
         23    2    1    2    0    0  0.52422967839E+01 -0.52772650577E+02  0.33651864432E+03  0.35249402660E+03  0.90525170480E+02 0.  0.
          5    1    3    3  502    0  0.39825427481E+02  0.13863904615E+02  0.62291677816E+02  0.75339219869E+02  0.41800000000E+01 0.  1.
         -5    1    3    3    0  502 -0.45067724265E+02  0.38908745962E+02  0.48077099237E+03  0.48446177330E+03  0.41800000000E+01 0.  1.
        -11    1    4    4    0    0  0.36335637902E+02 -0.16686304535E+02  0.61326090542E+02  0.73209293959E+02  0.00000000000E+00 0.  1.
         11    1    4    4    0    0 -0.31093341118E+02 -0.36086346042E+02  0.27519255378E+03  0.27928473264E+03  0.00000000000E+00 0. -1.
</event>
<event>
 8    1  0.5951278E-006  0.3069551E+03  0.7561462E-02  0.1081815E+00
          2   -1    0    0  501    0  0.00000000000E+00  0.00000000000E+00  0.17649868493E+04  0.17649868493E+04  0.00000000000E+00 0. -1.
         -2   -1    0    0    0  501 -0.00000000000E+00 -0.00000000000E+00 -0.74472234404E+02  0.74472234404E+02  0.00000000000E+00 0.  1.
         23    2    1    2    0    0  0.10592104566E+03  0.28713718791E+03  0.44973979993E+03  0.55819423354E+03  0.12509149499E+03 0.  0.
         23    2    1    2    0    0 -0.10592104566E+03 -0.28713718791E+03  0.12407748149E+04  0.12812648501E+04  0.91926286889E+02 0.  0.
          5    1    3    3  502    0  0.44968772115E+02  0.10201002846E+03  0.71030871718E+02  0.13225389790E+03  0.41800000000E+01 0.  1.
         -5    1    3    3    0  502  0.60952273541E+02  0.18512715945E+03  0.37870892821E+03  0.42594033564E+03  0.41800000000E+01 0.  1.
        -11    1    4    4    0    0 -0.25222078463E+02 -0.10833201886E+03  0.29303177990E+03  0.31343197601E+03  0.00000000000E+00 0.  1.
         11    1    4    4    0    0 -0.80698967193E+02 -0.17880516905E+03  0.94774303503E+03  0.96783287412E+03  0.00000000000E+00 0. -1.
</event>
<event>
 8    1  0.5951278E-006  0.2839196E+03  0.7561462E-02  0.1093567E+00
          2   -1    0    0  501    0  0.00000000000E+00  0.00000000000E+00  0.28509927004E+03  0.28509927004E+03  0.00000000000E+00 0.  1.
         -2   -1    0    0    0  501 -0.00000000000E+00 -0.00000000000E+00 -0.43199558796E+03  0.43199558796E+03  0.00000000000E+00 0. -1.
         23    2    1    2    0    0  0.16822121221E+03  0.21599759198E+03 -0.26906388111E+03  0.40372742399E+03  0.12508846781E+03 0.  0.
         23    2    1    2    0    0 -0.16822121221E+03 -0.21599759198E+03  0.12216756320E+03  0.31336743402E+03  0.91218963070E+02 0.  0.
          5    1    3    3  502    0  0.10908930721E+03  0.19743389839E+03 -0.25416041685E+03  0.33984645220E+03  0.41800000000E+01 0.  1.
         -5    1    3    3    0  502  0.59131905000E+02  0.18563693595E+02 -0.14903464255E+02  0.63880971780E+02  0.41800000000E+01 0.  1.
        -11    1    4    4    0    0 -0.11776937540E+03 -0.10335686811E+03  0.10532435457E+03  0.18880012615E+03  0.00000000000E+00 0.  1.
         11    1    4    4    0    0 -0.50451836813E+02 -0.11264072387E+03  0.16843208621E+02  0.12456730786E+03  0.00000000000E+00 0. -1.
</event>
<event>
 8    1  0.5951278E-006  0.1231436E+03  0.7561462E-02  0.1237999E+00
         -2   -1    0    0    0  501 -0.00000000000E+00  0.00000000000E+00  0.67540251124E+02  0.67540251124E+02  0.00000000000E+00 0.  1.
          2   -1    0    0  501    0  0.00000000000E+00 -0.00000000000E+00 -0.27111812067E+03  0.27111812067E+03  0.00000000000E+00 0. -1.
         23    2    1    2    0    0  0.42221548114E+02 -0.62978411549E+02 -0.13428918668E+03  0.19857121748E+03  0.12509197939E+03 0.  0.
         23    2    1    2    0    0 -0.42221548114E+02  0.62978411549E+02 -0.69288682873E+02  0.14008715432E+03  0.95260431367E+02 0.  0.
          5    1    3    3  502    0  0.42210294335E+02  0.16446739835E+02 -0.36687205167E+01  0.45641385926E+02  0.41800000000E+01 0. -1.
         -5    1    3    3    0  502  0.11253779074E-01 -0.79425151384E+02 -0.13062046616E+03  0.15292983155E+03  0.41800000000E+01 0. -1.
        -11    1    4    4    0    0 -0.59513903484E+02  0.38332125448E+01 -0.27784272591E+02  0.65791823426E+02  0.00000000000E+00 0. -1.
         11    1    4    4    0    0  0.17292355370E+02  0.59145199004E+02 -0.41504410282E+02  0.74295330892E+02  0.00000000000E+00 0.  1.
</event>
<event>
 8    1  0.5951278E-006  0.1615243E+03  0.7561462E-02  0.1186987E+00
          1   -1    0    0  501    0  0.00000000000E+00  0.00000000000E+00  0.56568991197E+03  0.56568991197E+03  0.00000000000E+00 0. -1.
         -1   -1    0    0    0  501 -0.00000000000E+00 -0.00000000000E+00 -0.48195298544E+02  0.48195298544E+02  0.00000000000E+00 0.  1.
         23    2    1    2    0    0  0.12532118587E+02  0.12422980266E+03  0.25936194895E+03  0.31385754390E+03  0.12509132437E+03 0.  0.
         23    2    1    2    0    0 -0.12532118587E+02 -0.12422980266E+03  0.25813266448E+03  0.30002766662E+03  0.88283805982E+02 0.  0.
          5    1    3    3  502    0 -0.36663905632E+02  0.12152634803E+03  0.19456806803E+03  0.23235124432E+03  0.41800000000E+01 0. -1.
         -5    1    3    3    0  502  0.49196024219E+02  0.27034546337E+01  0.64793880921E+02  0.81506299577E+02  0.41800000000E+01 0. -1.
        -11    1    4    4    0    0 -0.38940150087E+02 -0.31221213683E+02  0.50575684548E+02  0.71056311051E+02  0.00000000000E+00 0.  1.
         11    1    4    4    0    0  0.26408031500E+02 -0.93008588980E+02  0.20755697993E+03  0.22897135557E+03  0.00000000000E+00 0. -1.
</event>
<event>
 8    1  0.5951278E-006  0.2814292E+03  0.7561462E-02  0.1094911E+00
         -1   -1    0    0    0  501 -0.00000000000E+00  0.00000000000E+00  0.51046030066E+02  0.51046030066E+02  0.00000000000E+00 0.  1.
          1   -1    0    0  501    0  0.00000000000E+00 -0.00000000000E+00 -0.18081613814E+04  0.18081613814E+04  0.00000000000E+00 0. -1.
         23    2    1    2    0    0 -0.20899144064E+03 -0.16031710632E+03 -0.57522114272E+03  0.64490786693E+03  0.12509115460E+03 0.  0.
         23    2    1    2    0    0  0.20899144064E+03  0.16031710632E+03 -0.11818942086E+04  0.12142995446E+04  0.90942106095E+02 0.  0.
          5    1    3    3  502    0  0.11721970568E+02  0.65644240449E+01 -0.18935847647E+02  0.23590993687E+02  0.41800000000E+01 0. -1.
         -5    1    3    3    0  502 -0.22071341121E+03 -0.16688153036E+03 -0.55628529507E+03  0.62131687324E+03  0.41800000000E+01 0. -1.
        -11    1    4    4    0    0  0.16698229062E+03  0.15815292486E+03 -0.10770419788E+04  0.11013241381E+04  0.00000000000E+00 0.  1.
         11    1    4    4    0    0  0.42009150020E+02  0.21641814586E+01 -0.10485222986E+03  0.11297540650E+03  0.00000000000E+00 0. -1.
</event>
<event>
 8    1  0.5951278E-006  0.2111902E+03  0.7561462E-02  0.1140627E+00
          3   -1    0    0  501    0  0.00000000000E+00  0.00000000000E+00  0.13936716862E+03  0.13936716862E+03  0.00000000000E+00 0. -1.
         -3   -1    0    0    0  501 -0.00000000000E+00 -0.00000000000E+00 -0.48388448845E+03  0.48388448845E+03  0.00000000000E+00 0.  1.
         23    2    1    2    0    0 -0.18679880062E+03 -0.86175811581E+02 -0.31495603095E+03  0.39644073408E+03  0.12509153366E+03 0.  0.
         23    2    1    2    0    0  0.18679880062E+03  0.86175811581E+02 -0.29561288874E+02  0.22681092299E+03  0.90825451122E+02 0.  0.
          5    1    3    3  502    0 -0.13629107646E+03 -0.63004063580E+02 -0.30479247527E+03  0.33979507785E+03  0.41800000000E+01 0.  1.
         -5    1    3    3    0  502 -0.50507724168E+02 -0.23171748001E+02 -0.10163555678E+02  0.56645656233E+02  0.41800000000E+01 0.  1.
        -11    1    4    4    0    0  0.17415388404E+03  0.54725944933E+02 -0.47264840305E+02  0.18856953493E+03  0.00000000000E+00 0.  1.
         11    1    4    4    0    0  0.12644916588E+02  0.31449866648E+02  0.17703551431E+02  0.38241388063E+02  0.00000000000E+00 0. -1.
</event>
<event>
 8    1  0.5951278E-006  0.1417063E+03  0.7561462E-02  0.1211051E+00
         -1   -1    0    0    0  501 -0.00000000000E+00  0.00000000000E+00  0.84562887247E+02  0.84562887247E+02  0.00000000000E+00 0.  1.
          1   -1    0    0  501    0  0.00000000000E+00 -0.00000000000E+00 -0.47965329384E+03  0.47965329384E+03  0.00000000000E+00 0. -1.
         23    2    1    2    0    0  0.77771501027E+02  0.80427562620E+02 -0.24927834005E+02  0.16690081642E+03  0.12131564785E+03 0.  0.
         23    2    1    2    0    0 -0.77771501027E+02 -0.80427562620E+02 -0.37016257259E+03  0.39731536467E+03  0.91225926421E+02 0.  0.
          5    1    3    3  502    0 -0.26912558610E+02  0.48256590569E+02 -0.71017168361E+01  0.55864936465E+02  0.41800000000E+01 0. -1.
         -5    1    3    3    0  502  0.10468405964E+03  0.32170972052E+02 -0.17826117168E+02  0.11103587996E+03  0.41800000000E+01 0.  1.
        -11    1    4    4    0    0 -0.47140242625E+02 -0.72981437486E+02 -0.34825015367E+03  0.35892431266E+03  0.00000000000E+00 0. -1.
         11    1    4    4    0    0 -0.30631258402E+02 -0.74461251338E+01 -0.21912418927E+02  0.38391052005E+02  0.00000000000E+00 0.  1.
</event>
<event>
 8    1  0.5951278E-006  0.1528741E+03  0.7561462E-02  0.1196985E+00
          2   -1    0    0  501    0  0.00000000000E+00  0.00000000000E+00  0.10323678498E+04  0.10323678498E+04  0.00000000000E+00 0. -1.
         -2   -1    0    0    0  501 -0.00000000000E+00 -0.00000000000E+00 -0.28170255696E+02  0.28170255696E+02  0.00000000000E+00 0.  1.
         23    2    1    2    0    0 -0.78660274496E+02  0.10327893134E+03  0.46503989524E+03  0.49876310490E+03  0.12509418134E+03 0.  0.
         23    2    1    2    0    0  0.78660274496E+02 -0.10327893134E+03  0.53915769887E+03  0.56177500060E+03  0.89700337810E+02 0.  0.
          5    1    3    3  502    0 -0.71626885927E+02  0.12584766830E+03  0.44332434728E+03  0.46639253392E+03  0.41800000000E+01 0.  1.
         -5    1    3    3    0  502 -0.70333885686E+01 -0.22568736956E+02  0.21715547956E+02  0.32370570980E+02  0.41800000000E+01 0.  1.
        -11    1    4    4    0    0  0.19973449328E+02 -0.23282546964E+01  0.15868683122E+02  0.25615904278E+02  0.00000000000E+00 0.  1.
         11    1    4    4    0    0  0.58686825168E+02 -0.10095067665E+03  0.52328901575E+03  0.53615909632E+03  0.00000000000E+00 0. -1.
</event>
<event>
 8    1  0.5951278E-006  0.7165570E+02  0.7561462E-02  0.1354552E+00
         -1   -1    0    0    0  501 -0.00000000000E+00  0.00000000000E+00  0.72661078172E+02  0.72661078172E+02  0.00000000000E+00 0.  1.
          1   -1    0    0  501    0  0.00000000000E+00 -0.00000000000E+00 -0.16720935770E+03  0.16720935770E+03  0.00000000000E+00 0. -1.
         23    2    1    2    0    0 -0.21344743234E+02 -0.12702934953E+02 -0.68270688534E+02  0.14467269733E+03  0.12510931148E+03 0.  0.
         23    2    1    2    0    0  0.21344743234E+02  0.12702934953E+02 -0.26277590999E+02  0.95197738551E+02  0.88063244412E+02 0.  0.
          5    1    3    3  502    0 -0.53177677001E+02 -0.15041509903E+02 -0.90097976046E+02  0.10577915692E+03  0.41800000000E+01 0. -1.
         -5    1    3    3    0  502  0.31832933767E+02  0.23385749503E+01  0.21827287512E+02  0.38893540404E+02  0.41800000000E+01 0. -1.
        -11    1    4    4    0    0  0.29734697252E+02  0.26315969156E+02  0.21261361536E+02  0.45041402594E+02  0.00000000000E+00 0.  1.
         11    1    4    4    0    0 -0.83899540176E+01 -0.13613034203E+02 -0.47538952534E+02  0.50156335957E+02  0.00000000000E+00 0. -1.
</event>
<event>
 8    1  0.5951278E-006  0.1210523E+03  0.7561462E-02  0.1241371E+00
         -2   -1    0    0    0  501 -0.00000000000E+00  0.00000000000E+00  0.49597698516E+02  0.49597698516E+02  0.00000000000E+00 0.  1.
          2   -1    0    0  501    0  0.00000000000E+00 -0.00000000000E+00 -0.31529003531E+03  0.31529003531E+03  0.00000000000E+00 0. -1.
         23    2    1    2    0    0  0.15415679458E+02 -0.58708009965E+02 -0.12634619453E+03  0.18786810816E+03  0.12508713597E+03 0.  0.
         23    2    1    2    0    0 -0.15415679458E+02  0.58708009965E+02 -0.13934614226E+03  0.17701962566E+03  0.90743192030E+02 0.  0.
          5    1    3    3  502    0  0.65213091058E+02 -0.49237242953E+01 -0.62917771119E+02  0.90846621450E+02  0.41800000000E+01 0.  1.
         -5    1    3    3    0  502 -0.49797411600E+02 -0.53784285670E+02 -0.63428423413E+02  0.97021486712E+02  0.41800000000E+01 0.  1.
        -11    1    4    4    0    0 -0.49793373662E+02  0.40911036232E+02 -0.57029909409E+02  0.86055235247E+02  0.00000000000E+00 0. -1.
         11    1    4    4    0    0  0.34377694204E+02  0.17796973733E+02 -0.82316232854E+02  0.90964390418E+02  0.00000000000E+00 0.  1.
</event>
<event>
 8    1  0.5951278E-006  0.9640780E+02  0.7561462E-02  0.1288036E+00
         -1   -1    0    0    0  501 -0.00000000000E+00  0.00000000000E+00  0.41895719145E+02  0.41895719145E+02  0.00000000000E+00 0.  1.
          1   -1    0    0  501    0  0.00000000000E+00 -0.00000000000E+00 -0.34392049725E+03  0.34392049725E+03  0.00000000000E+00 0. -1.
         23    2    1    2    0    0  0.26345149672E+02 -0.38547306100E+01 -0.10152060548E+03  0.16328875064E+03  0.12509139415E+03 0.  0.
         23    2    1    2    0    0 -0.26345149672E+02  0.38547306100E+01 -0.20050417263E+03  0.22252746576E+03  0.92777281239E+02 0.  0.
          5    1    3    3  502    0  0.38798214538E+02  0.43051792022E+02 -0.98653381326E+02  0.11449331987E+03  0.41800000000E+01 0.  1.
         -5    1    3    3    0  502 -0.12453064866E+02 -0.46906522632E+02 -0.28672241521E+01  0.48795430773E+02  0.41800000000E+01 0.  1.
        -11    1    4    4    0    0  0.57472572084E+01  0.38411360878E+02 -0.14288258649E+03  0.14806720478E+03  0.00000000000E+00 0. -1.
         11    1    4    4    0    0 -0.32092406881E+02 -0.34556630268E+02 -0.57621586141E+02  0.74460260974E+02  0.00000000000E+00 0.  1.
</event>
<event>
 8    1  0.5951278E-006  0.1242282E+03  0.7561462E-02  0.1236280E+00
         -1   -1    0    0    0  501 -0.00000000000E+00  0.00000000000E+00  0.10461758608E+03  0.10461758608E+03  0.00000000000E+00 0.  1.
          1   -1    0    0  501    0  0.00000000000E+00 -0.00000000000E+00 -0.25668088940E+03  0.25668088940E+03  0.00000000000E+00 0. -1.
         23    2    1    2    0    0  0.77603711304E+02 -0.42776010687E+02  0.11986021495E+02  0.15376383293E+03  0.12509008157E+03 0.  0.
         23    2    1    2    0    0 -0.77603711304E+02  0.42776010687E+02 -0.16404932482E+03  0.20753464256E+03  0.91139035492E+02 0.  0.
          5    1    3    3  502    0  0.34777787797E+02 -0.73418351955E+02 -0.29568176674E+02  0.86553442448E+02  0.41800000000E+01 0.  1.
         -5    1    3    3    0  502  0.42825923508E+02  0.30642341269E+02  0.41554198169E+02  0.67210390478E+02  0.41800000000E+01 0.  1.
        -11    1    4    4    0    0 -0.56778192559E+02  0.63308716022E+02 -0.73572131334E+02  0.11244827782E+03  0.00000000000E+00 0.  1.
         11    1    4    4    0    0 -0.20825518745E+02 -0.20532705335E+02 -0.90477193484E+02  0.95086364744E+02  0.00000000000E+00 0. -1.
</event>
<event>
 8    1  0.5951278E-006  0.2034045E+03  0.7561462E-02  0.1146898E+00
          2   -1    0    0  501    0  0.00000000000E+00  0.00000000000E+00  0.19840022334E+03  0.19840022334E+03  0.00000000000E+00 0.  1.
         -2   -1    0    0    0  501 -0.00000000000E+00 -0.00000000000E+00 -0.24819636476E+03  0.24819636476E+03  0.00000000000E+00 0. -1.
         23    2    1    2    0    0 -0.13038210177E+03 -0.12791292088E+03 -0.87657688912E+02  0.23810064394E+03  0.12508732322E+03 0.  0.
         23    2    1    2    0    0  0.13038210177E+03  0.12791292088E+03  0.37861547488E+02  0.20849594415E+03  0.93144265319E+02 0.  0.
          5    1    3    3  502    0 -0.50157792684E+02 -0.11435286922E+03 -0.94048430497E+02  0.15638082537E+03  0.41800000000E+01 0.  1.
         -5    1    3    3    0  502 -0.80224309082E+02 -0.13560051660E+02  0.63907415850E+01  0.81719818567E+02  0.41800000000E+01 0.  1.
        -11    1    4    4    0    0  0.37940966885E+02 -0.52432185236E+01  0.25317555851E+02  0.45912818939E+02  0.00000000000E+00 0.  1.
         11    1    4    4    0    0  0.92441134881E+02  0.13315613940E+03  0.12543991638E+02  0.16258312521E+03  0.00000000000E+00 0. -1.
</event>
<event>
 8    1  0.5951278E-006  0.1059952E+03  0.7561462E-02  0.1268171E+00
          2   -1    0    0  501    0  0.00000000000E+00  0.00000000000E+00  0.72276017890E+02  0.72276017890E+02  0.00000000000E+00 0. -1.
         -2   -1    0    0    0  501 -0.00000000000E+00 -0.00000000000E+00 -0.28463416587E+03  0.28463416587E+03  0.00000000000E+00 0.  1.
         23    2    1    2    0    0  0.78148937886E+02 -0.49153198308E+02 -0.13909119631E+03  0.20858638645E+03  0.12505449343E+03 0.  0.
         23    2    1    2    0    0 -0.78148937886E+02  0.49153198308E+02 -0.73266951671E+02  0.14832379730E+03  0.90047816421E+02 0.  0.
          5    1    3    3  502    0  0.51980646314E+02 -0.30557413335E+02  0.52404349431E+01  0.60668588737E+02  0.41800000000E+01 0.  1.
         -5    1    3    3    0  502  0.26168291572E+02 -0.18595784973E+02 -0.14433163125E+03  0.14791779772E+03  0.41800000000E+01 0.  1.
        -11    1    4    4    0    0 -0.45117166881E+02 -0.14559830610E+02 -0.58072342893E+02  0.74966288582E+02  0.00000000000E+00 0.  1.
         11    1    4    4    0    0 -0.33031771006E+02  0.63713028918E+02 -0.15194608778E+02  0.73357508720E+02  0.00000000000E+00 0. -1.
</event>
<event>
 8    1  0.5951278E-006  0.5239900E+02  0.7561462E-02  0.1432815E+00
         -2   -1    0    0    0  501 -0.00000000000E+00  0.00000000000E+00  0.20130718728E+03  0.20130718728E+03  0.00000000000E+00 0.  1.
          2   -1    0    0  501    0  0.00000000000E+00 -0.00000000000E+00 -0.60641535874E+02  0.60641535874E+02  0.00000000000E+00 0. -1.
         23    2    1    2    0    0 -0.18222347776E+02 -0.82127941086E+01  0.84191216059E+02  0.15209689314E+03  0.12508317271E+03 0.  0.
         23    2    1    2    0    0  0.18222347776E+02  0.82127941086E+01  0.56474435346E+02  0.10985183001E+03  0.92079089721E+02 0.  0.
          5    1    3    3  502    0 -0.29357789365E+02 -0.28202183919E+02 -0.19852724047E+02  0.45484569100E+02  0.41800000000E+01 0. -1.
         -5    1    3    3    0  502  0.11135441589E+02  0.19989389810E+02  0.10404394011E+03  0.10661232404E+03  0.41800000000E+01 0. -1.
        -11    1    4    4    0    0  0.11774950203E+02  0.22246437607E+02  0.78790281042E+02  0.82713129703E+02  0.00000000000E+00 0.  1.
         11    1    4    4    0    0  0.64473975723E+01 -0.14033643498E+02 -0.22315845697E+02  0.27138700309E+02  0.00000000000E+00 0. -1.
</event>
<event>
 8    1  0.5951278E-006  0.1449944E+03  0.7561462E-02  0.1206762E+00
         -1   -1    0    0    0  501 -0.00000000000E+00  0.00000000000E+00  0.10203304039E+03  0.10203304039E+03  0.00000000000E+00 0.  1.
          1   -1    0    0  501    0  0.00000000000E+00 -0.00000000000E+00 -0.24661729546E+03  0.24661729546E+03  0.00000000000E+00 0. -1.
         23    2    1    2    0    0  0.86489156370E+02  0.80320236803E+02 -0.74883740111E+02  0.18759112179E+03  0.12510451563E+03 0.  0.
         23    2    1    2    0    0 -0.86489156370E+02 -0.80320236803E+02 -0.69700514961E+02  0.16105921407E+03  0.84558820000E+02 0.  0.
          5    1    3    3  502    0  0.41503475739E+02  0.91986689297E+02 -0.93229344560E+02  0.13745280133E+03  0.41800000000E+01 0. -1.
         -5    1    3    3    0  502  0.44985680631E+02 -0.11666452494E+02  0.18345604449E+02  0.50138320457E+02  0.41800000000E+01 0. -1.
        -11    1    4    4    0    0 -0.24285029760E+01 -0.54263821879E+02 -0.42425858907E+02  0.68923243508E+02  0.00000000000E+00 0. -1.
         11    1    4    4    0    0 -0.84060653394E+02 -0.26056414924E+02 -0.27274656054E+02  0.92135970558E+02  0.00000000000E+00 0.  1.
</event>
<event>
 8    1  0.5951278E-006  0.2327733E+03  0.7561462E-02  0.1124703E+00
         -2   -1    0    0    0  501 -0.00000000000E+00  0.00000000000E+00  0.14469292034E+03  0.14469292034E+03  0.00000000000E+00 0.  1.
          2   -1    0    0  501    0  0.00000000000E+00 -0.00000000000E+00 -0.46889785217E+03  0.46889785217E+03  0.00000000000E+00 0. -1.
         23    2    1    2    0    0  0.13348602039E+02 -0.22539439670E+03 -0.11219967329E+03  0.28145547564E+03  0.12509036271E+03 0.  0.
         23    2    1    2    0    0 -0.13348602039E+02  0.22539439670E+03 -0.21200525854E+03  0.33213529688E+03  0.11994501467E+03 0.  0.
          5    1    3    3  502    0 -0.33769678781E+01 -0.88938528082E+02 -0.11301264122E+03  0.14391245660E+03  0.41800000000E+01 0. -1.
         -5    1    3    3    0  502  0.16725569918E+02 -0.13645586862E+03  0.81296793241E+00  0.13754301904E+03  0.41800000000E+01 0. -1.
        -11    1    4    4    0    0 -0.42005610029E+02  0.18282669252E+03 -0.20884269547E+03  0.28072289223E+03  0.00000000000E+00 0. -1.
         11    1    4    4    0    0  0.28657007989E+02  0.42567704182E+02 -0.31625630654E+01  0.51412404645E+02  0.00000000000E+00 0.  1.
</event>
<event>
 8    1  0.5951278E-006  0.1098422E+03  0.7561462E-02  0.1260862E+00
          2   -1    0    0  501    0  0.00000000000E+00  0.00000000000E+00  0.20786280594E+03  0.20786280594E+03  0.00000000000E+00 0. -1.
         -2   -1    0    0    0  501 -0.00000000000E+00 -0.00000000000E+00 -0.11300756038E+03  0.11300756038E+03  0.00000000000E+00 0.  1.
         23    2    1    2    0    0  0.68579244394E+01  0.81610936533E+02 -0.21906329823E+02  0.15111041608E+03  0.12508834666E+03 0.  0.
         23    2    1    2    0    0 -0.68579244394E+01 -0.81610936533E+02  0.11676157538E+03  0.16975995024E+03  0.92074964725E+02 0.  0.
          5    1    3    3  502    0 -0.32014224235E+02  0.40643556617E+02  0.41237253038E+02  0.66293232580E+02  0.41800000000E+01 0.  1.
         -5    1    3    3    0  502  0.38872148674E+02  0.40967379916E+02 -0.63143582861E+02  0.84817183497E+02  0.41800000000E+01 0.  1.
        -11    1    4    4    0    0 -0.10713130610E+02 -0.95824683687E+02  0.12072890983E+03  0.15450764007E+03  0.00000000000E+00 0. -1.
         11    1    4    4    0    0  0.38552061701E+01  0.14213747154E+02 -0.39673344481E+01  0.15252310166E+02  0.00000000000E+00 0.  1.
</event>
<event>
 8    1  0.5951278E-006  0.7903431E+02  0.7561462E-02  0.1331814E+00
          1   -1    0    0  501    0  0.00000000000E+00  0.00000000000E+00  0.53035020351E+02  0.53035020351E+02  0.00000000000E+00 0. -1.
         -1   -1    0    0    0  501 -0.00000000000E+00 -0.00000000000E+00 -0.26551170735E+03  0.26551170735E+03  0.00000000000E+00 0.  1.
         23    2    1    2    0    0  0.31784337496E+02  0.27046239885E+02 -0.15059802562E+03  0.20017224970E+03  0.12508965196E+03 0.  0.
         23    2    1    2    0    0 -0.31784337496E+02 -0.27046239885E+02 -0.61878661376E+02  0.11837447800E+03  0.91879296394E+02 0.  0.
          5    1    3    3  502    0  0.48668698303E+02  0.28325151234E+02 -0.16696472920E+03  0.17625450231E+03  0.41800000000E+01 0. -1.
         -5    1    3    3    0  502 -0.16884360808E+02 -0.12789113488E+01  0.16366703581E+02  0.23917747390E+02  0.41800000000E+01 0. -1.
        -11    1    4    4    0    0 -0.43854746899E+02  0.10185430627E+02  0.15883271251E+00  0.45022295038E+02  0.00000000000E+00 0. -1.
         11    1    4    4    0    0  0.12070409404E+02 -0.37231670513E+02 -0.62037494088E+02  0.73352182961E+02  0.00000000000E+00 0.  1.
</event>
<event>
 8    1  0.5951278E-006  0.1251540E+03  0.7561462E-02  0.1234829E+00
          1   -1    0    0  501    0  0.00000000000E+00  0.00000000000E+00  0.73644327713E+03  0.73644327713E+03  0.00000000000E+00 0. -1.
         -1   -1    0    0    0  501 -0.00000000000E+00 -0.00000000000E+00 -0.23810926219E+02  0.23810926219E+02  0.00000000000E+00 0.  1.
         23    2    1    2    0    0  0.75077194411E+02 -0.19678484427E+02  0.38992514872E+03  0.41678837276E+03  0.12508836157E+03 0.  0.
         23    2    1    2    0    0 -0.75077194411E+02  0.19678484427E+02  0.32270720219E+03  0.34346583058E+03  0.88345970824E+02 0.  0.
          5    1    3    3  502    0  0.61092859426E+02 -0.70916515663E+02  0.23701683225E+03  0.25486455390E+03  0.41800000000E+01 0. -1.
         -5    1    3    3    0  502  0.13984334985E+02  0.51238031236E+02  0.15290831647E+03  0.16192381886E+03  0.41800000000E+01 0. -1.
        -11    1    4    4    0    0 -0.41687478902E+02 -0.24196189434E+02  0.71165049638E+02  0.85952113239E+02  0.00000000000E+00 0.  1.
         11    1    4    4    0    0 -0.33389715509E+02  0.43874673861E+02  0.25154215255E+03  0.25751371734E+03  0.00000000000E+00 0. -1.
</event>
<event>
 8    1  0.5951278E-006  0.9915057E+02  0.7561462E-02  0.1282092E+00
          2   -1    0    0  501    0  0.00000000000E+00  0.00000000000E+00  0.34537169386E+02  0.34537169386E+02  0.00000000000E+00 0. -1.
         -2   -1    0    0    0  501 -0.00000000000E+00 -0.00000000000E+00 -0.49425198851E+03  0.49425198851E+03  0.00000000000E+00 0.  1.
         23    2    1    2    0    0 -0.38218427225E+02 -0.62254853593E+02 -0.24009940117E+03  0.28041613441E+03  0.12509664672E+03 0.  0.
         23    2    1    2    0    0  0.38218427225E+02  0.62254853593E+02 -0.21961541796E+03  0.24837302349E+03  0.90121651209E+02 0.  0.
          5    1    3    3  502    0 -0.73808625733E+01 -0.61200933841E+02 -0.31214399180E+02  0.69223135956E+02  0.41800000000E+01 0.  1.
         -5    1    3    3    0  502 -0.30837564651E+02 -0.10539197517E+01 -0.20888500199E+03  0.21119299845E+03  0.41800000000E+01 0.  1.
        -11    1    4    4    0    0 -0.15151531494E+02 -0.80129696340E+01 -0.76396175170E+01  0.18765402867E+02  0.00000000000E+00 0. -1.
         11    1    4    4    0    0  0.53369958719E+02  0.70267823227E+02 -0.21197580044E+03  0.22960762062E+03  0.00000000000E+00 0.  1.
</event>
<event>
 8    1  0.5951278E-006  0.1002105E+03  0.7561462E-02  0.1279854E+00
          1   -1    0    0  501    0  0.00000000000E+00  0.00000000000E+00  0.10693509463E+03  0.10693509463E+03  0.00000000000E+00 0. -1.
         -1   -1    0    0    0  501 -0.00000000000E+00 -0.00000000000E+00 -0.12823829233E+03  0.12823829233E+03  0.00000000000E+00 0.  1.
         23    2    1    2    0    0  0.19517995049E+02 -0.33371911865E+02 -0.32534803476E+02  0.13490753484E+03  0.12508754089E+03 0.  0.
         23    2    1    2    0    0 -0.19517995049E+02  0.33371911865E+02  0.11231605777E+02  0.10026585213E+03  0.91828402481E+02 0.  0.
          5    1    3    3  502    0  0.26840750264E+01  0.36614670206E+02 -0.48584412320E+02  0.61038969958E+02  0.41800000000E+01 0.  1.
         -5    1    3    3    0  502  0.16833920023E+02 -0.69986582071E+02  0.16049608844E+02  0.73868564880E+02  0.41800000000E+01 0.  1.
        -11    1    4    4    0    0  0.31150414468E+02  0.25149995760E+02 -0.14834273865E+02  0.42695740881E+02  0.00000000000E+00 0.  1.
         11    1    4    4    0    0 -0.50668409517E+02  0.82219161054E+01  0.26065879642E+02  0.57570111247E+02  0.00000000000E+00 0. -1.
</event>
<event>
 8    1  0.5951278E-006  0.1115610E+03  0.7561462E-02  0.1257706E+00
          1   -1    0    0  501    0  0.00000000000E+00  0.00000000000E+00  0.15642727597E+03  0.15642727597E+03  0.00000000000E+00 0. -1.
         -1   -1    0    0    0  501 -0.00000000000E+00 -0.00000000000E+00 -0.10757245991E+03  0.10757245991E+03  0.00000000000E+00 0.  1.
         23    2    1    2    0    0  0.62890044903E+02 -0.33667891229E+02  0.16278543635E+02  0.14491214829E+03  0.12508339254E+03 0.  0.
         23    2    1    2    0    0 -0.62890044903E+02  0.33667891229E+02  0.32576272421E+02  0.11908758759E+03  0.89621176879E+02 0.  0.
          5    1    3    3  502    0  0.61386309513E+02 -0.60437129431E+02  0.51498351435E+02  0.10045137237E+03  0.41800000000E+01 0.  1.
         -5    1    3    3    0  502  0.15037353899E+01  0.26769238202E+02 -0.35219807800E+02  0.44460775921E+02  0.41800000000E+01 0.  1.
        -11    1    4    4    0    0 -0.81027830921E+02  0.40213268939E+02  0.12614007262E+02  0.91333069376E+02  0.00000000000E+00 0.  1.
         11    1    4    4    0    0  0.18137786017E+02 -0.65453777094E+01  0.19962265159E+02  0.27754518213E+02  0.00000000000E+00 0. -1.
</event>
<event>
 8    1  0.5951278E-006  0.8760143E+02  0.7561462E-02  0.1308766E+00
          2   -1    0    0  501    0  0.00000000000E+00  0.00000000000E+00  0.38488652881E+03  0.38488652881E+03  0.00000000000E+00 0. -1.
         -2   -1    0    0    0  501 -0.00000000000E+00 -0.00000000000E+00 -0.80814520106E+02  0.80814520106E+02  0.00000000000E+00 0.  1.
         23    2    1    2    0    0 -0.38656452565E+02  0.11751503203E+02 -0.20866623436E+02  0.12535592307E+03  0.11681726038E+03 0.  0.
         23    2    1    2    0    0  0.38656452565E+02 -0.11751503203E+02  0.32493863214E+03  0.34034512584E+03  0.92829256575E+02 0.  0.
          5    1    3    3  502    0  0.12238852339E+02 -0.16168971957E+02  0.37559214795E+02  0.42888135618E+02  0.41800000000E+01 0. -1.
         -5    1    3    3    0  502 -0.50895304904E+02  0.27920475160E+02 -0.58425838232E+02  0.82467787454E+02  0.41800000000E+01 0.  1.
        -11    1    4    4    0    0  0.35543654219E+02  0.34739974254E+02  0.11470624799E+03  0.12501096149E+03  0.00000000000E+00 0. -1.
         11    1    4    4    0    0  0.31127983464E+01 -0.46491477457E+02  0.21023238415E+03  0.21533416435E+03  0.00000000000E+00 0.  1.
</event>
<event>
 8    1  0.5951278E-006  0.2470278E+03  0.7561462E-02  0.1115198E+00
          2   -1    0    0  501    0  0.00000000000E+00  0.00000000000E+00  0.48536498954E+03  0.48536498954E+03  0.00000000000E+00 0. -1.
         -2   -1    0    0    0  501 -0.00000000000E+00 -0.00000000000E+00 -0.17974235068E+03  0.17974235068E+03  0.00000000000E+00 0.  1.
         23    2    1    2    0    0  0.14825629063E+03  0.17683638082E+03 -0.10976446743E+02  0.26271492208E+03  0.12509042572E+03 0.  0.
         23    2    1    2    0    0 -0.14825629063E+03 -0.17683638082E+03  0.31659908560E+03  0.40239241813E+03  0.91834872847E+02 0.  0.
          5    1    3    3  502    0  0.15970616189E+03  0.14496201231E+03 -0.38174092960E+02  0.21907710271E+03  0.41800000000E+01 0.  1.
         -5    1    3    3    0  502 -0.11449871255E+02  0.31874368511E+02  0.27197646217E+02  0.43637819371E+02  0.41800000000E+01 0.  1.
        -11    1    4    4    0    0 -0.11462809011E+03 -0.17664249283E+03  0.24346091154E+03  0.32189343697E+03  0.00000000000E+00 0.  1.
         11    1    4    4    0    0 -0.33628200524E+02 -0.19388798963E+00  0.73138174059E+02  0.80498981159E+02  0.00000000000E+00 0. -1.
</event>
<event>
 8    1  0.5951278E-006  0.1059958E+03  0.7561462E-02  0.1268170E+00
         -2   -1    0    0    0  501 -0.00000000000E+00  0.00000000000E+00  0.13513229498E+02  0.13513229498E+02  0.00000000000E+00 0. -1.
          2   -1    0    0  501    0  0.00000000000E+00 -0.00000000000E+00 -0.93177648298E+03  0.93177648298E+03  0.00000000000E+00 0.  1.
         23    2    1    2    0    0 -0.29848007290E+02  0.37926100251E+01 -0.54609796900E+03  0.56104930383E+03  0.12509213463E+03 0.  0.
         23    2    1    2    0    0  0.29848007290E+02 -0.37926100251E+01 -0.37216528448E+03  0.38424040865E+03  0.90710557480E+02 0.  0.
          5    1    3    3  502    0  0.32355617606E+02 -0.36698673399E+02 -0.29920198721E+03  0.30320451872E+03  0.41800000000E+01 0. -1.
         -5    1    3    3    0  502 -0.62203624896E+02  0.40491283424E+02 -0.24689598179E+03  0.25784478511E+03  0.41800000000E+01 0. -1.
        -11    1    4    4    0    0  0.81714740830E+01  0.39391382772E+02 -0.99470780071E+02  0.10729813658E+03  0.00000000000E+00 0. -1.
         11    1    4    4    0    0  0.21676533207E+02 -0.43183992797E+02 -0.27269450441E+03  0.27694227207E+03  0.00000000000E+00 0.  1.
</event>
<event>
 8    1  0.5951278E-006  0.1500592E+03  0.7561462E-02  0.1200400E+00
         -2   -1    0    0    0  501 -0.00000000000E+00  0.00000000000E+00  0.12647184215E+04  0.12647184215E+04  0.00000000000E+00 0. -1.
          2   -1    0    0  501    0  0.00000000000E+00 -0.00000000000E+00 -0.25058279580E+02  0.25058279580E+02  0.00000000000E+00 0.  1.
         23    2    1    2    0    0  0.10906651038E+03  0.81494783433E+02  0.52355256650E+03  0.55524073037E+03  0.12509226740E+03 0.  0.
         23    2    1    2    0    0 -0.10906651038E+03 -0.81494783433E+02  0.71610757541E+03  0.73453597070E+03  0.90532476341E+02 0.  0.
          5    1    3    3  502    0  0.24172969398E+02  0.14777948019E+02  0.98323919408E+01  0.30279836995E+02  0.41800000000E+01 0.  1.
         -5    1    3    3    0  502  0.84893540983E+02  0.66716835414E+02  0.51372017455E+03  0.52496089337E+03  0.41800000000E+01 0.  1.
        -11    1    4    4    0    0 -0.12350216458E+03 -0.59426875404E+02  0.59207141347E+03  0.60772765020E+03  0.00000000000E+00 0.  1.
         11    1    4    4    0    0  0.14435654195E+02 -0.22067908029E+02  0.12403616195E+03  0.12680832050E+03  0.00000000000E+00 0. -1.
</event>
<event>
 8    1  0.5951278E-006  0.1052503E+03  0.7561462E-02  0.1269627E+00
         -3   -1    0    0    0  501 -0.00000000000E+00  0.00000000000E+00  0.45501382454E+02  0.45501382454E+02  0.00000000000E+00 0.  1.
          3   -1    0    0  501    0  0.00000000000E+00 -0.00000000000E+00 -0.30709505041E+03  0.30709505041E+03  0.00000000000E+00 0. -1.
         23    2    1    2    0    0  0.32667066324E+02 -0.26195975762E+02 -0.11395079675E+03  0.17431471971E+03  0.12508985194E+03 0.  0.
         23    2    1    2    0    0 -0.32667066324E+02  0.26195975762E+02 -0.14764287120E+03  0.17828171315E+03  0.90733596093E+02 0.  0.
          5    1    3    3  502    0 -0.28547537911E+02 -0.38460313847E+02 -0.98887510930E+02  0.10995621801E+03  0.41800000000E+01 0.  1.
         -5    1    3    3    0  502  0.61214604235E+02  0.12264338085E+02 -0.15063285820E+02  0.64358501692E+02  0.41800000000E+01 0.  1.
        -11    1    4    4    0    0 -0.64184799949E+02  0.12061068074E+02 -0.99910694761E+02  0.11936207453E+03  0.00000000000E+00 0.  1.
         11    1    4    4    0    0  0.31517733625E+02  0.14134907688E+02 -0.47732176441E+02  0.58919638628E+02  0.00000000000E+00 0. -1.
</event>
<event>
 8    1  0.6268508E-006  0.2346466E+03  0.7561462E-02  0.1123411E+00
         -2   -1    0    0    0  501 -0.00000000000E+00  0.00000000000E+00  0.37385067161E+02  0.37385067161E+02  0.00000000000E+00 0. -1.
          2   -1    0    0  501    0  0.00000000000E+00 -0.00000000000E+00 -0.15020302040E+04  0.15020302040E+04  0.00000000000E+00 0.  1.
         23    2    1    2    0    0  0.20893296668E+01 -0.20833888177E+03 -0.65737376791E+03  0.70085497128E+03  0.12509182654E+03 0.  0.
         23    2    1    2    0    0 -0.20893296668E+01  0.20833888177E+03 -0.80727136888E+03  0.83856029984E+03  0.89926962008E+02 0.  0.
          5    1    3    3  502    0  0.63379656691E+02 -0.10338988712E+03 -0.32003140191E+03  0.34226308630E+03  0.41800000000E+01 0.  1.
         -5    1    3    3    0  502 -0.61290327024E+02 -0.10494899465E+03 -0.33734236600E+03  0.35859188497E+03  0.41800000000E+01 0.  1.
        -11    1    4    4    0    0  0.39629012932E+02  0.57437418966E+02 -0.22190063201E+03  0.23261428643E+03  0.00000000000E+00 0.  1.
         11    1    4    4    0    0 -0.41718342599E+02  0.15090146280E+03 -0.58537073687E+03  0.60594601341E+03  0.00000000000E+00 0. -1.
</event>
<event>
 6    1  0.5951278E-006  0.8411395E+02  0.7561462E-02  0.1317766E+00
         -2   -1    0    0    0  501 -0.00000000000E+00  0.00000000000E+00  0.21711490645E+02  0.21711490645E+02  0.00000000000E+00 0.  1.
          2   -1    0    0  501    0  0.00000000000E+00 -0.00000000000E+00 -0.64353466436E+03  0.64353466436E+03  0.00000000000E+00 0. -1.
          5    1    1    2  502    0 -0.52723309583E+02 -0.63683140653E+02 -0.29638228175E+03  0.30772588307E+03  0.41800000000E+01 0. -1.
         -5    1    1    2    0  502  0.10795797599E+02  0.12276890863E+02  0.68317709239E+01  0.18204856193E+02  0.41800000000E+01 0.  1.
        -11    1    1    2    0    0  0.59242149631E+01  0.19788906984E+02 -0.11239855432E+03  0.11428093531E+03  0.00000000000E+00 0.  1.
         11    1    1    2    0    0  0.36003297021E+02  0.31617342806E+02 -0.21987410857E+03  0.22503448043E+03  0.00000000000E+00 0. -1.
</event>
<event>
 8    1  0.5951278E-006  0.1331618E+03  0.7561462E-02  0.1222838E+00
         -1   -1    0    0    0  501 -0.00000000000E+00  0.00000000000E+00  0.10084120107E+03  0.10084120107E+03  0.00000000000E+00 0.  1.
          1   -1    0    0  501    0  0.00000000000E+00 -0.00000000000E+00 -0.27500675798E+03  0.27500675798E+03  0.00000000000E+00 0. -1.
         23    2    1    2    0    0  0.43819606893E+02  0.85067174321E+02  0.83586031439E+00  0.15748579246E+03  0.12507795197E+03 0.  0.
         23    2    1    2    0    0 -0.43819606893E+02 -0.85067174321E+02 -0.17500141722E+03  0.21836216658E+03  0.88881706043E+02 0.  0.
          5    1    3    3  502    0  0.66439324841E+02  0.10195997811E+03 -0.18284764328E+02  0.12313336683E+03  0.41800000000E+01 0. -1.
         -5    1    3    3    0  502 -0.22619717948E+02 -0.16892803786E+02  0.19120624643E+02  0.34352425628E+02  0.41800000000E+01 0. -1.
        -11    1    4    4    0    0 -0.80156340761E+00 -0.70638120004E+02 -0.53350339199E+02  0.88524828123E+02  0.00000000000E+00 0.  1.
         11    1    4    4    0    0 -0.43018043485E+02 -0.14429054318E+02 -0.12165107802E+03  0.12983733846E+03  0.00000000000E+00 0. -1.
</event>
<event>
 8    1  0.5951278E-006  0.1122741E+03  0.7561462E-02  0.1256416E+00
         -1   -1    0    0    0  501 -0.00000000000E+00  0.00000000000E+00  0.38148298359E+02  0.38148298359E+02  0.00000000000E+00 0. -1.
          1   -1    0    0  501    0  0.00000000000E+00 -0.00000000000E+00 -0.47220628800E+03  0.47220628800E+03  0.00000000000E+00 0.  1.
         23    2    1    2    0    0  0.20070940833E+02  0.42655514739E+02 -0.11477762069E+03  0.17619263631E+03  0.12509039642E+03 0.  0.
         23    2    1    2    0    0 -0.20070940833E+02 -0.42655514739E+02 -0.31928036896E+03  0.33416195005E+03  0.86613620500E+02 0.  0.
          5    1    3    3  502    0 -0.49129736019E+02  0.19721129973E+02 -0.78186294492E+02  0.94515728718E+02  0.41800000000E+01 0. -1.
         -5    1    3    3    0  502  0.69200676852E+02  0.22934384766E+02 -0.36591326195E+02  0.81676907594E+02  0.41800000000E+01 0. -1.
        -11    1    4    4    0    0 -0.50662136277E+02 -0.65264085398E+01 -0.17604939671E+03  0.18331021833E+03  0.00000000000E+00 0.  1.
         11    1    4    4    0    0  0.30591195444E+02 -0.36129106199E+02 -0.14323097224E+03  0.15085173172E+03  0.00000000000E+00 0. -1.
</event>
<event>
 8    1  0.5951278E-006  0.9020173E+02  0.7561462E-02  0.1302364E+00
          1   -1    0    0  501    0  0.00000000000E+00  0.00000000000E+00  0.14319373406E+03  0.14319373406E+03  0.00000000000E+00 0. -1.
         -1   -1    0    0    0  501 -0.00000000000E+00 -0.00000000000E+00 -0.81523017188E+02  0.81523017188E+02  0.00000000000E+00 0.  1.
         23    2    1    2    0    0 -0.71058344456E+01  0.15307167638E+02  0.12021772300E+02  0.12679965204E+03  0.12509526963E+03 0.  0.
         23    2    1    2    0    0  0.71058344456E+01 -0.15307167638E+02  0.49648944571E+02  0.97917099204E+02  0.82691827621E+02 0.  0.
          5    1    3    3  502    0 -0.34932142708E+02 -0.27827290068E+02  0.46667430313E+02  0.64729700437E+02  0.41800000000E+01 0. -1.
         -5    1    3    3    0  502  0.27826308262E+02  0.43134457705E+02 -0.34645658013E+02  0.62069951604E+02  0.41800000000E+01 0. -1.
        -11    1    4    4    0    0 -0.32982300439E+02 -0.26628587542E+02  0.29494577770E+02  0.51641494310E+02  0.00000000000E+00 0. -1.
         11    1    4    4    0    0  0.40088134885E+02  0.11321419905E+02  0.20154366801E+02  0.46275604894E+02  0.00000000000E+00 0.  1.
</event>
<event>
 8    1  0.5951278E-006  0.1005993E+03  0.7561462E-02  0.1279041E+00
          2   -1    0    0  501    0  0.00000000000E+00  0.00000000000E+00  0.28468689999E+02  0.28468689999E+02  0.00000000000E+00 0. -1.
         -2   -1    0    0    0  501 -0.00000000000E+00 -0.00000000000E+00 -0.39946742747E+03  0.39946742747E+03  0.00000000000E+00 0.  1.
         23    2    1    2    0    0 -0.12337892837E+02 -0.10725962180E+02 -0.19926401220E+03  0.23382194979E+03  0.12124061936E+03 0.  0.
         23    2    1    2    0    0  0.12337892837E+02  0.10725962180E+02 -0.17173472527E+03  0.19411416767E+03  0.88995642389E+02 0.  0.
          5    1    3    3  502    0 -0.60902320802E+02 -0.24308014018E+02 -0.75354638402E+02  0.99978828525E+02  0.41800000000E+01 0. -1.
         -5    1    3    3    0  502  0.48564427965E+02  0.13582051837E+02 -0.12390937379E+03  0.13384312126E+03  0.41800000000E+01 0.  1.
        -11    1    4    4    0    0 -0.17643683780E+02 -0.29708794276E+02 -0.10489675407E+03  0.11044112028E+03  0.00000000000E+00 0. -1.
         11    1    4    4    0    0  0.29981576617E+02  0.40434756456E+02 -0.66837971204E+02  0.83673047398E+02  0.00000000000E+00 0.  1.
</event>
<event>
 8    1  0.5951278E-006  0.1135073E+03  0.7561462E-02  0.1254209E+00
          1   -1    0    0  501    0  0.00000000000E+00  0.00000000000E+00  0.12650064608E+03  0.12650064608E+03  0.00000000000E+00 0. -1.
         -1   -1    0    0    0  501 -0.00000000000E+00 -0.00000000000E+00 -0.16025645277E+03  0.16025645277E+03  0.00000000000E+00 0.  1.
         23    2    1    2    0    0  0.17102677147E+02  0.85845898317E+02 -0.46235775553E+02  0.15952804220E+03  0.12509767977E+03 0.  0.
         23    2    1    2    0    0 -0.17102677147E+02 -0.85845898317E+02  0.12479968858E+02  0.12722905665E+03  0.91484771466E+02 0.  0.
          5    1    3    3  502    0 -0.45553696555E+02  0.30839643545E+02  0.13596339411E+02  0.56820381283E+02  0.41800000000E+01 0. -1.
         -5    1    3    3    0  502  0.62656373702E+02  0.55006254772E+02 -0.59832114964E+02  0.10270766091E+03  0.41800000000E+01 0. -1.
        -11    1    4    4    0    0 -0.54915918715E+01 -0.57080403824E+02  0.51710523188E+02  0.77215984682E+02  0.00000000000E+00 0. -1.
         11    1    4    4    0    0 -0.11611085275E+02 -0.28765494493E+02 -0.39230554330E+02  0.50013071969E+02  0.00000000000E+00 0.  1.
</event>
<event>
 8    1  0.5951278E-006  0.1365510E+03  0.7561462E-02  0.1218047E+00
          1   -1    0    0  501    0  0.00000000000E+00  0.00000000000E+00  0.36027700479E+02  0.36027700479E+02  0.00000000000E+00 0. -1.
         -1   -1    0    0    0  501 -0.00000000000E+00 -0.00000000000E+00 -0.58615751447E+03  0.58615751447E+03  0.00000000000E+00 0.  1.
         23    2    1    2    0    0  0.40790745401E+02  0.79248392315E+02 -0.38601640281E+03  0.41416180142E+03  0.12073583527E+03 0.  0.
         23    2    1    2    0    0 -0.40790745401E+02 -0.79248392315E+02 -0.16411341118E+03  0.20802341353E+03  0.91631524345E+02 0.  0.
          5    1    3    3  502    0 -0.36744195184E+02  0.14813609113E+01 -0.64264838333E+02  0.74160448730E+02  0.41800000000E+01 0. -1.
         -5    1    3    3    0  502  0.77534940585E+02  0.77767031404E+02 -0.32175156448E+03  0.34000135269E+03  0.41800000000E+01 0.  1.
        -11    1    4    4    0    0 -0.11990318340E+01  0.19640159637E+02 -0.14859719367E+02  0.24657347943E+02  0.00000000000E+00 0.  1.
         11    1    4    4    0    0 -0.39591713567E+02 -0.98888551952E+02 -0.14925369181E+03  0.18336606559E+03  0.00000000000E+00 0. -1.
</event>
<event>
 8    1  0.5951278E-006  0.1062753E+03  0.7561462E-02  0.1267627E+00
          2   -1    0    0  501    0  0.00000000000E+00  0.00000000000E+00  0.39537715670E+02  0.39537715670E+02  0.00000000000E+00 0. -1.
         -2   -1    0    0    0  501 -0.00000000000E+00 -0.00000000000E+00 -0.35700495074E+03  0.35700495074E+03  0.00000000000E+00 0.  1.
         23    2    1    2    0    0  0.31184347125E+02 -0.39646951885E+02 -0.18799793030E+03  0.23137713321E+03  0.12509121342E+03 0.  0.
         23    2    1    2    0    0 -0.31184347125E+02  0.39646951885E+02 -0.12946930477E+03  0.16516553320E+03  0.89291702756E+02 0.  0.
          5    1    3    3  502    0 -0.10471086217E+02 -0.69527521890E+02 -0.15503887512E+03  0.17028871115E+03  0.41800000000E+01 0.  1.
         -5    1    3    3    0  502  0.41655433342E+02  0.29880570006E+02 -0.32959055176E+02  0.61088422053E+02  0.41800000000E+01 0.  1.
        -11    1    4    4    0    0 -0.44338005710E+02 -0.45470301176E+01 -0.25307922202E+02  0.51254513552E+02  0.00000000000E+00 0. -1.
         11    1    4    4    0    0  0.13153658585E+02  0.44193982002E+02 -0.10416138257E+03  0.11391101965E+03  0.00000000000E+00 0.  1.
</event>
<event>
 8    1  0.5951278E-006  0.1750193E+03  0.7561462E-02  0.1172712E+00
          1   -1    0    0  501    0  0.00000000000E+00  0.00000000000E+00  0.60735477284E+03  0.60735477284E+03  0.00000000000E+00 0. -1.
         -1   -1    0    0    0  501 -0.00000000000E+00 -0.00000000000E+00 -0.68607838043E+02  0.68607838043E+02  0.00000000000E+00 0.  1.
         23    2    1    2    0    0  0.12525323171E+03 -0.64489648789E+02  0.11634731617E+03  0.22142955321E+03  0.12508821767E+03 0.  0.
         23    2    1    2    0    0 -0.12525323171E+03  0.64489648789E+02  0.42239961863E+03  0.45453305768E+03  0.91277466272E+02 0.  0.
          5    1    3    3  502    0  0.14586337882E+03 -0.34000499411E+02  0.81443764065E+02  0.17053656014E+03  0.41800000000E+01 0. -1.
         -5    1    3    3    0  502 -0.20610147107E+02 -0.30489149378E+02  0.34903552107E+02  0.50892993067E+02  0.41800000000E+01 0. -1.
        -11    1    4    4    0    0 -0.47134509051E+02 -0.17165893746E+02  0.84842190417E+02  0.98562300736E+02  0.00000000000E+00 0.  1.
         11    1    4    4    0    0 -0.78118722660E+02  0.81655542535E+02  0.33755742821E+03  0.35597075694E+03  0.00000000000E+00 0. -1.
</event>
<event>
 8    1  0.5951278E-006  0.2708314E+03  0.7561462E-02  0.1100805E+00
         -2   -1    0    0    0  501 -0.00000000000E+00  0.00000000000E+00  0.32384170905E+03  0.32384170905E+03  0.00000000000E+00 0.  1.
          2   -1    0    0  501    0  0.00000000000E+00 -0.00000000000E+00 -0.25734192254E+03  0.25734192254E+03  0.00000000000E+00 0. -1.
         23    2    1    2    0    0 -0.16835022789E+03 -0.18708777656E+03  0.12491264714E+03  0.30755480464E+03  0.12507259123E+03 0.  0.
         23    2    1    2    0    0  0.16835022789E+03  0.18708777656E+03 -0.58412860626E+02  0.27362882695E+03  0.90094601874E+02 0.  0.
          5    1    3    3  502    0 -0.18314545176E+03 -0.19012076920E+03  0.11031404279E+03  0.28613777070E+03  0.41800000000E+01 0. -1.
         -5    1    3    3    0  502  0.14795223877E+02  0.30329926453E+01  0.14598604347E+02  0.21417033941E+02  0.41800000000E+01 0. -1.
        -11    1    4    4    0    0  0.15140161434E+03  0.12119040210E+03 -0.18665614104E+02  0.19482804607E+03  0.00000000000E+00 0.  1.
         11    1    4    4    0    0  0.16948613547E+02  0.65897374459E+02 -0.39747246522E+02  0.78800780884E+02  0.00000000000E+00 0. -1.
</event>
<event>
 8    1  0.5951278E-006  0.1717287E+03  0.7561462E-02  0.1176057E+00
          2   -1    0    0  501    0  0.00000000000E+00  0.00000000000E+00  0.13213507329E+04  0.13213507329E+04  0.00000000000E+00 0. -1.
         -2   -1    0    0    0  501 -0.00000000000E+00 -0.00000000000E+00 -0.24366081069E+02  0.24366081069E+02  0.00000000000E+00 0.  1.
         23    2    1    2    0    0  0.30815371336E+02  0.13517642504E+03  0.55200370658E+03  0.58273302038E+03  0.12508967969E+03 0.  0.
         23    2    1    2    0    0 -0.30815371336E+02 -0.13517642504E+03  0.74498094524E+03  0.76298379358E+03  0.89024757759E+02 0.  0.
          5    1    3    3  502    0 -0.14318561304E+02 -0.16010509269E+02  0.28369014603E+02  0.35827796393E+02  0.41800000000E+01 0.  1.
         -5    1    3    3    0  502  0.45133932640E+02  0.15118693431E+03  0.52363469198E+03  0.54690522399E+03  0.41800000000E+01 0.  1.
        -11    1    4    4    0    0 -0.61421266246E+02 -0.83095332100E+02  0.42789176062E+03  0.44019173660E+03  0.00000000000E+00 0.  1.
         11    1    4    4    0    0  0.30605894910E+02 -0.52081092941E+02  0.31708918463E+03  0.32279205698E+03  0.00000000000E+00 0. -1.
</event>
<event>
 8    1  0.5951278E-006  0.1718427E+03  0.7561462E-02  0.1175940E+00
         -1   -1    0    0    0  501 -0.00000000000E+00  0.00000000000E+00  0.42630881512E+02  0.42630881512E+02  0.00000000000E+00 0.  1.
          1   -1    0    0  501    0  0.00000000000E+00 -0.00000000000E+00 -0.84208433124E+03  0.84208433124E+03  0.00000000000E+00 0. -1.
         23    2    1    2    0    0  0.27265993387E+02 -0.15068616928E+03 -0.47872066078E+03  0.51794788933E+03  0.12508712561E+03 0.  0.
         23    2    1    2    0    0 -0.27265993387E+02  0.15068616928E+03 -0.32073278894E+03  0.36676732342E+03  0.90548283358E+02 0.  0.
          5    1    3    3  502    0  0.22255155805E+02 -0.16926692990E+03 -0.46039335902E+03  0.49104592753E+03  0.41800000000E+01 0. -1.
         -5    1    3    3    0  502  0.50108375816E+01  0.18580760621E+02 -0.18327301765E+02  0.26901961797E+02  0.41800000000E+01 0. -1.
        -11    1    4    4    0    0 -0.11638116503E+02  0.78567808858E+02 -0.71594293348E+02  0.10693030059E+03  0.00000000000E+00 0.  1.
         11    1    4    4    0    0 -0.15627876883E+02  0.72118360421E+02 -0.24913849560E+03  0.25983702283E+03  0.00000000000E+00 0. -1.
</event>
<event>
 8    1  0.5951278E-006  0.1362625E+03  0.7561462E-02  0.1218448E+00
         -2   -1    0    0    0  501 -0.00000000000E+00  0.00000000000E+00  0.42689208155E+03  0.42689208155E+03  0.00000000000E+00 0.  1.
          2   -1    0    0  501    0  0.00000000000E+00 -0.00000000000E+00 -0.76568617096E+02  0.76568617096E+02  0.00000000000E+00 0. -1.
         23    2    1    2    0    0  0.78312775717E+02  0.42769721156E+02  0.34096882903E+03  0.37399130758E+03  0.12509043085E+03 0.  0.
         23    2    1    2    0    0 -0.78312775717E+02 -0.42769721156E+02  0.93546354253E+01  0.12946939106E+03  0.93341706275E+02 0.  0.
          5    1    3    3  502    0 -0.29411644503E+02  0.58899046849E+01  0.29260943804E+02  0.42111887180E+02  0.41800000000E+01 0.  1.
         -5    1    3    3    0  502  0.10772442022E+03  0.36879816471E+02  0.31170788522E+03  0.33187942040E+03  0.41800000000E+01 0.  1.
        -11    1    4    4    0    0 -0.92100003014E+02 -0.57140308274E+02  0.13200979216E+02  0.10918649750E+03  0.00000000000E+00 0.  1.
         11    1    4    4    0    0  0.13787227296E+02  0.14370587118E+02 -0.38463437911E+01  0.20282893561E+02  0.00000000000E+00 0. -1.
</event>
<event>
 8    1  0.5951278E-006  0.1333990E+03  0.7561462E-02  0.1222498E+00
         -1   -1    0    0    0  501 -0.00000000000E+00  0.00000000000E+00  0.14168291508E+03  0.14168291508E+03  0.00000000000E+00 0.  1.
          1   -1    0    0  501    0  0.00000000000E+00 -0.00000000000E+00 -0.17936016928E+03  0.17936016928E+03  0.00000000000E+00 0. -1.
         23    2    1    2    0    0 -0.11008589320E+03  0.36686252814E+02 -0.33909492688E+02  0.17395996659E+03  0.12508969284E+03 0.  0.
         23    2    1    2    0    0  0.11008589320E+03 -0.36686252814E+02 -0.37677615197E+01  0.14708311776E+03  0.90302062419E+02 0.  0.
          5    1    3    3  502    0 -0.22931887706E+02  0.35934091616E+02  0.40751095160E+02  0.59120678030E+02  0.41800000000E+01 0.  1.
         -5    1    3    3    0  502 -0.87154005494E+02  0.75216119831E+00 -0.74660587848E+02  0.11483928856E+03  0.41800000000E+01 0.  1.
        -11    1    4    4    0    0  0.96030276320E+02 -0.57249426685E+02  0.18921617692E+02  0.11339020435E+03  0.00000000000E+00 0.  1.
         11    1    4    4    0    0  0.14055616880E+02  0.20563173871E+02 -0.22689379211E+02  0.33692913417E+02  0.00000000000E+00 0. -1.
</event>
<event>
 8    1  0.5951278E-006  0.1128169E+03  0.7561462E-02  0.1255441E+00
         -2   -1    0    0    0  501 -0.00000000000E+00  0.00000000000E+00  0.10422482927E+04  0.10422482927E+04  0.00000000000E+00 0.  1.
          2   -1    0    0  501    0  0.00000000000E+00 -0.00000000000E+00 -0.13203935712E+02  0.13203935712E+02  0.00000000000E+00 0. -1.
         23    2    1    2    0    0  0.39463106086E+02  0.22476357075E+02  0.70771331249E+03  0.72011649682E+03  0.12508842053E+03 0.  0.
         23    2    1    2    0    0 -0.39463106086E+02 -0.22476357075E+02  0.32133104455E+03  0.33533573164E+03  0.84462354661E+02 0.  0.
          5    1    3    3  502    0  0.17780515379E+02 -0.50401771559E+02  0.37416319624E+03  0.37798419957E+03  0.41800000000E+01 0.  1.
         -5    1    3    3    0  502  0.21682590707E+02  0.72878128634E+02  0.33355011624E+03  0.34213229725E+03  0.41800000000E+01 0.  1.
        -11    1    4    4    0    0 -0.43451390497E+02 -0.51041797648E+02  0.22803033915E+03  0.23767861498E+03  0.00000000000E+00 0. -1.
         11    1    4    4    0    0  0.39882844106E+01  0.28565440573E+02  0.93300705398E+02  0.97657116666E+02  0.00000000000E+00 0.  1.
</event>
<event>
 8    1  0.5951278E-006  0.7175971E+02  0.7561462E-02  0.1354209E+00
         -1   -1    0    0    0  501 -0.00000000000E+00  0.00000000000E+00  0.90604074670E+02  0.90604074670E+02  0.00000000000E+00 0.  1.
          1   -1    0    0  501    0  0.00000000000E+00 -0.00000000000E+00 -0.16015822994E+03  0.16015822994E+03  0.00000000000E+00 0. -1.
         23    2    1    2    0    0 -0.21288595498E+02  0.33424672790E+02 -0.54303346744E+01  0.13133016770E+03  0.12509081246E+03 0.  0.
         23    2    1    2    0    0  0.21288595498E+02 -0.33424672790E+02 -0.64123820600E+02  0.11943213692E+03  0.92637777990E+02 0.  0.
          5    1    3    3  502    0 -0.95648779486E+01  0.28886640183E+02  0.58483125832E+02  0.66058105319E+02  0.41800000000E+01 0.  1.
         -5    1    3    3    0  502 -0.11723717549E+02  0.45380326071E+01 -0.63913460506E+02  0.65272062377E+02  0.41800000000E+01 0.  1.
        -11    1    4    4    0    0  0.48773346277E+02  0.84179334364E+01 -0.22689363795E+02  0.54447296901E+02  0.00000000000E+00 0.  1.
         11    1    4    4    0    0 -0.27484750780E+02 -0.41842606226E+02 -0.41434456805E+02  0.64984840017E+02  0.00000000000E+00 0. -1.
</event>
<event>
 8    1  0.5951278E-006  0.1133942E+03  0.7561462E-02  0.1254410E+00
         -1   -1    0    0    0  501 -0.00000000000E+00  0.00000000000E+00  0.43751200521E+03  0.43751200521E+03  0.00000000000E+00 0.  1.
          1   -1    0    0  501    0  0.00000000000E+00 -0.00000000000E+00 -0.49359699222E+02  0.49359699222E+02  0.00000000000E+00 0. -1.
         23    2    1    2    0    0  0.82181508955E+02  0.50079207575E+02  0.25036182447E+03  0.29595630969E+03  0.12508943460E+03 0.  0.
         23    2    1    2    0    0 -0.82181508955E+02 -0.50079207575E+02  0.13779048152E+03  0.19091539475E+03  0.90557957729E+02 0.  0.
          5    1    3    3  502    0 -0.16557316333E+02 -0.36110221633E+01 -0.39399919579E+01  0.17893578229E+02  0.41800000000E+01 0.  1.
         -5    1    3    3    0  502  0.98738825287E+02  0.53690229738E+02  0.25430181643E+03  0.27806273146E+03  0.41800000000E+01 0.  1.
        -11    1    4    4    0    0 -0.67586422719E+02 -0.35960471843E+02  0.14914759527E+03  0.16764869593E+03  0.00000000000E+00 0.  1.
         11    1    4    4    0    0 -0.14595086235E+02 -0.14118735731E+02 -0.11357113755E+02  0.23266698814E+02  0.00000000000E+00 0. -1.
</event>
<event>
 8    1  0.5951278E-006  0.1344350E+03  0.7561462E-02  0.1221020E+00
         -1   -1    0    0    0  501 -0.00000000000E+00  0.00000000000E+00  0.42988579892E+02  0.42988579892E+02  0.00000000000E+00 0.  1.
          1   -1    0    0  501    0  0.00000000000E+00 -0.00000000000E+00 -0.45226825597E+03  0.45226825597E+03  0.00000000000E+00 0. -1.
         23    2    1    2    0    0 -0.41628702680E+02  0.75805511611E+02 -0.24852223907E+03  0.29135807946E+03  0.12508718032E+03 0.  0.
         23    2    1    2    0    0  0.41628702680E+02 -0.75805511611E+02 -0.16075743701E+03  0.20389875640E+03  0.90842307488E+02 0.  0.
          5    1    3    3  502    0 -0.27979937693E+01  0.10185659944E+03 -0.14081936519E+03  0.17386823065E+03  0.41800000000E+01 0. -1.
         -5    1    3    3    0  502 -0.38830708911E+02 -0.26051087828E+02 -0.10770287388E+03  0.11748984881E+03  0.41800000000E+01 0. -1.
        -11    1    4    4    0    0  0.28727804372E+02 -0.93630907916E+02 -0.10318412611E+03  0.14226383076E+03  0.00000000000E+00 0.  1.
         11    1    4    4    0    0  0.12900898308E+02  0.17825396305E+02 -0.57573310902E+02  0.61634925642E+02  0.00000000000E+00 0. -1.
</event>
<event>
 8    1  0.5951278E-006  0.1275840E+03  0.7561462E-02  0.1231085E+00
          1   -1    0    0  501    0  0.00000000000E+00  0.00000000000E+00  0.10785803864E+03  0.10785803864E+03  0.00000000000E+00 0. -1.
         -1   -1    0    0    0  501 -0.00000000000E+00 -0.00000000000E+00 -0.18402672733E+03  0.18402672733E+03  0.00000000000E+00 0.  1.
         23    2    1    2    0    0  0.47782471489E+02 -0.74020149069E+02 -0.57547505522E+02  0.16349791562E+03  0.12513075549E+03 0.  0.
         23    2    1    2    0    0 -0.47782471489E+02  0.74020149069E+02 -0.18621183165E+02  0.12838685035E+03  0.91511135014E+02 0.  0.
          5    1    3    3  502    0  0.63846871910E+02  0.26627100090E+01  0.34283662559E+01  0.64130641448E+02  0.41800000000E+01 0.  1.
         -5    1    3    3    0  502 -0.16064400422E+02 -0.76682859078E+02 -0.60975871778E+02  0.99367274171E+02  0.41800000000E+01 0.  1.
        -11    1    4    4    0    0  0.18544030779E+02  0.18154408036E+02 -0.31394917543E+02  0.40732105963E+02  0.00000000000E+00 0.  1.
         11    1    4    4    0    0 -0.66326502268E+02  0.55865741032E+02  0.12773734378E+02  0.87654744390E+02  0.00000000000E+00 0. -1.
</event>
<event>
 8    1  0.9936720E-006  0.2228816E+03  0.7561462E-02  0.1131753E+00
         -2   -1    0    0    0  501 -0.00000000000E+00  0.00000000000E+00  0.56111823735E+02  0.56111823735E+02  0.00000000000E+00 0.  1.
          2   -1    0    0  501    0  0.00000000000E+00 -0.00000000000E+00 -0.94494807124E+03  0.94494807124E+03  0.00000000000E+00 0. -1.
         23    2    1    2    0    0  0.15406687797E+03  0.13150324910E+03 -0.43693631237E+03  0.49758447087E+03  0.12508899702E+03 0.  0.
         23    2    1    2    0    0 -0.15406687797E+03 -0.13150324910E+03 -0.45189993513E+03  0.50347542410E+03  0.90797818739E+02 0.  0.
          5    1    3    3  502    0  0.13578976093E+02  0.77158988095E+02 -0.21895885004E+03  0.23259051667E+03  0.41800000000E+01 0.  1.
         -5    1    3    3    0  502  0.14048790188E+03  0.54344261003E+02 -0.21797746233E+03  0.26499395420E+03  0.41800000000E+01 0.  1.
        -11    1    4    4    0    0 -0.69221405838E+02 -0.12306947027E+02 -0.20212190414E+03  0.21400076660E+03  0.00000000000E+00 0. -1.
         11    1    4    4    0    0 -0.84845472136E+02 -0.11919630207E+03 -0.24977803099E+03  0.28947465750E+03  0.00000000000E+00 0.  1.
</event>
<event>
 8    1  0.5951278E-006  0.8674824E+02  0.7561462E-02  0.1310923E+00
         -1   -1    0    0    0  501 -0.00000000000E+00  0.00000000000E+00  0.63725055674E+02  0.63725055674E+02  0.00000000000E+00 0.  1.
          1   -1    0    0  501    0  0.00000000000E+00 -0.00000000000E+00 -0.14762983228E+03  0.14762983228E+03  0.00000000000E+00 0. -1.
         23    2    1    2    0    0  0.51757760781E+01 -0.42090988888E+01 -0.50263210318E+02  0.13498193290E+03  0.12509686938E+03 0.  0.
         23    2    1    2    0    0 -0.51757760781E+01  0.42090988888E+01 -0.33641566290E+02  0.76372955051E+02  0.68239051205E+02 0.  0.
          5    1    3    3  502    0  0.11891643183E+01 -0.55271536681E+02  0.94061999813E+01  0.56234383405E+02  0.41800000000E+01 0.  1.
         -5    1    3    3    0  502  0.39866117598E+01  0.51062437792E+02 -0.59669410299E+02  0.78747549499E+02  0.41800000000E+01 0.  1.
        -11    1    4    4    0    0 -0.24813141236E+02  0.26941145562E+02 -0.95103254270E+01  0.37841294797E+02  0.00000000000E+00 0.  1.
         11    1    4    4    0    0  0.19637365158E+02 -0.22732046674E+02 -0.24131240863E+02  0.38531660254E+02  0.00000000000E+00 0. -1.
</event>
<event>
 8    1  0.5951278E-006  0.1489215E+03  0.7561462E-02  0.1201805E+00
          3   -1    0    0  501    0  0.00000000000E+00  0.00000000000E+00  0.80785922018E+02  0.80785922018E+02  0.00000000000E+00 0. -1.
         -3   -1    0    0    0  501 -0.00000000000E+00 -0.00000000000E+00 -0.35786481177E+03  0.35786481177E+03  0.00000000000E+00 0.  1.
         23    2    1    2    0    0  0.52796516687E+02  0.10928501382E+03 -0.20166440534E+03  0.26751967376E+03  0.12715170879E+03 0.  0.
         23    2    1    2    0    0 -0.52796516687E+02 -0.10928501382E+03 -0.75414484418E+02  0.17113106003E+03  0.94169043885E+02 0.  0.
          5    1    3    3  502    0  0.92989446508E+02  0.92178377743E+02 -0.13883612006E+03  0.19088433964E+03  0.41800000000E+01 0. -1.
         -5    1    3    3    0  502 -0.40192929821E+02  0.17106636078E+02 -0.62828285279E+02  0.76635334126E+02  0.41800000000E+01 0.  1.
        -11    1    4    4    0    0 -0.18583600651E+02 -0.19785949234E+02 -0.70095680537E+02  0.75168067889E+02  0.00000000000E+00 0.  1.
         11    1    4    4    0    0 -0.34212916036E+02 -0.89499064587E+02 -0.53188038812E+01  0.95962992140E+02  0.00000000000E+00 0. -1.
</event>
<event>
 7    1  0.5951278E-006  0.1503792E+03  0.7561462E-02  0.1200008E+00
          2   -1    0    0  501    0  0.00000000000E+00  0.00000000000E+00  0.81389677147E+03  0.81389677147E+03  0.00000000000E+00 0. -1.
         -2   -1    0    0    0  501 -0.00000000000E+00 -0.00000000000E+00 -0.75564139908E+02  0.75564139908E+02  0.00000000000E+00 0.  1.
         23    2    1    2    0    0  0.54949216434E+02  0.92584248453E+01  0.53156855866E+03  0.54218868923E+03  0.91095045745E+02 0.  0.
          5    1    1    2  502    0 -0.12475205994E+03 -0.74764000096E+01  0.23939431115E+03  0.27008532286E+03  0.41800000000E+01 0. -1.
         -5    1    1    2    0  502  0.69802843501E+02 -0.17820248357E+01 -0.32630238243E+02  0.77186899285E+02  0.41800000000E+01 0.  1.
        -11    1    3    3    0    0  0.78120731410E+02  0.19360690382E+02  0.43394252014E+03  0.44134317236E+03  0.00000000000E+00 0. -1.
         11    1    3    3    0    0 -0.23171514976E+02 -0.10102265537E+02  0.97626038525E+02  0.10084551687E+03  0.00000000000E+00 0.  1.
</event>
<event>
 8    1  0.5951278E-006  0.1154408E+03  0.7561462E-02  0.1250814E+00
         -2   -1    0    0    0  501 -0.00000000000E+00  0.00000000000E+00  0.32469587894E+02  0.32469587894E+02  0.00000000000E+00 0.  1.
          2   -1    0    0  501    0  0.00000000000E+00 -0.00000000000E+00 -0.41675284230E+03  0.41675284230E+03  0.00000000000E+00 0. -1.
         23    2    1    2    0    0  0.23789172333E+02 -0.32937633535E+02 -0.20702276115E+03  0.24526248777E+03  0.12507778320E+03 0.  0.
         23    2    1    2    0    0 -0.23789172333E+02  0.32937633535E+02 -0.17726049326E+03  0.20395994242E+03  0.92344806133E+02 0.  0.
          5    1    3    3  502    0  0.68317077071E+02  0.99988062686E+01 -0.10031514171E+03  0.12185154575E+03  0.41800000000E+01 0.  1.
         -5    1    3    3    0  502 -0.44527904738E+02 -0.42936439803E+02 -0.10670761944E+03  0.12341094202E+03  0.41800000000E+01 0.  1.
        -11    1    4    4    0    0 -0.52002803820E+02 -0.52120313186E+01 -0.77305151146E+02  0.93314217937E+02  0.00000000000E+00 0.  1.
         11    1    4    4    0    0  0.28213631486E+02  0.38149664853E+02 -0.99955342112E+02  0.11064572448E+03  0.00000000000E+00 0. -1.
</event>
<event>
 8    1  0.5951278E-006  0.1104423E+03  0.7561462E-02  0.1259753E+00
          2   -1    0    0  501    0  0.00000000000E+00  0.00000000000E+00  0.86758409276E+03  0.86758409276E+03  0.00000000000E+00 0.  1.
         -2   -1    0    0    0  501 -0.00000000000E+00 -0.00000000000E+00 -0.17466752877E+02  0.17466752877E+02  0.00000000000E+00 0. -1.
         23    2    1    2    0    0 -0.46533747165E+02 -0.34234329747E+02  0.43139859913E+03  0.45286889453E+03  0.12509238725E+03 0.  0.
         23    2    1    2    0    0  0.46533747165E+02  0.34234329747E+02  0.41871874076E+03  0.43218195111E+03  0.90102586205E+02 0.  0.
          5    1    3    3  502    0 -0.17576691895E+02 -0.75176009488E+02  0.17120066507E+03  0.18784970753E+03  0.41800000000E+01 0.  1.
         -5    1    3    3    0  502 -0.28957055271E+02  0.40941679741E+02  0.26019793406E+03  0.26501918700E+03  0.41800000000E+01 0.  1.
        -11    1    4    4    0    0  0.66207224507E+02  0.31720149645E+02  0.39249959914E+03  0.39930627318E+03  0.00000000000E+00 0.  1.
         11    1    4    4    0    0 -0.19673477341E+02  0.25141801024E+01  0.26219141615E+02  0.32875677929E+02  0.00000000000E+00 0. -1.
</event>
<event>
 8    1  0.5951278E-006  0.1605816E+03  0.7561462E-02  0.1188042E+00
          3   -1    0    0  501    0  0.00000000000E+00  0.00000000000E+00  0.24644921589E+02  0.24644921589E+02  0.00000000000E+00 0. -1.
         -3   -1    0    0    0  501 -0.00000000000E+00 -0.00000000000E+00 -0.13222726787E+04  0.13222726787E+04  0.00000000000E+00 0.  1.
         23    2    1    2    0    0 -0.54533834419E+02  0.11885209784E+03 -0.90743107324E+03  0.92529906683E+03  0.12508976833E+03 0.  0.
         23    2    1    2    0    0  0.54533834419E+02 -0.11885209784E+03 -0.39019668385E+03  0.42161853343E+03  0.91700465610E+02 0.  0.
          5    1    3    3  502    0  0.39694805680E+02  0.22348667878E+02 -0.20825094657E+03  0.21321601652E+03  0.41800000000E+01 0.  1.
         -5    1    3    3    0  502 -0.94228640098E+02  0.96503429959E+02 -0.69918012667E+03  0.71208305031E+03  0.41800000000E+01 0.  1.
        -11    1    4    4    0    0  0.60727059108E+02 -0.76499195222E+02 -0.15984748659E+03  0.18732624361E+03  0.00000000000E+00 0. -1.
         11    1    4    4    0    0 -0.61932246899E+01 -0.42352902616E+02 -0.23034919726E+03  0.23429228982E+03  0.00000000000E+00 0.  1.
</event>
<event>
 8    1  0.5951278E-006  0.1411048E+03  0.7561462E-02  0.1211850E+00
          4   -1    0    0  501    0  0.00000000000E+00  0.00000000000E+00  0.39838584544E+02  0.39838584544E+02  0.00000000000E+00 0. -1.
         -4   -1    0    0    0  501 -0.00000000000E+00 -0.00000000000E+00 -0.79539944275E+03  0.79539944275E+03  0.00000000000E+00 0.  1.
         23    2    1    2    0    0  0.85198672014E+02 -0.76176650369E+02 -0.61160037808E+03  0.63463690149E+03  0.12508908224E+03 0.  0.
         23    2    1    2    0    0 -0.85198672014E+02  0.76176650369E+02 -0.14396048013E+03  0.20060112580E+03  0.80339878391E+02 0.  0.
          5    1    3    3  502    0 -0.14085750450E+02 -0.66374282330E+02 -0.20607051206E+03  0.21699419822E+03  0.41800000000E+01 0. -1.
         -5    1    3    3    0  502  0.99284422464E+02 -0.98023680394E+01 -0.40552986602E+03  0.41764270327E+03  0.41800000000E+01 0. -1.
        -11    1    4    4    0    0 -0.75428083534E+02  0.65461876866E+02 -0.15358137211E+03  0.18319904739E+03  0.00000000000E+00 0.  1.
         11    1    4    4    0    0 -0.97705884800E+01  0.10714773503E+02  0.96208919772E+01  0.17402078407E+02  0.00000000000E+00 0. -1.
</event>
<event>
 8    1  0.6113080E-006  0.2523951E+03  0.7561462E-02  0.1111800E+00
          2   -1    0    0  501    0  0.00000000000E+00  0.00000000000E+00  0.21651990766E+03  0.21651990766E+03  0.00000000000E+00 0. -1.
         -2   -1    0    0    0  501 -0.00000000000E+00 -0.00000000000E+00 -0.31687553132E+03  0.31687553132E+03  0.00000000000E+00 0.  1.
         23    2    1    2    0    0  0.71731986024E+02  0.21665869539E+03 -0.12236523556E+03  0.28758810087E+03  0.12508875561E+03 0.  0.
         23    2    1    2    0    0 -0.71731986024E+02 -0.21665869539E+03  0.22009611893E+02  0.24580733812E+03  0.88602236705E+02 0.  0.
          5    1    3    3  502    0  0.10552628309E+03  0.13274431590E+03 -0.82868885984E+02  0.18878976268E+03  0.41800000000E+01 0.  1.
         -5    1    3    3    0  502 -0.33794297068E+02  0.83914379487E+02 -0.39496349574E+02  0.98798338188E+02  0.41800000000E+01 0.  1.
        -11    1    4    4    0    0  0.20324892274E+01 -0.13319903075E+03  0.67964830405E+01  0.13338779924E+03  0.00000000000E+00 0. -1.
         11    1    4    4    0    0 -0.73764475252E+02 -0.83459664640E+02  0.15213128852E+02  0.11241953887E+03  0.00000000000E+00 0.  1.
</event>
<event>
 8    1  0.5951278E-006  0.1008970E+03  0.7561462E-02  0.1278421E+00
         -3   -1    0    0    0  501 -0.00000000000E+00  0.00000000000E+00  0.27775338687E+03  0.27775338687E+03  0.00000000000E+00 0.  1.
          3   -1    0    0  501    0  0.00000000000E+00 -0.00000000000E+00 -0.64405711551E+02  0.64405711551E+02  0.00000000000E+00 0. -1.
         23    2    1    2    0    0 -0.88561126993E+02 -0.13158861076E+02  0.10184505395E+03  0.18448947930E+03  0.12509086345E+03 0.  0.
         23    2    1    2    0    0  0.88561126993E+02  0.13158861076E+02  0.11150262137E+03  0.15766961912E+03  0.66412689926E+02 0.  0.
          5    1    3    3  502    0 -0.49294673146E+02 -0.14545853267E+02  0.12739522155E+03  0.13743566321E+03  0.41800000000E+01 0. -1.
         -5    1    3    3    0  502 -0.39266453847E+02  0.13869921907E+01 -0.25550167594E+02  0.47053816095E+02  0.41800000000E+01 0. -1.
        -11    1    4    4    0    0  0.93025452901E+02 -0.38753710392E+01  0.86488684068E+02  0.12707889620E+03  0.00000000000E+00 0.  1.
         11    1    4    4    0    0 -0.44643259076E+01  0.17034232115E+02  0.25013937298E+02  0.30590722919E+02  0.00000000000E+00 0. -1.
</event>
<event>
 8    1  0.5951278E-006  0.1481225E+03  0.7561462E-02  0.1202799E+00
         -1   -1    0    0    0  501 -0.00000000000E+00  0.00000000000E+00  0.48781935883E+02  0.48781935883E+02  0.00000000000E+00 0.  1.
          1   -1    0    0  501    0  0.00000000000E+00 -0.00000000000E+00 -0.51921536659E+03  0.51921536659E+03  0.00000000000E+00 0. -1.
         23    2    1    2    0    0  0.83785477329E+02 -0.61416445594E+02 -0.15891408805E+03  0.22736057216E+03  0.12508859417E+03 0.  0.
         23    2    1    2    0    0 -0.83785477329E+02  0.61416445594E+02 -0.31151934265E+03  0.34063673031E+03  0.90537810834E+02 0.  0.
          5    1    3    3  502    0 -0.20700118404E+02  0.17675162121E+02 -0.49276259812E+02  0.56449344008E+02  0.41800000000E+01 0.  1.
         -5    1    3    3    0  502  0.10448559573E+03 -0.79091607715E+02 -0.10963782824E+03  0.17091122815E+03  0.41800000000E+01 0.  1.
        -11    1    4    4    0    0 -0.91792431674E+02  0.77171458707E+02 -0.26492101603E+03  0.29079963770E+03  0.00000000000E+00 0.  1.
         11    1    4    4    0    0  0.80069543449E+01 -0.15755013114E+02 -0.46598326628E+02  0.49837092618E+02  0.00000000000E+00 0. -1.
</event>
<event>
 8    1  0.5951278E-006  0.7913910E+02  0.7561462E-02  0.1331512E+00
         -1   -1    0    0    0  501 -0.00000000000E+00  0.00000000000E+00  0.73721944438E+02  0.73721944438E+02  0.00000000000E+00 0.  1.
          1   -1    0    0  501    0  0.00000000000E+00 -0.00000000000E+00 -0.19664368610E+03  0.19664368610E+03  0.00000000000E+00 0. -1.
         23    2    1    2    0    0 -0.11005869406E+02  0.24438559946E+02 -0.16890186340E+02  0.12904227149E+03  0.12509299366E+03 0.  0.
         23    2    1    2    0    0  0.11005869406E+02 -0.24438559946E+02 -0.10603155533E+03  0.14132335905E+03  0.89505467511E+02 0.  0.
          5    1    3    3  502    0  0.28395119966E+02  0.13390082056E+02  0.44819284100E+02  0.54880030636E+02  0.41800000000E+01 0.  1.
         -5    1    3    3    0  502 -0.39400989372E+02  0.11048477890E+02 -0.61709470439E+02  0.74162240858E+02  0.41800000000E+01 0.  1.
        -11    1    4    4    0    0  0.21300777903E+02  0.26218683647E+02 -0.15709287622E+02  0.37254855107E+02  0.00000000000E+00 0. -1.
         11    1    4    4    0    0 -0.10294908497E+02 -0.50657243593E+02 -0.90322267705E+02  0.10406850394E+03  0.00000000000E+00 0.  1.
</event>
<event>
 8    1  0.5951278E-006  0.8673727E+02  0.7561462E-02  0.1310951E+00
          3   -1    0    0  501    0  0.00000000000E+00  0.00000000000E+00  0.99108771394E+02  0.99108771394E+02  0.00000000000E+00 0. -1.
         -3   -1    0    0    0  501 -0.00000000000E+00 -0.00000000000E+00 -0.15613310025E+03  0.15613310025E+03  0.00000000000E+00 0.  1.
         23    2    1    2    0    0 -0.13856696927E+02  0.24659416225E+02 -0.87374155698E+02  0.15518218270E+03  0.12508865610E+03 0.  0.
         23    2    1    2    0    0  0.13856696927E+02 -0.24659416225E+02  0.30349826844E+02  0.10005968894E+03  0.91053470573E+02 0.  0.
          5    1    3    3  502    0 -0.48275181100E+02  0.58452360532E+02 -0.34211299576E+02  0.83276989503E+02  0.41800000000E+01 0. -1.
         -5    1    3    3    0  502  0.34418484173E+02 -0.33792944307E+02 -0.53162856122E+02  0.71905193197E+02  0.41800000000E+01 0. -1.
        -11    1    4    4    0    0  0.27573527260E+02 -0.10739752794E+02  0.58635728738E+02  0.65679451735E+02  0.00000000000E+00 0. -1.
         11    1    4    4    0    0 -0.13716830332E+02 -0.13919663431E+02 -0.28285901894E+02  0.34380237206E+02  0.00000000000E+00 0.  1.
</event>
<event>
 8    1  0.5951278E-006  0.8071197E+02  0.7561462E-02  0.1327043E+00
          3   -1    0    0  501    0  0.00000000000E+00  0.00000000000E+00  0.21643939600E+02  0.21643939600E+02  0.00000000000E+00 0. -1.
         -3   -1    0    0    0  501 -0.00000000000E+00 -0.00000000000E+00 -0.67729556541E+03  0.67729556541E+03  0.00000000000E+00 0.  1.
         23    2    1    2    0    0  0.15113150694E+02  0.45503330225E+02 -0.35079580810E+03  0.37550521248E+03  0.12508998852E+03 0.  0.
         23    2    1    2    0    0 -0.15113150694E+02 -0.45503330225E+02 -0.30485581771E+03  0.32343429253E+03  0.96817930214E+02 0.  0.
          5    1    3    3  502    0  0.24208511156E+02  0.22079352936E+02 -0.11085538356E+02  0.34841231308E+02  0.41800000000E+01 0.  1.
         -5    1    3    3    0  502 -0.90953604614E+01  0.23423977289E+02 -0.33971026975E+03  0.34066398117E+03  0.41800000000E+01 0.  1.
        -11    1    4    4    0    0 -0.45483148519E+02  0.31217061855E+01 -0.18555161158E+03  0.19107030750E+03  0.00000000000E+00 0.  1.
         11    1    4    4    0    0  0.30369997825E+02 -0.48625036410E+02 -0.11930420612E+03  0.13236398503E+03  0.00000000000E+00 0. -1.
</event>
<event>
 8    1  0.5951278E-006  0.9525496E+02  0.7561462E-02  0.1290603E+00
          2   -1    0    0  501    0  0.00000000000E+00  0.00000000000E+00  0.84143907436E+02  0.84143907436E+02  0.00000000000E+00 0. -1.
         -2   -1    0    0    0  501 -0.00000000000E+00 -0.00000000000E+00 -0.18355726026E+03  0.18355726026E+03  0.00000000000E+00 0.  1.
         23    2    1    2    0    0 -0.87482100634E+01 -0.57660871583E+02 -0.73067108797E+02  0.15616489941E+03  0.12508943253E+03 0.  0.
         23    2    1    2    0    0  0.87482100634E+01  0.57660871583E+02 -0.26346244029E+02  0.11153626829E+03  0.91350464025E+02 0.  0.
          5    1    3    3  502    0 -0.61582114442E+02 -0.31067665092E+02 -0.67514770496E+02  0.96608867442E+02  0.41800000000E+01 0. -1.
         -5    1    3    3    0  502  0.52833904379E+02 -0.26593206492E+02 -0.55523383017E+01  0.59556031970E+02  0.41800000000E+01 0. -1.
        -11    1    4    4    0    0 -0.60135908698E+01  0.31540002460E+02 -0.59012594144E+02  0.67182001294E+02  0.00000000000E+00 0.  1.
         11    1    4    4    0    0  0.14761800933E+02  0.26120869123E+02  0.32666350115E+02  0.44354266992E+02  0.00000000000E+00 0. -1.
</event>
<event>
 8    1  0.5951278E-006  0.1264396E+03  0.7561462E-02  0.1232836E+00
          3   -1    0    0  501    0  0.00000000000E+00  0.00000000000E+00  0.14606344579E+02  0.14606344579E+02  0.00000000000E+00 0. -1.
         -3   -1    0    0    0  501 -0.00000000000E+00 -0.00000000000E+00 -0.18883990213E+04  0.18883990213E+04  0.00000000000E+00 0.  1.
         23    2    1    2    0    0 -0.48748787909E+02  0.53504839919E+02 -0.15928014775E+04  0.15993446239E+04  0.12508983694E+03 0.  0.
         23    2    1    2    0    0  0.48748787909E+02 -0.53504839919E+02 -0.28099119921E+03  0.30366074189E+03  0.89524186195E+02 0.  0.
          5    1    3    3  502    0 -0.88588896846E+02  0.20646095710E+02 -0.11262428495E+04  0.11299179980E+04  0.41800000000E+01 0.  1.
         -5    1    3    3    0  502  0.39840108937E+02  0.32858744209E+02 -0.46655862801E+03  0.46942662592E+03  0.41800000000E+01 0.  1.
        -11    1    4    4    0    0  0.18015561768E+02 -0.71946279089E+02 -0.22739444605E+03  0.23918415841E+03  0.00000000000E+00 0. -1.
         11    1    4    4    0    0  0.30733226141E+02  0.18441439170E+02 -0.53596753161E+02  0.64476583479E+02  0.00000000000E+00 0.  1.
</event>
<event>
 8    1  0.5951278E-006  0.1562749E+03  0.7561462E-02  0.1192968E+00
         -2   -1    0    0    0  501 -0.00000000000E+00  0.00000000000E+00  0.10576719302E+03  0.10576719302E+03  0.00000000000E+00 0.  1.
          2   -1    0    0  501    0  0.00000000000E+00 -0.00000000000E+00 -0.25686568186E+03  0.25686568186E+03  0.00000000000E+00 0. -1.
         23    2    1    2    0    0  0.96167236032E+02  0.75996342077E+02 -0.60541308086E+02  0.18530131417E+03  0.12509094992E+03 0.  0.
         23    2    1    2    0    0 -0.96167236032E+02 -0.75996342077E+02 -0.90557180761E+02  0.17733156072E+03  0.90676888695E+02 0.  0.
          5    1    3    3  502    0  0.11520943007E+03  0.41692453725E+02 -0.12640891412E+02  0.12324259820E+03  0.41800000000E+01 0. -1.
         -5    1    3    3    0  502 -0.19042194039E+02  0.34303888352E+02 -0.47900416674E+02  0.62058715967E+02  0.41800000000E+01 0. -1.
        -11    1    4    4    0    0 -0.65163613957E+02  0.34135326599E+01 -0.25348884034E+02  0.70003676410E+02  0.00000000000E+00 0.  1.
         11    1    4    4    0    0 -0.31003622075E+02 -0.79409874737E+02 -0.65208296727E+02  0.10732788431E+03  0.00000000000E+00 0. -1.
</event>
<event>
 8    1  0.5951278E-006  0.9440088E+02  0.7561462E-02  0.1292531E+00
         -3   -1    0    0    0  501 -0.00000000000E+00  0.00000000000E+00  0.26854410051E+02  0.26854410051E+02  0.00000000000E+00 0.  1.
          3   -1    0    0  501    0  0.00000000000E+00 -0.00000000000E+00 -0.45951465526E+03  0.45951465526E+03  0.00000000000E+00 0. -1.
         23    2    1    2    0    0 -0.17965186079E+02  0.68702952826E+01 -0.22634977955E+03  0.25932816000E+03  0.12508766126E+03 0.  0.
         23    2    1    2    0    0  0.17965186079E+02 -0.68702952826E+01 -0.20631046566E+03  0.22704090531E+03  0.92809566179E+02 0.  0.
          5    1    3    3  502    0 -0.48252698341E+02  0.44514211441E+02 -0.71939434983E+02  0.97481242417E+02  0.41800000000E+01 0.  1.
         -5    1    3    3    0  502  0.30287512262E+02 -0.37643916159E+02 -0.15441034457E+03  0.16184691758E+03  0.41800000000E+01 0.  1.
        -11    1    4    4    0    0 -0.18323634797E+02  0.21653642691E+02 -0.19034354521E+02  0.34160539896E+02  0.00000000000E+00 0.  1.
         11    1    4    4    0    0  0.36288820877E+02 -0.28523937973E+02 -0.18727611114E+03  0.19288036542E+03  0.00000000000E+00 0. -1.
</event>
<event>
 8    1  0.5951278E-006  0.1356871E+03  0.7561462E-02  0.1219253E+00
         -1   -1    0    0    0  501 -0.00000000000E+00  0.00000000000E+00  0.93814032140E+02  0.93814032140E+02  0.00000000000E+00 0. -1.
          1   -1    0    0  501    0  0.00000000000E+00 -0.00000000000E+00 -0.33310834582E+03  0.33310834582E+03  0.00000000000E+00 0.  1.
         23    2    1    2    0    0  0.83259831356E+02 -0.67685719358E+01  0.48130870587E+01  0.15049721396E+03  0.12509289555E+03 0.  0.
         23    2    1    2    0    0 -0.83259831356E+02  0.67685719358E+01 -0.24410740073E+03  0.27642516400E+03  0.99219126763E+02 0.  0.
          5    1    3    3  502    0  0.86793788243E+02 -0.49434155064E+02  0.24895376750E+02  0.10302499477E+03  0.41800000000E+01 0. -1.
         -5    1    3    3    0  502 -0.35339568871E+01  0.42665583128E+02 -0.20082289691E+02  0.47472219183E+02  0.41800000000E+01 0. -1.
        -11    1    4    4    0    0  0.61745936266E+01 -0.30777714958E+02 -0.77872969670E+02  0.83961852944E+02  0.00000000000E+00 0.  1.
         11    1    4    4    0    0 -0.89434424983E+02  0.37546286894E+02 -0.16623443106E+03  0.19246331106E+03  0.00000000000E+00 0. -1.
</event>
<event>
 8    1  0.5951278E-006  0.9917377E+02  0.7561462E-02  0.1282043E+00
         -3   -1    0    0    0  501 -0.00000000000E+00  0.00000000000E+00  0.27051640365E+03  0.27051640365E+03  0.00000000000E+00 0.  1.
          3   -1    0    0  501    0  0.00000000000E+00 -0.00000000000E+00 -0.83717388915E+02  0.83717388915E+02  0.00000000000E+00 0. -1.
         23    2    1    2    0    0 -0.36839563542E+02  0.58495740756E+01  0.21837109780E+03  0.25441163195E+03  0.12509185090E+03 0.  0.
         23    2    1    2    0    0  0.36839563542E+02 -0.58495740756E+01 -0.31572083064E+02  0.99822160611E+02  0.87041923009E+02 0.  0.
          5    1    3    3  502    0 -0.38174625118E+02  0.62658605184E+02  0.12700047882E+03  0.14673103566E+03  0.41800000000E+01 0. -1.
         -5    1    3    3    0  502  0.13350615760E+01 -0.56809031108E+02  0.91370618981E+02  0.10768059629E+03  0.41800000000E+01 0. -1.
        -11    1    4    4    0    0 -0.67757249787E+00 -0.25512194926E+02 -0.48022171322E+02  0.54382535183E+02  0.00000000000E+00 0. -1.
         11    1    4    4    0    0  0.37517136040E+02  0.19662620851E+02  0.16450088258E+02  0.45439625428E+02  0.00000000000E+00 0.  1.
</event>
<event>
 8    1  0.5951278E-006  0.9687502E+02  0.7561462E-02  0.1287008E+00
          1   -1    0    0  501    0  0.00000000000E+00  0.00000000000E+00  0.44736588485E+03  0.44736588485E+03  0.00000000000E+00 0. -1.
         -1   -1    0    0    0  501 -0.00000000000E+00 -0.00000000000E+00 -0.28393897388E+02  0.28393897388E+02  0.00000000000E+00 0.  1.
         23    2    1    2    0    0  0.51904174685E+01  0.16801156103E+02  0.20958100636E+03  0.24470272003E+03  0.12508398652E+03 0.  0.
         23    2    1    2    0    0 -0.51904174685E+01 -0.16801156103E+02  0.20939098111E+03  0.23105706221E+03  0.96091434322E+02 0.  0.
          5    1    3    3  502    0  0.13307130051E+02 -0.46229982319E+02  0.14965753659E+03  0.15725502101E+03  0.41800000000E+01 0. -1.
         -5    1    3    3    0  502 -0.81167125824E+01  0.63031138423E+02  0.59923469771E+02  0.87447699017E+02  0.41800000000E+01 0. -1.
        -11    1    4    4    0    0 -0.25227512225E+01 -0.49199835024E+02  0.57462931086E+02  0.75690002571E+02  0.00000000000E+00 0.  1.
         11    1    4    4    0    0 -0.26676662461E+01  0.32398678921E+02  0.15192805002E+03  0.15536705964E+03  0.00000000000E+00 0. -1.
</event>
<event>
 8    1  0.5951278E-006  0.1099353E+03  0.7561462E-02  0.1260690E+00
          2   -1    0    0  501    0  0.00000000000E+00  0.00000000000E+00  0.19623464209E+03  0.19623464209E+03  0.00000000000E+00 0. -1.
         -2   -1    0    0    0  501 -0.00000000000E+00 -0.00000000000E+00 -0.77280081522E+02  0.77280081522E+02  0.00000000000E+00 0.  1.
         23    2    1    2    0    0  0.11591089042E+02 -0.11292594801E+02  0.59875012394E+02  0.13962328513E+03  0.12509104124E+03 0.  0.
         23    2    1    2    0    0 -0.11591089042E+02  0.11292594801E+02  0.59079548173E+02  0.13389143848E+03  0.11905733175E+03 0.  0.
          5    1    3    3  502    0 -0.49471331718E+01 -0.60690438929E+02  0.62419646904E+02  0.87301135294E+02  0.41800000000E+01 0.  1.
         -5    1    3    3    0  502  0.16538222213E+02  0.49397844128E+02 -0.25446345105E+01  0.52322149834E+02  0.41800000000E+01 0.  1.
        -11    1    4    4    0    0  0.37113826812E+02  0.36222820474E+02  0.59821812458E+02  0.79171826489E+02  0.00000000000E+00 0. -1.
         11    1    4    4    0    0 -0.48704915854E+02 -0.24930225673E+02 -0.74226428502E+00  0.54719611994E+02  0.00000000000E+00 0.  1.
</event>
<event>
 8    1  0.5951278E-006  0.1047665E+03  0.7561462E-02  0.1270580E+00
         -1   -1    0    0    0  501 -0.00000000000E+00  0.00000000000E+00  0.46795235691E+02  0.46795235691E+02  0.00000000000E+00 0.  1.
          1   -1    0    0  501    0  0.00000000000E+00 -0.00000000000E+00 -0.51743886260E+03  0.51743886260E+03  0.00000000000E+00 0. -1.
         23    2    1    2    0    0  0.10043351792E+03 -0.88672693797E+01 -0.20081655087E+03  0.25718061115E+03  0.12509620163E+03 0.  0.
         23    2    1    2    0    0 -0.10043351792E+03  0.88672693797E+01 -0.26982707604E+03  0.30705348714E+03  0.10634694642E+03 0.  0.
          5    1    3    3  502    0  0.91310275161E+02 -0.13302735787E+02 -0.48234239098E+02  0.10420433461E+03  0.41800000000E+01 0. -1.
         -5    1    3    3    0  502  0.91232427567E+01  0.44354664072E+01 -0.15258231177E+03  0.15297627654E+03  0.41800000000E+01 0. -1.
        -11    1    4    4    0    0 -0.61654874932E+02 -0.10987901859E+02 -0.42729191884E+02  0.75814519910E+02  0.00000000000E+00 0.  1.
         11    1    4    4    0    0 -0.38778642985E+02  0.19855171239E+02 -0.22709788416E+03  0.23123896723E+03  0.00000000000E+00 0. -1.
</event>
<event>
 8    1  0.5951278E-006  0.7706269E+02  0.7561462E-02  0.1337600E+00
         -1   -1    0    0    0  501 -0.00000000000E+00  0.00000000000E+00  0.22368264219E+03  0.22368264219E+03  0.00000000000E+00 0.  1.
          1   -1    0    0  501    0  0.00000000000E+00 -0.00000000000E+00 -0.77490141587E+02  0.77490141587E+02  0.00000000000E+00 0. -1.
         23    2    1    2    0    0  0.67653962582E+02 -0.23047692402E+02  0.10924769542E+03  0.18080669207E+03  0.12509095157E+03 0.  0.
         23    2    1    2    0    0 -0.67653962582E+02  0.23047692402E+02  0.36944805186E+02  0.12036609171E+03  0.89525541742E+02 0.  0.
          5    1    3    3  502    0  0.45286997574E+02 -0.42319780818E+01  0.13444407126E+03  0.14199120566E+03  0.41800000000E+01 0. -1.
         -5    1    3    3    0  502  0.22366965008E+02 -0.18815714320E+02 -0.25196375849E+02  0.38815486406E+02  0.41800000000E+01 0. -1.
        -11    1    4    4    0    0 -0.38960902992E+02  0.30267073507E+02 -0.22301703781E+02  0.54142531269E+02  0.00000000000E+00 0.  1.
         11    1    4    4    0    0 -0.28693059590E+02 -0.72193811047E+01  0.59246508968E+02  0.66223560437E+02  0.00000000000E+00 0. -1.
</event>
<event>
 8    1  0.5951278E-006  0.1048233E+03  0.7561462E-02  0.1270468E+00
          1   -1    0    0  501    0  0.00000000000E+00  0.00000000000E+00  0.25118101777E+03  0.25118101777E+03  0.00000000000E+00 0. -1.
         -1   -1    0    0    0  501 -0.00000000000E+00 -0.00000000000E+00 -0.50782715429E+02  0.50782715429E+02  0.00000000000E+00 0.  1.
         23    2    1    2    0    0 -0.32977526600E+02  0.18702255195E+02  0.11671212232E+03  0.17523530043E+03  0.12509356263E+03 0.  0.
         23    2    1    2    0    0  0.32977526600E+02 -0.18702255195E+02  0.83686180024E+02  0.12672843277E+03  0.87289331163E+02 0.  0.
          5    1    3    3  502    0 -0.31341771990E+02  0.70712805875E+02  0.80406277548E+02  0.11164788155E+03  0.41800000000E+01 0.  1.
         -5    1    3    3    0  502 -0.16357546101E+01 -0.52010550680E+02  0.36305844770E+02  0.63587418879E+02  0.41800000000E+01 0.  1.
        -11    1    4    4    0    0 -0.80352074417E+01 -0.34955087003E+02  0.73002459275E+02  0.81337455863E+02  0.00000000000E+00 0. -1.
         11    1    4    4    0    0  0.41012734042E+02  0.16252831808E+02  0.10683720749E+02  0.45390976905E+02  0.00000000000E+00 0.  1.
</event>
<event>
 8    1  0.5951278E-006  0.1244814E+03  0.7561462E-02  0.1235882E+00
          1   -1    0    0  501    0  0.00000000000E+00  0.00000000000E+00  0.52725281134E+03  0.52725281134E+03  0.00000000000E+00 0. -1.
         -1   -1    0    0    0  501 -0.00000000000E+00 -0.00000000000E+00 -0.53760203734E+02  0.53760203734E+02  0.00000000000E+00 0.  1.
         23    2    1    2    0    0 -0.59873270762E+02  0.82908215027E+02  0.11804504826E+03  0.20010238015E+03  0.12509096072E+03 0.  0.
         23    2    1    2    0    0  0.59873270762E+02 -0.82908215027E+02  0.35544755934E+03  0.38091063492E+03  0.91056925507E+02 0.  0.
          5    1    3    3  502    0 -0.45046603759E+02  0.18170448044E+02 -0.15281341289E+02  0.51091618530E+02  0.41800000000E+01 0.  1.
         -5    1    3    3    0  502 -0.14826667002E+02  0.64737766984E+02  0.13332638955E+03  0.14901076162E+03  0.41800000000E+01 0.  1.
        -11    1    4    4    0    0  0.23714072148E+02 -0.93119255531E+02  0.28924494213E+03  0.30478876212E+03  0.00000000000E+00 0. -1.
         11    1    4    4    0    0  0.36159198614E+02  0.10211040504E+02  0.66202617214E+02  0.76121872799E+02  0.00000000000E+00 0.  1.
</event>
<event>
 8    1  0.5951278E-006  0.8284973E+02  0.7561462E-02  0.1321153E+00
         -1   -1    0    0    0  501 -0.00000000000E+00  0.00000000000E+00  0.15829532042E+03  0.15829532042E+03  0.00000000000E+00 0.  1.
          1   -1    0    0  501    0  0.00000000000E+00 -0.00000000000E+00 -0.93040544039E+02  0.93040544039E+02  0.00000000000E+00 0. -1.
         23    2    1    2    0    0  0.20199155882E+02  0.32811481724E+02  0.66633379082E+02  0.14687389799E+03  0.12508930998E+03 0.  0.
         23    2    1    2    0    0 -0.20199155882E+02 -0.32811481724E+02 -0.13786026961E+01  0.10446196648E+03  0.97086573033E+02 0.  0.
          5    1    3    3  502    0 -0.12130616036E+00 -0.13624706236E+02 -0.32482020805E+02  0.35471134895E+02  0.41800000000E+01 0.  1.
         -5    1    3    3    0  502  0.20320462042E+02  0.46436187960E+02  0.99115399887E+02  0.11140276309E+03  0.41800000000E+01 0.  1.
        -11    1    4    4    0    0 -0.53423403391E+02  0.65848691644E+00 -0.14780803157E+02  0.55434337525E+02  0.00000000000E+00 0.  1.
         11    1    4    4    0    0  0.33224247509E+02 -0.33469968641E+02  0.13402200461E+02  0.49027628951E+02  0.00000000000E+00 0. -1.
</event>
<event>
 8    1  0.5951278E-006  0.1581249E+03  0.7561462E-02  0.1190830E+00
          2   -1    0    0  501    0  0.00000000000E+00  0.00000000000E+00  0.82807461483E+02  0.82807461483E+02  0.00000000000E+00 0. -1.
         -2   -1    0    0    0  501 -0.00000000000E+00 -0.00000000000E+00 -0.32387030788E+03  0.32387030788E+03  0.00000000000E+00 0.  1.
         23    2    1    2    0    0 -0.69387352747E+02  0.10036412951E+03 -0.14138809222E+03  0.22478493491E+03  0.12510040418E+03 0.  0.
         23    2    1    2    0    0  0.69387352747E+02 -0.10036412951E+03 -0.99674754184E+02  0.18189283446E+03  0.90897653396E+02 0.  0.
          5    1    3    3  502    0  0.28749277982E+02 -0.34537526185E+01 -0.39984641573E+02  0.49544862028E+02  0.41800000000E+01 0.  1.
         -5    1    3    3    0  502 -0.98136630729E+02  0.10381788213E+03 -0.10140345064E+03  0.17524007288E+03  0.41800000000E+01 0.  1.
        -11    1    4    4    0    0  0.17496798501E+02 -0.89322973054E+02 -0.89928911847E+02  0.12795288453E+03  0.00000000000E+00 0.  1.
         11    1    4    4    0    0  0.51890554246E+02 -0.11041156453E+02 -0.97458423375E+01  0.53939949932E+02  0.00000000000E+00 0. -1.
</event>
<event>
 8    1  0.5951278E-006  0.1209288E+03  0.7561462E-02  0.1241573E+00
          1   -1    0    0  501    0  0.00000000000E+00  0.00000000000E+00  0.10674625736E+04  0.10674625736E+04  0.00000000000E+00 0. -1.
         -1   -1    0    0    0  501 -0.00000000000E+00 -0.00000000000E+00 -0.19047782606E+02  0.19047782606E+02  0.00000000000E+00 0.  1.
         23    2    1    2    0    0 -0.13283655898E+01  0.84741680172E+02  0.42994565441E+03  0.45572466172E+03  0.12509510238E+03 0.  0.
         23    2    1    2    0    0  0.13283655898E+01 -0.84741680172E+02  0.61846913662E+03  0.63078569453E+03  0.90573740940E+02 0.  0.
          5    1    3    3  502    0  0.39805622844E+02  0.48507593090E+02  0.36613933452E+03  0.37150095408E+03  0.41800000000E+01 0. -1.
         -5    1    3    3    0  502 -0.41133988434E+02  0.36234087083E+02  0.63806319886E+02  0.84223707640E+02  0.41800000000E+01 0. -1.
        -11    1    4    4    0    0 -0.44087505703E+02 -0.32510488454E+02  0.28210157091E+03  0.28737072977E+03  0.00000000000E+00 0. -1.
         11    1    4    4    0    0  0.45415871293E+02 -0.52231191718E+02  0.33636756572E+03  0.34341496476E+03  0.00000000000E+00 0.  1.
</event>
<event>
 8    1  0.5951278E-006  0.1641540E+03  0.7561462E-02  0.1184085E+00
          1   -1    0    0  501    0  0.00000000000E+00  0.00000000000E+00  0.50752236104E+03  0.50752236104E+03  0.00000000000E+00 0. -1.
         -1   -1    0    0    0  501 -0.00000000000E+00 -0.00000000000E+00 -0.62958140247E+02  0.62958140247E+02  0.00000000000E+00 0.  1.
         23    2    1    2    0    0 -0.12363655301E+03 -0.59232377539E+02  0.29374774562E+03  0.34744261379E+03  0.12503663475E+03 0.  0.
         23    2    1    2    0    0  0.12363655301E+03  0.59232377539E+02  0.15081647517E+03  0.22303788749E+03  0.90585971785E+02 0.  0.
          5    1    3    3  502    0 -0.52429339366E+02  0.21003006479E+02  0.33211192408E+02  0.65653770712E+02  0.41800000000E+01 0. -1.
         -5    1    3    3    0  502 -0.71207213648E+02 -0.80235384017E+02  0.26053655322E+03  0.28178884308E+03  0.41800000000E+01 0. -1.
        -11    1    4    4    0    0  0.37431482016E+02 -0.24018244017E+02  0.41251746910E+02  0.60660518583E+02  0.00000000000E+00 0.  1.
         11    1    4    4    0    0  0.86205070998E+02  0.83250621556E+02  0.10956472826E+03  0.16237736891E+03  0.00000000000E+00 0. -1.
</event>
<event>
 8    1  0.5951278E-006  0.6991986E+02  0.7561462E-02  0.1360366E+00
          1   -1    0    0  501    0  0.00000000000E+00  0.00000000000E+00  0.41262014671E+02  0.41262014671E+02  0.00000000000E+00 0. -1.
         -1   -1    0    0    0  501 -0.00000000000E+00 -0.00000000000E+00 -0.32963583901E+03  0.32963583901E+03  0.00000000000E+00 0.  1.
         23    2    1    2    0    0 -0.18246609335E+02 -0.21813474411E+01 -0.23989835502E+03  0.27117596538E+03  0.12508991338E+03 0.  0.
         23    2    1    2    0    0  0.18246609335E+02  0.21813474411E+01 -0.48475469321E+02  0.99721888306E+02  0.85187363221E+02 0.  0.
          5    1    3    3  502    0 -0.56509603692E+02  0.95965811792E+01 -0.47347175893E+02  0.74462454598E+02  0.41800000000E+01 0.  1.
         -5    1    3    3    0  502  0.38262994358E+02 -0.11777928620E+02 -0.19255117913E+03  0.19671351078E+03  0.41800000000E+01 0.  1.
        -11    1    4    4    0    0  0.29676455925E+02  0.55705905703E+01 -0.69374987726E+02  0.75661168624E+02  0.00000000000E+00 0.  1.
         11    1    4    4    0    0 -0.11429846591E+02 -0.33892431292E+01  0.20899518405E+02  0.24060719682E+02  0.00000000000E+00 0. -1.
</event>
<event>
 8    1  0.5951278E-006  0.1236598E+03  0.7561462E-02  0.1237179E+00
         -1   -1    0    0    0  501 -0.00000000000E+00  0.00000000000E+00  0.12933008405E+02  0.12933008405E+02  0.00000000000E+00 0.  1.
          1   -1    0    0  501    0  0.00000000000E+00 -0.00000000000E+00 -0.14009908374E+04  0.14009908374E+04  0.00000000000E+00 0. -1.
         23    2    1    2    0    0 -0.72765705983E+02 -0.30374699192E+02 -0.79251620058E+03  0.80619273090E+03  0.12508925152E+03 0.  0.
         23    2    1    2    0    0  0.72765705983E+02  0.30374699192E+02 -0.59554162841E+03  0.60773111490E+03  0.91922829249E+02 0.  0.
          5    1    3    3  502    0 -0.58193895324E+02  0.33557802590E+02 -0.22403267058E+03  0.23392470040E+03  0.41800000000E+01 0.  1.
         -5    1    3    3    0  502 -0.14571810659E+02 -0.63932501783E+02 -0.56848353000E+03  0.57226803050E+03  0.41800000000E+01 0.  1.
        -11    1    4    4    0    0  0.89918490247E+02  0.35084216643E+02 -0.55676373252E+03  0.56506821800E+03  0.00000000000E+00 0.  1.
         11    1    4    4    0    0 -0.17152784263E+02 -0.47095174504E+01 -0.38777895887E+02  0.42662896901E+02  0.00000000000E+00 0. -1.
</event>
<event>
 8    1  0.5951278E-006  0.1550420E+03  0.7561462E-02  0.1194411E+00
          1   -1    0    0  501    0  0.00000000000E+00  0.00000000000E+00  0.10132379281E+03  0.10132379281E+03  0.00000000000E+00 0. -1.
         -1   -1    0    0    0  501 -0.00000000000E+00 -0.00000000000E+00 -0.29588276048E+03  0.29588276048E+03  0.00000000000E+00 0.  1.
         23    2    1    2    0    0  0.82565421768E+02 -0.10080405898E+03 -0.95923835209E+02  0.20451185569E+03  0.12508081299E+03 0.  0.
         23    2    1    2    0    0 -0.82565421768E+02  0.10080405898E+03 -0.98635132464E+02  0.19269469760E+03  0.10209725731E+03 0.  0.
          5    1    3    3  502    0  0.56196420228E+02  0.10376749894E+02 -0.63779428494E+02  0.85737987403E+02  0.41800000000E+01 0. -1.
         -5    1    3    3    0  502  0.26369001539E+02 -0.11118080888E+03 -0.32144406715E+02  0.11877386829E+03  0.41800000000E+01 0. -1.
        -11    1    4    4    0    0 -0.44044484556E+02  0.18890997629E+02 -0.89746250504E+02  0.10174072877E+03  0.00000000000E+00 0.  1.
         11    1    4    4    0    0 -0.38520937211E+02  0.81913061354E+02 -0.88888819595E+01  0.90953968833E+02  0.00000000000E+00 0. -1.
</event>
<event>
 8    1  0.5951278E-006  0.8978164E+02  0.7561462E-02  0.1303381E+00
          1   -1    0    0  501    0  0.00000000000E+00  0.00000000000E+00  0.81283975533E+02  0.81283975533E+02  0.00000000000E+00 0.  1.
         -1   -1    0    0    0  501 -0.00000000000E+00 -0.00000000000E+00 -0.18048427210E+03  0.18048427210E+03  0.00000000000E+00 0. -1.
         23    2    1    2    0    0  0.20235136625E+02 -0.44443725566E+02 -0.62923929788E+02  0.14829534031E+03  0.12508949404E+03 0.  0.
         23    2    1    2    0    0 -0.20235136625E+02  0.44443725566E+02 -0.36276366775E+02  0.11347290732E+03  0.95788414819E+02 0.  0.
          5    1    3    3  502    0  0.28497674830E+02  0.69357973196E+01 -0.86189230422E+02  0.91138787549E+02  0.41800000000E+01 0.  1.
         -5    1    3    3    0  502 -0.82625382045E+01 -0.51379522885E+02  0.23265300634E+02  0.57156552757E+02  0.41800000000E+01 0.  1.
        -11    1    4    4    0    0 -0.24377395608E+02  0.68817122497E+02 -0.46674924326E+02  0.86652191699E+02  0.00000000000E+00 0. -1.
         11    1    4    4    0    0  0.41422589827E+01 -0.24373396932E+02  0.10398557550E+02  0.26820715624E+02  0.00000000000E+00 0.  1.
</event>
<event>
 8    1  0.5951278E-006  0.1160670E+03  0.7561462E-02  0.1249730E+00
          2   -1    0    0  501    0  0.00000000000E+00  0.00000000000E+00  0.22797742602E+03  0.22797742602E+03  0.00000000000E+00 0. -1.
         -2   -1    0    0    0  501 -0.00000000000E+00 -0.00000000000E+00 -0.11199607256E+03  0.11199607256E+03  0.00000000000E+00 0.  1.
         23    2    1    2    0    0 -0.72093352995E+02  0.11129424792E+01 -0.36085632478E+02  0.14882862102E+03  0.12509634438E+03 0.  0.
         23    2    1    2    0    0  0.72093352995E+02 -0.11129424792E+01  0.15206698593E+03  0.19114487756E+03  0.90627290708E+02 0.  0.
          5    1    3    3  502    0 -0.51912056107E+02  0.44503940380E+02 -0.63594308684E+02  0.93472834426E+02  0.41800000000E+01 0.  1.
         -5    1    3    3    0  502 -0.20181296888E+02 -0.43390997901E+02  0.27508676207E+02  0.55355786595E+02  0.41800000000E+01 0.  1.
        -11    1    4    4    0    0  0.60591665193E+02 -0.41603544278E+02  0.90973049451E+02  0.11695426676E+03  0.00000000000E+00 0.  1.
         11    1    4    4    0    0  0.11501687802E+02  0.40490601799E+02  0.61093936481E+02  0.74190610801E+02  0.00000000000E+00 0. -1.
</event>
<event>
 8    1  0.5951278E-006  0.1255923E+03  0.7561462E-02  0.1234147E+00
         -2   -1    0    0    0  501 -0.00000000000E+00  0.00000000000E+00  0.43772787567E+03  0.43772787567E+03  0.00000000000E+00 0. -1.
          2   -1    0    0  501    0  0.00000000000E+00 -0.00000000000E+00 -0.59444082639E+02  0.59444082639E+02  0.00000000000E+00 0.  1.
         23    2    1    2    0    0  0.43642882442E+02 -0.67758781561E+02  0.34067967416E+03  0.37176147636E+03  0.12509197120E+03 0.  0.
         23    2    1    2    0    0 -0.43642882442E+02  0.67758781561E+02  0.37604118880E+02  0.12541048195E+03  0.88418129136E+02 0.  0.
          5    1    3    3  502    0  0.31454569423E+02  0.33167080660E+02  0.12840668414E+03  0.13636419658E+03  0.41800000000E+01 0. -1.
         -5    1    3    3    0  502  0.12188313019E+02 -0.10092586222E+03  0.21227299001E+03  0.23539727978E+03  0.41800000000E+01 0. -1.
        -11    1    4    4    0    0 -0.44937625061E+02  0.79716782854E+02  0.61289451307E+01  0.91715427181E+02  0.00000000000E+00 0.  1.
         11    1    4    4    0    0  0.12947426189E+01 -0.11958001293E+02  0.31475173749E+02  0.33695054770E+02  0.00000000000E+00 0. -1.
</event>
<event>
 8    1  0.5951278E-006  0.9272918E+02  0.7561462E-02  0.1296374E+00
          1   -1    0    0  501    0  0.00000000000E+00  0.00000000000E+00  0.32216004949E+03  0.32216004949E+03  0.00000000000E+00 0. -1.
         -1   -1    0    0    0  501 -0.00000000000E+00 -0.00000000000E+00 -0.46968836539E+02  0.46968836539E+02  0.00000000000E+00 0.  1.
         23    2    1    2    0    0 -0.53704517951E+02  0.61397706431E+01  0.12272346172E+03  0.18338314378E+03  0.12508579989E+03 0.  0.
         23    2    1    2    0    0  0.53704517951E+02 -0.61397706431E+01  0.15246775123E+03  0.18574574225E+03  0.91286327382E+02 0.  0.
          5    1    3    3  502    0 -0.85964549498E+01  0.29689362025E+02 -0.16362849889E+02  0.35221761904E+02  0.41800000000E+01 0.  1.
         -5    1    3    3    0  502 -0.45108063001E+02 -0.23549591382E+02  0.13908631161E+03  0.14816138187E+03  0.41800000000E+01 0.  1.
        -11    1    4    4    0    0 -0.14145858679E+02  0.24869231092E+02  0.24719922702E+02  0.37810825847E+02  0.00000000000E+00 0. -1.
         11    1    4    4    0    0  0.67850376629E+02 -0.31009001735E+02  0.12774782853E+03  0.14793491641E+03  0.00000000000E+00 0.  1.
</event>
<event>
 8    1  0.5951278E-006  0.1170646E+03  0.7561462E-02  0.1248020E+00
          2   -1    0    0  501    0  0.00000000000E+00  0.00000000000E+00  0.39725941152E+02  0.39725941152E+02  0.00000000000E+00 0. -1.
         -2   -1    0    0    0  501 -0.00000000000E+00 -0.00000000000E+00 -0.41736740957E+03  0.41736740957E+03  0.00000000000E+00 0.  1.
         23    2    1    2    0    0 -0.75352728625E+01  0.68829701697E+02 -0.22570009432E+03  0.26717435691E+03  0.12508915317E+03 0.  0.
         23    2    1    2    0    0  0.75352728625E+01 -0.68829701697E+02 -0.15194137409E+03  0.18991899381E+03  0.90491628759E+02 0.  0.
          5    1    3    3  502    0 -0.44655798770E+02  0.86978679517E+02 -0.18350949017E+03  0.20797268195E+03  0.41800000000E+01 0.  1.
         -5    1    3    3    0  502  0.37120525908E+02 -0.18148977820E+02 -0.42190604153E+02  0.59201674962E+02  0.41800000000E+01 0.  1.
        -11    1    4    4    0    0  0.32453741672E+02 -0.60156117807E+02 -0.50183681872E+02  0.84796260438E+02  0.00000000000E+00 0. -1.
         11    1    4    4    0    0 -0.24918468809E+02 -0.86735838905E+01 -0.10175769222E+03  0.10512273337E+03  0.00000000000E+00 0.  1.
</event>
<event>
 7    1  0.5951278E-006  0.1304168E+03  0.7561462E-02  0.1226839E+00
         -3   -1    0    0    0  501 -0.00000000000E+00  0.00000000000E+00  0.83531415035E+03  0.83531415035E+03  0.00000000000E+00 0.  1.
          3   -1    0    0  501    0  0.00000000000E+00 -0.00000000000E+00 -0.28303954463E+02  0.28303954463E+02  0.00000000000E+00 0. -1.
         23    2    1    2    0    0  0.38798217665E+02 -0.61172867967E+02  0.16381185374E+03  0.20074713192E+03  0.90651343504E+02 0.  0.
          5    1    1    2  502    0 -0.68249869110E+02  0.83285730422E+02  0.32225790462E+03  0.33979727341E+03  0.41800000000E+01 0. -1.
         -5    1    1    2    0  502  0.29451651445E+02 -0.22112862455E+02  0.32094043753E+03  0.32307369948E+03  0.41800000000E+01 0.  1.
        -11    1    3    3    0    0  0.68037986723E+02 -0.33863386045E+02  0.10512570758E+03  0.12972012544E+03  0.00000000000E+00 0. -1.
         11    1    3    3    0    0 -0.29239769058E+02 -0.27309481922E+02  0.58686146160E+02  0.71027006473E+02  0.00000000000E+00 0.  1.
</event>
<event>
 8    1  0.5951278E-006  0.8003670E+02  0.7561462E-02  0.1328947E+00
         -1   -1    0    0    0  501 -0.00000000000E+00  0.00000000000E+00  0.37735859934E+02  0.37735859934E+02  0.00000000000E+00 0.  1.
          1   -1    0    0  501    0  0.00000000000E+00 -0.00000000000E+00 -0.32909995042E+03  0.32909995042E+03  0.00000000000E+00 0. -1.
         23    2    1    2    0    0 -0.22813505281E+02  0.35875827363E+02 -0.13361348339E+03  0.18790128380E+03  0.12508716359E+03 0.  0.
         23    2    1    2    0    0  0.22813505281E+02 -0.35875827363E+02 -0.15775060709E+03  0.17893452656E+03  0.72971088409E+02 0.  0.
          5    1    3    3  502    0  0.26425839949E+02  0.51707465295E+02 -0.12133255943E+03  0.13457729884E+03  0.41800000000E+01 0. -1.
         -5    1    3    3    0  502 -0.49239345231E+02 -0.15831637932E+02 -0.12280923957E+02  0.53323984956E+02  0.41800000000E+01 0. -1.
        -11    1    4    4    0    0 -0.36597095406E+01 -0.17152545605E+02  0.35098000209E+00  0.17542134466E+02  0.00000000000E+00 0.  1.
         11    1    4    4    0    0  0.26473214822E+02 -0.18723281758E+02 -0.15810158710E+03  0.16139239209E+03  0.00000000000E+00 0. -1.
</event>
<event>
 8    1  0.5951278E-006  0.1057424E+03  0.7561462E-02  0.1268664E+00
         -1   -1    0    0    0  501 -0.00000000000E+00  0.00000000000E+00  0.11734121711E+03  0.11734121711E+03  0.00000000000E+00 0.  1.
          1   -1    0    0  501    0  0.00000000000E+00 -0.00000000000E+00 -0.18372248135E+03  0.18372248135E+03  0.00000000000E+00 0. -1.
         23    2    1    2    0    0 -0.23383185395E+02 -0.86103570097E+02  0.78438014801E+01  0.15385024173E+03  0.12509106089E+03 0.  0.
         23    2    1    2    0    0  0.23383185395E+02  0.86103570097E+02 -0.74225065721E+02  0.14721345673E+03  0.90564028828E+02 0.  0.
          5    1    3    3  502    0 -0.26278219623E+01 -0.44721004997E+00  0.54031325652E+02  0.54258289660E+02  0.41800000000E+01 0.  1.
         -5    1    3    3    0  502 -0.20755363433E+02 -0.85656360047E+02 -0.46187524172E+02  0.99591952069E+02  0.41800000000E+01 0.  1.
        -11    1    4    4    0    0  0.51031938211E+02  0.41323147423E+02 -0.67477196241E+02  0.94154305494E+02  0.00000000000E+00 0. -1.
         11    1    4    4    0    0 -0.27648752816E+02  0.44780422674E+02 -0.67478694802E+01  0.53059151233E+02  0.00000000000E+00 0.  1.
</event>
<event>
 7    1  0.5951278E-006  0.2247827E+03  0.7561462E-02  0.1130367E+00
          1   -1    0    0  501    0  0.00000000000E+00  0.00000000000E+00  0.28481560497E+03  0.28481560497E+03  0.00000000000E+00 0. -1.
         -1   -1    0    0    0  501 -0.00000000000E+00 -0.00000000000E+00 -0.21652773267E+03  0.21652773267E+03  0.00000000000E+00 0.  1.
         23    2    1    2    0    0  0.85622769267E+02 -0.16961581211E+03  0.10728552572E+03  0.23800759215E+03  0.95061283166E+02 0.  0.
          5    1    1    2  502    0  0.46071297314E+01 -0.24644470316E+02 -0.41987388845E+02  0.49081450504E+02  0.41800000000E+01 0. -1.
         -5    1    1    2    0  502 -0.90229898998E+02  0.19426028243E+03  0.29897354260E+01  0.21425429498E+03  0.41800000000E+01 0.  1.
        -11    1    3    3    0    0 -0.15897470567E+02 -0.52828675726E+01  0.19860041333E+02  0.25981907204E+02  0.00000000000E+00 0.  1.
         11    1    3    3    0    0  0.10152023983E+03 -0.16433294454E+03  0.87425484388E+02  0.21202568495E+03  0.00000000000E+00 0. -1.
</event>
<event>
 8    1  0.5951278E-006  0.6597791E+02  0.7561462E-02  0.1374330E+00
         -1   -1    0    0    0  501 -0.00000000000E+00  0.00000000000E+00  0.29049553526E+03  0.29049553526E+03  0.00000000000E+00 0.  1.
          1   -1    0    0  501    0  0.00000000000E+00 -0.00000000000E+00 -0.81845651366E+02  0.81845651366E+02  0.00000000000E+00 0. -1.
         23    2    1    2    0    0 -0.12654150949E+02 -0.49553703117E+02  0.23393572955E+03  0.27016571441E+03  0.12509152910E+03 0.  0.
         23    2    1    2    0    0  0.12654150949E+02  0.49553703117E+02 -0.25285845655E+02  0.10217547222E+03  0.84762940629E+02 0.  0.
          5    1    3    3  502    0  0.38923738808E+01 -0.57850042489E+02  0.30124811847E+02  0.65473312726E+02  0.41800000000E+01 0. -1.
         -5    1    3    3    0  502 -0.16546524830E+02  0.82963393722E+01  0.20381091770E+03  0.20469240168E+03  0.41800000000E+01 0. -1.
        -11    1    4    4    0    0  0.99605479720E+01  0.69168555177E+01  0.29969858472E+02  0.32330292653E+02  0.00000000000E+00 0.  1.
         11    1    4    4    0    0  0.26936029771E+01  0.42636847600E+02 -0.55255704128E+02  0.69845179568E+02  0.00000000000E+00 0. -1.
</event>
<event>
 8    1  0.5951278E-006  0.1084830E+03  0.7561462E-02  0.1263405E+00
          3   -1    0    0  501    0  0.00000000000E+00  0.00000000000E+00  0.33871448249E+03  0.33871448249E+03  0.00000000000E+00 0. -1.
         -3   -1    0    0    0  501 -0.00000000000E+00 -0.00000000000E+00 -0.57899319397E+02  0.57899319397E+02  0.00000000000E+00 0.  1.
         23    2    1    2    0    0  0.48539430076E+02  0.25397232723E+02  0.56635290933E+02  0.14783942057E+03  0.12509133621E+03 0.  0.
         23    2    1    2    0    0 -0.48539430076E+02 -0.25397232723E+02  0.22417987216E+03  0.24877438132E+03  0.92903078603E+02 0.  0.
          5    1    3    3  502    0  0.48939336938E+02  0.72954691888E+02  0.28639151735E+02  0.92493887261E+02  0.41800000000E+01 0. -1.
         -5    1    3    3    0  502 -0.39990686282E+00 -0.47557459165E+02  0.27996139198E+02  0.55345533313E+02  0.41800000000E+01 0. -1.
        -11    1    4    4    0    0  0.20987472324E+00 -0.32070436366E+02  0.17940031885E+03  0.18224442746E+03  0.00000000000E+00 0. -1.
         11    1    4    4    0    0 -0.48749304799E+02  0.66732036435E+01  0.44779553311E+02  0.66529953855E+02  0.00000000000E+00 0.  1.
</event>
<event>
 7    1  0.5951278E-006  0.1115310E+03  0.7561462E-02  0.1257761E+00
          2   -1    0    0  501    0  0.00000000000E+00  0.00000000000E+00  0.71553125333E+03  0.71553125333E+03  0.00000000000E+00 0. -1.
         -2   -1    0    0    0  501 -0.00000000000E+00 -0.00000000000E+00 -0.30865572158E+02  0.30865572158E+02  0.00000000000E+00 0.  1.
         23    2    1    2    0    0 -0.52368041560E+02  0.36755129223E+02  0.25477601447E+03  0.29094967637E+03  0.12509014881E+03 0.  0.
          5    1    3    3  502    0 -0.49704625626E+02  0.45496292499E+02  0.26684046566E+03  0.27524855850E+03  0.41800000000E+01 0.  1.
         -5    1    3    3    0  502 -0.26634159341E+01 -0.87411632764E+01 -0.12064451193E+02  0.15701117873E+02  0.41800000000E+01 0.  1.
        -11    1    1    2    0    0  0.96574050221E+02 -0.25571210048E+02  0.23612268761E+03  0.25638712441E+03  0.00000000000E+00 0.  1.
         11    1    1    2    0    0 -0.44206008661E+02 -0.11183919175E+02  0.19376697909E+03  0.19906002470E+03  0.00000000000E+00 0. -1.
</event>
<event>
 8    1  0.5951278E-006  0.1016433E+03  0.7561462E-02  0.1276878E+00
          3   -1    0    0  501    0  0.00000000000E+00  0.00000000000E+00  0.90162406404E+02  0.90162406404E+02  0.00000000000E+00 0. -1.
         -3   -1    0    0    0  501 -0.00000000000E+00 -0.00000000000E+00 -0.16641601127E+03  0.16641601127E+03  0.00000000000E+00 0.  1.
         23    2    1    2    0    0 -0.40759275074E+02 -0.38874262515E+02 -0.62049675877E+02  0.15032336067E+03  0.12479753081E+03 0.  0.
         23    2    1    2    0    0  0.40759275074E+02  0.38874262515E+02 -0.14203928989E+02  0.10625505700E+03  0.88971111879E+02 0.  0.
          5    1    3    3  502    0  0.42414147947E+02 -0.25829787729E+01 -0.35920693457E+02  0.55797852503E+02  0.41800000000E+01 0. -1.
         -5    1    3    3    0  502 -0.83173423021E+02 -0.36291283743E+02 -0.26128982420E+02  0.94525508171E+02  0.41800000000E+01 0. -1.
        -11    1    4    4    0    0  0.17573298777E+02  0.42766159906E+02  0.30747744906E+02  0.55526471883E+02  0.00000000000E+00 0. -1.
         11    1    4    4    0    0  0.23185976297E+02 -0.38918973906E+01 -0.44951673895E+02  0.50728585118E+02  0.00000000000E+00 0.  1.
</event>
<event>
 8    1  0.5951278E-006  0.1306605E+03  0.7561462E-02  0.1226479E+00
         -1   -1    0    0    0  501 -0.00000000000E+00  0.00000000000E+00  0.53010098723E+03  0.53010098723E+03  0.00000000000E+00 0.  1.
          1   -1    0    0  501    0  0.00000000000E+00 -0.00000000000E+00 -0.33639919770E+02  0.33639919770E+02  0.00000000000E+00 0. -1.
         23    2    1    2    0    0  0.46299807905E+02  0.59012234548E+02  0.31807794202E+03  0.34992521404E+03  0.12509181502E+03 0.  0.
         23    2    1    2    0    0 -0.46299807905E+02 -0.59012234548E+02  0.17838312544E+03  0.21381569296E+03  0.90942262315E+02 0.  0.
          5    1    3    3  502    0  0.20207218713E+02  0.96625731790E+02  0.19638036106E+03  0.21983535281E+03  0.41800000000E+01 0. -1.
         -5    1    3    3    0  502  0.26092589193E+02 -0.37613497242E+02  0.12169758095E+03  0.13008986123E+03  0.41800000000E+01 0. -1.
        -11    1    4    4    0    0  0.83128709651E+01  0.19334460102E+02  0.21054637532E+02  0.29769496683E+02  0.00000000000E+00 0. -1.
         11    1    4    4    0    0 -0.54612678871E+02 -0.78346694650E+02  0.15732848791E+03  0.18404619628E+03  0.00000000000E+00 0.  1.
</event>
<event>
 8    1  0.5951278E-006  0.1080304E+03  0.7561462E-02  0.1264261E+00
         -2   -1    0    0    0  501 -0.00000000000E+00  0.00000000000E+00  0.51542955996E+03  0.51542955996E+03  0.00000000000E+00 0.  1.
          2   -1    0    0  501    0  0.00000000000E+00 -0.00000000000E+00 -0.30792215634E+02  0.30792215634E+02  0.00000000000E+00 0. -1.
         23    2    1    2    0    0  0.55534520558E+02 -0.23158014322E+02  0.26986713753E+03  0.30347575309E+03  0.12509550028E+03 0.  0.
         23    2    1    2    0    0 -0.55534520558E+02  0.23158014322E+02  0.21477020679E+03  0.24274602251E+03  0.95807166304E+02 0.  0.
          5    1    3    3  502    0  0.45378425172E+02  0.47870885603E+02  0.11262030343E+03  0.13058188352E+03  0.41800000000E+01 0. -1.
         -5    1    3    3    0  502  0.10156095386E+02 -0.71028899926E+02  0.15724683410E+03  0.17289386957E+03  0.41800000000E+01 0. -1.
        -11    1    4    4    0    0 -0.18786584419E+02  0.34799764078E+02  0.20225013852E+02  0.44418583041E+02  0.00000000000E+00 0. -1.
         11    1    4    4    0    0 -0.36747936138E+02 -0.11641749756E+02  0.19454519294E+03  0.19832743947E+03  0.00000000000E+00 0.  1.
</event>
<event>
 8    1  0.5951278E-006  0.1274618E+03  0.7561462E-02  0.1231271E+00
         -2   -1    0    0    0  501 -0.00000000000E+00  0.00000000000E+00  0.18604008858E+03  0.18604008858E+03  0.00000000000E+00 0.  1.
          2   -1    0    0  501    0  0.00000000000E+00 -0.00000000000E+00 -0.10708040754E+03  0.10708040754E+03  0.00000000000E+00 0. -1.
         23    2    1    2    0    0  0.57044458360E+02  0.66891742197E+02  0.36787799991E+02  0.15725225925E+03  0.12508539246E+03 0.  0.
         23    2    1    2    0    0 -0.57044458360E+02 -0.66891742197E+02  0.42171881054E+02  0.13586823687E+03  0.94621006312E+02 0.  0.
          5    1    3    3  502    0  0.14843439936E+02  0.93740178791E+02 -0.37355168605E-01  0.95000119075E+02  0.41800000000E+01 0.  1.
         -5    1    3    3    0  502  0.42201018424E+02 -0.26848436594E+02  0.36825155159E+02  0.62252140173E+02  0.41800000000E+01 0.  1.
        -11    1    4    4    0    0 -0.64531970855E+02 -0.28376958094E+02 -0.93441151992E+01  0.71112161421E+02  0.00000000000E+00 0. -1.
         11    1    4    4    0    0  0.74875124954E+01 -0.38514784103E+02  0.51515996253E+02  0.64756075451E+02  0.00000000000E+00 0.  1.
</event>
<event>
 8    1  0.5951278E-006  0.1036676E+03  0.7561462E-02  0.1272767E+00
          1   -1    0    0  501    0  0.00000000000E+00  0.00000000000E+00  0.54514514147E+03  0.54514514147E+03  0.00000000000E+00 0. -1.
         -1   -1    0    0    0  501 -0.00000000000E+00 -0.00000000000E+00 -0.21054740852E+02  0.21054740852E+02  0.00000000000E+00 0.  1.
         23    2    1    2    0    0  0.12290308633E+02  0.20938273639E+02  0.27102056078E+03  0.29947972940E+03  0.12508597431E+03 0.  0.
         23    2    1    2    0    0 -0.12290308633E+02 -0.20938273639E+02  0.25306983985E+03  0.26672015292E+03  0.80658745008E+02 0.  0.
          5    1    3    3  502    0 -0.38305618074E+02  0.54138053154E+02  0.15207243718E+03  0.16595706591E+03  0.41800000000E+01 0.  1.
         -5    1    3    3    0  502  0.50595926708E+02 -0.33199779514E+02  0.11894812360E+03  0.13352266349E+03  0.41800000000E+01 0.  1.
        -11    1    4    4    0    0  0.19409112363E+02  0.20382218393E+02  0.53314437746E+02  0.60287459239E+02  0.00000000000E+00 0.  1.
         11    1    4    4    0    0 -0.31699420997E+02 -0.41320492033E+02  0.19975540210E+03  0.20643269368E+03  0.00000000000E+00 0. -1.
</event>
<event>
 8    1  0.5951278E-006  0.1116112E+03  0.7561462E-02  0.1257615E+00
          1   -1    0    0  501    0  0.00000000000E+00  0.00000000000E+00  0.30056667712E+03  0.30056667712E+03  0.00000000000E+00 0. -1.
         -1   -1    0    0    0  501 -0.00000000000E+00 -0.00000000000E+00 -0.55921356646E+02  0.55921356646E+02  0.00000000000E+00 0.  1.
         23    2    1    2    0    0  0.13166443510E+02  0.48199007152E+02  0.67007171520E+02  0.15044555171E+03  0.12508958178E+03 0.  0.
         23    2    1    2    0    0 -0.13166443510E+02 -0.48199007152E+02  0.17763814895E+03  0.20604248205E+03  0.91660749076E+02 0.  0.
          5    1    3    3  502    0  0.60641750749E+02  0.37082045365E+02  0.71989229274E+02  0.10125424215E+03  0.41800000000E+01 0.  1.
         -5    1    3    3    0  502 -0.47475307240E+02  0.11116961787E+02 -0.49820577532E+01  0.49191309561E+02  0.41800000000E+01 0.  1.
        -11    1    4    4    0    0 -0.37881323156E+02  0.10567982489E+02  0.84142295462E+02  0.92879506801E+02  0.00000000000E+00 0.  1.
         11    1    4    4    0    0  0.24714879646E+02 -0.58766989641E+02  0.93495853487E+02  0.11316297525E+03  0.00000000000E+00 0. -1.
</event>
<event>
 8    1  0.5951278E-006  0.9233531E+02  0.7561462E-02  0.1297293E+00
          1   -1    0    0  501    0  0.00000000000E+00  0.00000000000E+00  0.50384996429E+03  0.50384996429E+03  0.00000000000E+00 0. -1.
         -1   -1    0    0    0  501 -0.00000000000E+00 -0.00000000000E+00 -0.34062183263E+02  0.34062183263E+02  0.00000000000E+00 0.  1.
         23    2    1    2    0    0  0.50534964121E+02 -0.26678252451E+02  0.16595228522E+03  0.21553027031E+03  0.12509046605E+03 0.  0.
         23    2    1    2    0    0 -0.50534964121E+02  0.26678252451E+02  0.30383549581E+03  0.32238187725E+03  0.91370424700E+02 0.  0.
          5    1    3    3  502    0  0.49399221233E+02  0.27506134743E+02  0.20558257718E+02  0.60307419671E+02  0.41800000000E+01 0.  1.
         -5    1    3    3    0  502  0.11357428879E+01 -0.54184387195E+02  0.14539402750E+03  0.15522285064E+03  0.41800000000E+01 0.  1.
        -11    1    4    4    0    0 -0.48150016266E+02  0.13407258002E+01  0.28886949700E+03  0.29285799956E+03  0.00000000000E+00 0. -1.
         11    1    4    4    0    0 -0.23849478545E+01  0.25337526651E+02  0.14965998815E+02  0.29523877685E+02  0.00000000000E+00 0.  1.
</event>
<event>
 8    1  0.5951278E-006  0.1078083E+03  0.7561462E-02  0.1264683E+00
          4   -1    0    0  501    0  0.00000000000E+00  0.00000000000E+00  0.43218509087E+02  0.43218509087E+02  0.00000000000E+00 0. -1.
         -4   -1    0    0    0  501 -0.00000000000E+00 -0.00000000000E+00 -0.43197961323E+03  0.43197961323E+03  0.00000000000E+00 0.  1.
         23    2    1    2    0    0  0.58499885444E+02 -0.11505771825E+02 -0.30938201939E+03  0.33899488735E+03  0.12508269403E+03 0.  0.
         23    2    1    2    0    0 -0.58499885444E+02  0.11505771825E+02 -0.79379084759E+02  0.13620323497E+03  0.93250537467E+02 0.  0.
          5    1    3    3  502    0 -0.22671296052E+02 -0.20204086940E+02 -0.20057292866E+03  0.20290186028E+03  0.41800000000E+01 0. -1.
         -5    1    3    3    0  502  0.81171181496E+02  0.86983151155E+01 -0.10880909073E+03  0.13609302707E+03  0.41800000000E+01 0. -1.
        -11    1    4    4    0    0 -0.17620345429E+02  0.46298758366E+02 -0.62867628336E+02  0.80039929359E+02  0.00000000000E+00 0.  1.
         11    1    4    4    0    0 -0.40879540015E+02 -0.34792986541E+02 -0.16511456423E+02  0.56163305614E+02  0.00000000000E+00 0. -1.
</event>
<event>
 8    1  0.5951278E-006  0.9951725E+02  0.7561462E-02  0.1281314E+00
         -1   -1    0    0    0  501 -0.00000000000E+00  0.00000000000E+00  0.50405763530E+03  0.50405763530E+03  0.00000000000E+00 0.  1.
          1   -1    0    0  501    0  0.00000000000E+00 -0.00000000000E+00 -0.29343286968E+02  0.29343286968E+02  0.00000000000E+00 0. -1.
         23    2    1    2    0    0  0.19725724908E+02 -0.48714904401E+02  0.26014246589E+03  0.29343815010E+03  0.12517826985E+03 0.  0.
         23    2    1    2    0    0 -0.19725724908E+02  0.48714904401E+02  0.21457188245E+03  0.23996277217E+03  0.93695214156E+02 0.  0.
          5    1    3    3  502    0 -0.27614936510E+01  0.27338554602E+02  0.77624043754E+01  0.28857403497E+02  0.41800000000E+01 0. -1.
         -5    1    3    3    0  502  0.22487218559E+02 -0.76053459003E+02  0.25238006151E+03  0.26458074661E+03  0.41800000000E+01 0.  1.
        -11    1    4    4    0    0 -0.21491324924E+02  0.68585308822E+02  0.20613039715E+03  0.21830153976E+03  0.00000000000E+00 0. -1.
         11    1    4    4    0    0  0.17656000156E+01 -0.19870404420E+02  0.84414852932E+01  0.21661232403E+02  0.00000000000E+00 0.  1.
</event>
<event>
 8    1  0.5951278E-006  0.1763628E+03  0.7561462E-02  0.1171370E+00
          3   -1    0    0  501    0  0.00000000000E+00  0.00000000000E+00  0.79061670405E+03  0.79061670405E+03  0.00000000000E+00 0. -1.
         -3   -1    0    0    0  501 -0.00000000000E+00 -0.00000000000E+00 -0.51110739195E+02  0.51110739195E+02  0.00000000000E+00 0.  1.
         23    2    1    2    0    0  0.13701970189E+03 -0.30224265971E+02  0.19077892831E+03  0.26782825257E+03  0.12508984143E+03 0.  0.
         23    2    1    2    0    0 -0.13701970189E+03  0.30224265971E+02  0.54872703654E+03  0.57389919068E+03  0.92579778914E+02 0.  0.
          5    1    3    3  502    0  0.13247950077E+03  0.22879037706E+02  0.13780938260E+03  0.19256990114E+03  0.41800000000E+01 0. -1.
         -5    1    3    3    0  502  0.45402011174E+01 -0.53103303677E+02  0.52969545709E+02  0.75258351432E+02  0.41800000000E+01 0. -1.
        -11    1    4    4    0    0 -0.10601446190E+03 -0.17896984512E+02  0.40912453920E+03  0.42301566964E+03  0.00000000000E+00 0.  1.
         11    1    4    4    0    0 -0.31005239994E+02  0.48121250483E+02  0.13960249734E+03  0.15088352103E+03  0.00000000000E+00 0. -1.
</event>
<event>
 8    1  0.5951278E-006  0.8367836E+02  0.7561462E-02  0.1318925E+00
          1   -1    0    0  501    0  0.00000000000E+00  0.00000000000E+00  0.11831982152E+04  0.11831982152E+04  0.00000000000E+00 0. -1.
         -1   -1    0    0    0  501 -0.00000000000E+00 -0.00000000000E+00 -0.12330220945E+02  0.12330220945E+02  0.00000000000E+00 0.  1.
         23    2    1    2    0    0 -0.40538328931E+02 -0.27833752407E+02  0.75198490922E+03  0.76390553423E+03  0.12510910299E+03 0.  0.
         23    2    1    2    0    0  0.40538328931E+02  0.27833752407E+02  0.41888308505E+03  0.43162290193E+03  0.91745390299E+02 0.  0.
          5    1    3    3  502    0 -0.12389607352E+02  0.12898180784E+02  0.11318271189E+02  0.21574084003E+02  0.41800000000E+01 0.  1.
         -5    1    3    3    0  502 -0.28148721580E+02 -0.40731933191E+02  0.74066663803E+03  0.74233145023E+03  0.41800000000E+01 0.  1.
        -11    1    4    4    0    0 -0.22387459438E+01  0.50732168071E+02  0.14907816241E+03  0.15748988338E+03  0.00000000000E+00 0.  1.
         11    1    4    4    0    0  0.42777074875E+02 -0.22898415664E+02  0.26980492265E+03  0.27413301855E+03  0.00000000000E+00 0. -1.
</event>
<event>
 8    1  0.5951278E-006  0.2070930E+03  0.7561462E-02  0.1143889E+00
          2   -1    0    0  501    0  0.00000000000E+00  0.00000000000E+00  0.67045956825E+03  0.67045956825E+03  0.00000000000E+00 0. -1.
         -2   -1    0    0    0  501 -0.00000000000E+00 -0.00000000000E+00 -0.67016476033E+02  0.67016476033E+02  0.00000000000E+00 0.  1.
         23    2    1    2    0    0 -0.58764839414E+02  0.16796197204E+03  0.25218022896E+03  0.33302657363E+03  0.12508917004E+03 0.  0.
         23    2    1    2    0    0  0.58764839414E+02 -0.16796197204E+03  0.35126286326E+03  0.40444947066E+03  0.92353910620E+02 0.  0.
          5    1    3    3  502    0  0.29130375514E+02  0.98242071741E+02  0.14661317210E+03  0.17892170933E+03  0.41800000000E+01 0. -1.
         -5    1    3    3    0  502 -0.87895214928E+02  0.69719900302E+02  0.10556705686E+03  0.15410486429E+03  0.41800000000E+01 0. -1.
        -11    1    4    4    0    0 -0.54594784199E+01 -0.11765660663E+03  0.18617372036E+03  0.22030328446E+03  0.00000000000E+00 0.  1.
         11    1    4    4    0    0  0.64224317834E+02 -0.50305365412E+02  0.16508914290E+03  0.18414618620E+03  0.00000000000E+00 0. -1.
</event>
<event>
 8    1  0.5951278E-006  0.1045660E+03  0.7561462E-02  0.1270977E+00
          1   -1    0    0  501    0  0.00000000000E+00  0.00000000000E+00  0.17447740479E+03  0.17447740479E+03  0.00000000000E+00 0. -1.
         -1   -1    0    0    0  501 -0.00000000000E+00 -0.00000000000E+00 -0.79140219190E+02  0.79140219190E+02  0.00000000000E+00 0.  1.
         23    2    1    2    0    0  0.40418065666E+02  0.94423296529E+01  0.42642376509E+02  0.13852662008E+03  0.12509386306E+03 0.  0.
         23    2    1    2    0    0 -0.40418065666E+02 -0.94423296529E+01  0.52694809090E+02  0.11509100389E+03  0.93522289594E+02 0.  0.
          5    1    3    3  502    0  0.14511314919E+02 -0.57733896463E+02  0.18776111905E+02  0.62560337593E+02  0.41800000000E+01 0. -1.
         -5    1    3    3    0  502  0.25906750748E+02  0.67176226116E+02  0.23866264604E+02  0.75966282492E+02  0.41800000000E+01 0. -1.
        -11    1    4    4    0    0 -0.44284403488E+02  0.19319594129E+02 -0.69003323838E+01  0.48805426918E+02  0.00000000000E+00 0.  1.
         11    1    4    4    0    0  0.38663378221E+01 -0.28761923782E+02  0.59595141473E+02  0.66285576976E+02  0.00000000000E+00 0. -1.
</event>
<event>
 8    1  0.5951278E-006  0.2452612E+03  0.7561462E-02  0.1116337E+00
         -2   -1    0    0    0  501 -0.00000000000E+00  0.00000000000E+00  0.12734406212E+03  0.12734406212E+03  0.00000000000E+00 0.  1.
          2   -1    0    0  501    0  0.00000000000E+00 -0.00000000000E+00 -0.53585471152E+03  0.53585471152E+03  0.00000000000E+00 0. -1.
         23    2    1    2    0    0 -0.22653450551E+03  0.48107757185E+02 -0.27306389849E+03  0.37926720611E+03  0.12508989762E+03 0.  0.
         23    2    1    2    0    0  0.22653450551E+03 -0.48107757185E+02 -0.13544675091E+03  0.28393156752E+03  0.92946620250E+02 0.  0.
          5    1    3    3  502    0 -0.19522441453E+03 -0.55129430073E+01 -0.17044747995E+03  0.25925427747E+03  0.41800000000E+01 0. -1.
         -5    1    3    3    0  502 -0.31310090985E+02  0.53620700192E+02 -0.10261641854E+03  0.12001292864E+03  0.41800000000E+01 0. -1.
        -11    1    4    4    0    0  0.14813854757E+03 -0.43578867392E+02 -0.13545119824E+03  0.20540490273E+03  0.00000000000E+00 0. -1.
         11    1    4    4    0    0  0.78395957937E+02 -0.45288897929E+01  0.44473329426E-02  0.78526664793E+02  0.00000000000E+00 0.  1.
</event>
<event>
 7    1  0.5951278E-006  0.1486368E+03  0.7561462E-02  0.1202158E+00
          1   -1    0    0  501    0  0.00000000000E+00  0.00000000000E+00  0.57831953460E+03  0.57831953460E+03  0.00000000000E+00 0. -1.
         -1   -1    0    0    0  501 -0.00000000000E+00 -0.00000000000E+00 -0.57261034285E+02  0.57261034285E+02  0.00000000000E+00 0.  1.
         23    2    1    2    0    0  0.24192127624E+02  0.12770107413E+02  0.19105658774E+03  0.21303986016E+03  0.90194387939E+02 0.  0.
          5    1    1    2  502    0 -0.10854913826E+02  0.12004572760E+03  0.10042008722E+03  0.15694098313E+03  0.41800000000E+01 0. -1.
         -5    1    1    2    0  502 -0.13337213797E+02 -0.13281583501E+03  0.22958182536E+03  0.26559972560E+03  0.41800000000E+01 0.  1.
        -11    1    3    3    0    0 -0.80326940716E+01  0.63939663199E+01 -0.69040116763E+01  0.12372241372E+02  0.00000000000E+00 0.  1.
         11    1    3    3    0    0  0.32224821695E+02  0.63761410936E+01  0.19796059942E+03  0.20066761879E+03  0.00000000000E+00 0. -1.
</event>
<event>
 8    1  0.5951278E-006  0.1175516E+03  0.7561462E-02  0.1247192E+00
         -2   -1    0    0    0  501 -0.00000000000E+00  0.00000000000E+00  0.34328910716E+03  0.34328910716E+03  0.00000000000E+00 0.  1.
          2   -1    0    0  501    0  0.00000000000E+00 -0.00000000000E+00 -0.56455354509E+02  0.56455354509E+02  0.00000000000E+00 0. -1.
         23    2    1    2    0    0  0.82251656241E+02 -0.37506528044E+02  0.16042007051E+03  0.22260412074E+03  0.12508365579E+03 0.  0.
         23    2    1    2    0    0 -0.82251656241E+02  0.37506528044E+02  0.12641368214E+03  0.17714034093E+03  0.85007098252E+02 0.  0.
          5    1    3    3  502    0  0.50416646108E+02  0.37053841596E+02  0.31302251669E+02  0.70086580323E+02  0.41800000000E+01 0.  1.
         -5    1    3    3    0  502  0.31835010132E+02 -0.74560369640E+02  0.12911781884E+03  0.15251754041E+03  0.41800000000E+01 0.  1.
        -11    1    4    4    0    0 -0.58242792733E+02  0.20307659571E+02  0.13324301240E+03  0.14682753249E+03  0.00000000000E+00 0.  1.
         11    1    4    4    0    0 -0.24008863508E+02  0.17198868473E+02 -0.68293302661E+01  0.30312808441E+02  0.00000000000E+00 0. -1.
</event>
<event>
 8    1  0.5951278E-006  0.1632980E+03  0.7561462E-02  0.1185023E+00
         -2   -1    0    0    0  501 -0.00000000000E+00  0.00000000000E+00  0.35846645533E+02  0.35846645533E+02  0.00000000000E+00 0.  1.
          2   -1    0    0  501    0  0.00000000000E+00 -0.00000000000E+00 -0.77170021689E+03  0.77170021689E+03  0.00000000000E+00 0. -1.
         23    2    1    2    0    0  0.33446558416E+02  0.12053090894E+03 -0.46990363757E+03  0.50209898811E+03  0.12509033926E+03 0.  0.
         23    2    1    2    0    0 -0.33446558416E+02 -0.12053090894E+03 -0.26594993379E+03  0.30544787431E+03  0.83202550207E+02 0.  0.
          5    1    3    3  502    0  0.35680937228E+01  0.14055205931E+03 -0.37758018102E+03  0.40292912301E+03  0.41800000000E+01 0. -1.
         -5    1    3    3    0  502  0.29878464694E+02 -0.20021150367E+02 -0.92323456552E+02  0.99169865101E+02  0.41800000000E+01 0. -1.
        -11    1    4    4    0    0 -0.53683944888E+02 -0.40688944723E+02 -0.13214672352E+03  0.14832502385E+03  0.00000000000E+00 0. -1.
         11    1    4    4    0    0  0.20237386472E+02 -0.79841964222E+02 -0.13380321026E+03  0.15712285047E+03  0.00000000000E+00 0.  1.
</event>
<event>
 8    1  0.5951278E-006  0.1143347E+03  0.7561462E-02  0.1252747E+00
         -1   -1    0    0    0  501 -0.00000000000E+00  0.00000000000E+00  0.63936043786E+03  0.63936043786E+03  0.00000000000E+00 0.  1.
          1   -1    0    0  501    0  0.00000000000E+00 -0.00000000000E+00 -0.25910192521E+02  0.25910192521E+02  0.00000000000E+00 0. -1.
         23    2    1    2    0    0 -0.13134900190E+02  0.45090065902E+02  0.49055501017E+03  0.50842824415E+03  0.12509764909E+03 0.  0.
         23    2    1    2    0    0  0.13134900190E+02 -0.45090065902E+02  0.12289523517E+03  0.15684238623E+03  0.85385336232E+02 0.  0.
          5    1    3    3  502    0 -0.62235163607E+02 -0.37086793364E+01  0.19147487887E+03  0.20141268960E+03  0.41800000000E+01 0. -1.
         -5    1    3    3    0  502  0.49100263417E+02  0.48798745238E+02  0.29908013129E+03  0.30701555456E+03  0.41800000000E+01 0. -1.
        -11    1    4    4    0    0 -0.80396886861E+01  0.23610931840E+02  0.24312832241E+02  0.34831401179E+02  0.00000000000E+00 0.  1.
         11    1    4    4    0    0  0.21174588876E+02 -0.68700997742E+02  0.98582402933E+02  0.12201098505E+03  0.00000000000E+00 0. -1.
</event>
<event>
 8    1  0.5951278E-006  0.2816299E+03  0.7561462E-02  0.1094802E+00
         -1   -1    0    0    0  501 -0.00000000000E+00  0.00000000000E+00  0.14938503371E+03  0.14938503371E+03  0.00000000000E+00 0.  1.
          1   -1    0    0  501    0  0.00000000000E+00 -0.00000000000E+00 -0.62443468544E+03  0.62443468544E+03  0.00000000000E+00 0. -1.
         23    2    1    2    0    0  0.11116254667E+03  0.24484462118E+03 -0.12360349937E+03  0.32130170633E+03  0.12510380143E+03 0.  0.
         23    2    1    2    0    0 -0.11116254667E+03 -0.24484462118E+03 -0.35144615236E+03  0.45251801281E+03  0.94615821148E+02 0.  0.
          5    1    3    3  502    0  0.64697944405E+02  0.26407897613E+02 -0.50358584288E+02  0.86236074110E+02  0.41800000000E+01 0. -1.
         -5    1    3    3    0  502  0.46464602261E+02  0.21843672357E+03 -0.73244915083E+02  0.23506563222E+03  0.41800000000E+01 0. -1.
        -11    1    4    4    0    0 -0.92396342939E+02 -0.17920291925E+03 -0.31791117858E+03  0.37645489494E+03  0.00000000000E+00 0.  1.
         11    1    4    4    0    0 -0.18766203728E+02 -0.65641701933E+02 -0.33534973778E+02  0.76063117878E+02  0.00000000000E+00 0. -1.
</event>
<event>
 8    1  0.5951278E-006  0.8967331E+02  0.7561462E-02  0.1303645E+00
         -1   -1    0    0    0  501 -0.00000000000E+00  0.00000000000E+00  0.28627845030E+02  0.28627845030E+02  0.00000000000E+00 0.  1.
          1   -1    0    0  501    0  0.00000000000E+00 -0.00000000000E+00 -0.72397844164E+03  0.72397844164E+03  0.00000000000E+00 0. -1.
         23    2    1    2    0    0 -0.74001592675E+02 -0.12381372986E+02 -0.22886870421E+03  0.27139645737E+03  0.12508244959E+03 0.  0.
         23    2    1    2    0    0  0.74001592675E+02  0.12381372986E+02 -0.46648189240E+03  0.48120982929E+03  0.91257929820E+02 0.  0.
          5    1    3    3  502    0 -0.28086119734E+02 -0.11272362532E+02 -0.22279456181E+03  0.22487949095E+03  0.41800000000E+01 0.  1.
         -5    1    3    3    0  502 -0.45915472941E+02 -0.11090104544E+01 -0.60741424001E+01  0.46516966426E+02  0.41800000000E+01 0.  1.
        -11    1    4    4    0    0 -0.81655340268E+01 -0.14146130123E+02 -0.17252168243E+02  0.23757656712E+02  0.00000000000E+00 0.  1.
         11    1    4    4    0    0  0.82167126702E+02  0.26527503109E+02 -0.44922972416E+03  0.45745217258E+03  0.00000000000E+00 0. -1.
</event>
<event>
 8    1  0.5951278E-006  0.8862463E+02  0.7561462E-02  0.1306217E+00
         -2   -1    0    0    0  501 -0.00000000000E+00  0.00000000000E+00  0.55622601442E+03  0.55622601442E+03  0.00000000000E+00 0.  1.
          2   -1    0    0  501    0  0.00000000000E+00 -0.00000000000E+00 -0.59449589036E+02  0.59449589036E+02  0.00000000000E+00 0. -1.
         23    2    1    2    0    0  0.51213261731E+02  0.77761083398E+01  0.49156786998E+03  0.50987801352E+03  0.12511335595E+03 0.  0.
         23    2    1    2    0    0 -0.51213261731E+02 -0.77761083398E+01  0.52085554084E+01  0.10579758994E+03  0.92101764096E+02 0.  0.
          5    1    3    3  502    0  0.25169799387E+02 -0.36955887215E+02  0.58709130201E+02  0.73915429850E+02  0.41800000000E+01 0. -1.
         -5    1    3    3    0  502  0.26043462344E+02  0.44731995554E+02  0.43285873977E+03  0.43596258367E+03  0.41800000000E+01 0. -1.
        -11    1    4    4    0    0 -0.45624594138E+02  0.21620771860E+02  0.36653542530E+02  0.62390252011E+02  0.00000000000E+00 0.  1.
         11    1    4    4    0    0 -0.55886675932E+01 -0.29396880200E+02 -0.31444987121E+02  0.43407337928E+02  0.00000000000E+00 0. -1.
</event>
<event>
 8    1  0.5951278E-006  0.1045898E+03  0.7561462E-02  0.1270930E+00
          2   -1    0    0  501    0  0.00000000000E+00  0.00000000000E+00  0.59209805197E+02  0.59209805197E+02  0.00000000000E+00 0. -1.
         -2   -1    0    0    0  501 -0.00000000000E+00 -0.00000000000E+00 -0.30550923264E+03  0.30550923264E+03  0.00000000000E+00 0.  1.
         23    2    1    2    0    0 -0.45803299401E+01 -0.30939422481E+02 -0.23508691311E+03  0.26812613161E+03  0.12509012132E+03 0.  0.
         23    2    1    2    0    0  0.45803299401E+01  0.30939422481E+02 -0.11212514327E+02  0.96592906221E+02  0.90698631571E+02 0.  0.
          5    1    3    3  502    0  0.10543940805E+02 -0.73014001570E+02 -0.19267920855E+03  0.20636125828E+03  0.41800000000E+01 0. -1.
         -5    1    3    3    0  502 -0.15124270745E+02  0.42074579090E+02 -0.42407704563E+02  0.61764873330E+02  0.41800000000E+01 0. -1.
        -11    1    4    4    0    0 -0.15639577363E+01 -0.29546227183E+02 -0.19203285013E+02  0.35273101081E+02  0.00000000000E+00 0.  1.
         11    1    4    4    0    0  0.61442876764E+01  0.60485649664E+02  0.79907706863E+01  0.61319805140E+02  0.00000000000E+00 0. -1.
</event>
<event>
 8    1  0.5951278E-006  0.7212447E+02  0.7561462E-02  0.1353014E+00
         -2   -1    0    0    0  501 -0.00000000000E+00  0.00000000000E+00  0.16638969642E+03  0.16638969642E+03  0.00000000000E+00 0.  1.
          2   -1    0    0  501    0  0.00000000000E+00 -0.00000000000E+00 -0.13313587920E+03  0.13313587920E+03  0.00000000000E+00 0. -1.
         23    2    1    2    0    0 -0.10491920546E+02  0.34795284111E+02  0.11232862176E+03  0.17200547427E+03  0.12508945487E+03 0.  0.
         23    2    1    2    0    0  0.10491920546E+02 -0.34795284111E+02 -0.79074804536E+02  0.12752010135E+03  0.93208150623E+02 0.  0.
          5    1    3    3  502    0 -0.37603346389E+02  0.15069619304E+01 -0.12547187607E+02  0.39889684265E+02  0.41800000000E+01 0. -1.
         -5    1    3    3    0  502  0.27111425843E+02  0.33288322181E+02  0.12487580936E+03  0.13211579001E+03  0.41800000000E+01 0. -1.
        -11    1    4    4    0    0 -0.17015216993E+02 -0.31159760322E+02 -0.90727228465E+02  0.97426270880E+02  0.00000000000E+00 0. -1.
         11    1    4    4    0    0  0.27507137539E+02 -0.36355237893E+01  0.11652423930E+02  0.30093830468E+02  0.00000000000E+00 0.  1.
</event>
<event>
 8    1  0.5951278E-006  0.1340837E+03  0.7561462E-02  0.1221519E+00
          2   -1    0    0  501    0  0.00000000000E+00  0.00000000000E+00  0.12976800030E+03  0.12976800030E+03  0.00000000000E+00 0. -1.
         -2   -1    0    0    0  501 -0.00000000000E+00 -0.00000000000E+00 -0.19131736696E+03  0.19131736696E+03  0.00000000000E+00 0.  1.
         23    2    1    2    0    0 -0.61475870172E+02  0.10101996514E+03 -0.17104259631E+02  0.17298420235E+03  0.12508662036E+03 0.  0.
         23    2    1    2    0    0  0.61475870172E+02 -0.10101996514E+03 -0.44445107033E+02  0.14810116491E+03  0.77293412003E+02 0.  0.
          5    1    3    3  502    0  0.14585607106E+02  0.52838638737E+02 -0.52625800285E+02  0.76102621071E+02  0.41800000000E+01 0.  1.
         -5    1    3    3    0  502 -0.76061477278E+02  0.48181326405E+02  0.35521540654E+02  0.96881581274E+02  0.41800000000E+01 0.  1.
        -11    1    4    4    0    0  0.24086973489E+02 -0.71416642070E+02  0.96519679508E+01  0.75984732294E+02  0.00000000000E+00 0. -1.
         11    1    4    4    0    0  0.37388896684E+02 -0.29603323072E+02 -0.54097074984E+02  0.72116432621E+02  0.00000000000E+00 0.  1.
</event>
<event>
 8    1  0.5951278E-006  0.1363699E+03  0.7561462E-02  0.1218299E+00
         -1   -1    0    0    0  501 -0.00000000000E+00  0.00000000000E+00  0.30681599497E+03  0.30681599497E+03  0.00000000000E+00 0.  1.
          1   -1    0    0  501    0  0.00000000000E+00 -0.00000000000E+00 -0.78518869890E+02  0.78518869890E+02  0.00000000000E+00 0. -1.
         23    2    1    2    0    0  0.69847088338E+02  0.81165661615E+02  0.16845636151E+03  0.23556181729E+03  0.12508134815E+03 0.  0.
         23    2    1    2    0    0 -0.69847088338E+02 -0.81165661615E+02  0.59840763564E+02  0.14977304757E+03  0.85933511618E+02 0.  0.
          5    1    3    3  502    0 -0.25268581289E+01  0.75475178430E+02  0.13666699586E+03  0.15619932051E+03  0.41800000000E+01 0.  1.
         -5    1    3    3    0  502  0.72373946467E+02  0.56904831853E+01  0.31789365650E+02  0.79362496776E+02  0.41800000000E+01 0.  1.
        -11    1    4    4    0    0 -0.56307930639E+02 -0.91444438733E+02  0.23903793423E+02  0.11001845194E+03  0.00000000000E+00 0. -1.
         11    1    4    4    0    0 -0.13539157699E+02  0.10278777118E+02  0.35936970142E+02  0.39754595624E+02  0.00000000000E+00 0.  1.
</event>
<event>
 8    1  0.5951278E-006  0.1153966E+03  0.7561462E-02  0.1250890E+00
         -2   -1    0    0    0  501 -0.00000000000E+00  0.00000000000E+00  0.30148891510E+02  0.30148891510E+02  0.00000000000E+00 0.  1.
          2   -1    0    0  501    0  0.00000000000E+00 -0.00000000000E+00 -0.62615462459E+03  0.62615462459E+03  0.00000000000E+00 0. -1.
         23    2    1    2    0    0 -0.61569537191E+02  0.57262128077E+02 -0.33949064029E+03  0.37144362489E+03  0.12508681948E+03 0.  0.
         23    2    1    2    0    0  0.61569537191E+02 -0.57262128077E+02 -0.25651509278E+03  0.28485989120E+03  0.90969256171E+02 0.  0.
          5    1    3    3  502    0 -0.14423754220E+02 -0.27502080680E+02 -0.19413902062E+03  0.19665157222E+03  0.41800000000E+01 0.  1.
         -5    1    3    3    0  502 -0.47145782971E+02  0.84764208757E+02 -0.14535161967E+03  0.17479205268E+03  0.41800000000E+01 0.  1.
        -11    1    4    4    0    0 -0.10108305212E+02 -0.18011068468E+02 -0.62326924914E+01  0.21573661658E+02  0.00000000000E+00 0.  1.
         11    1    4    4    0    0  0.71677842403E+02 -0.39251059609E+02 -0.25028240029E+03  0.26328622955E+03  0.00000000000E+00 0. -1.
</event>
<event>
 8    1  0.5951278E-006  0.1214106E+03  0.7561462E-02  0.1240788E+00
         -3   -1    0    0    0  501 -0.00000000000E+00  0.00000000000E+00  0.57368398720E+02  0.57368398720E+02  0.00000000000E+00 0.  1.
          3   -1    0    0  501    0  0.00000000000E+00 -0.00000000000E+00 -0.30706456302E+03  0.30706456302E+03  0.00000000000E+00 0. -1.
         23    2    1    2    0    0  0.45806735024E+01  0.68141923923E+02 -0.89127808420E+02  0.16809126878E+03  0.12508638632E+03 0.  0.
         23    2    1    2    0    0 -0.45806735024E+01 -0.68141923923E+02 -0.16056835588E+03  0.19634169295E+03  0.90019770699E+02 0.  0.
          5    1    3    3  502    0 -0.25179415008E+02 -0.27297629237E+02 -0.56781725079E+01  0.37800496626E+02  0.41800000000E+01 0. -1.
         -5    1    3    3    0  502  0.29760088511E+02  0.95439553160E+02 -0.83449635912E+02  0.13029077216E+03  0.41800000000E+01 0. -1.
        -11    1    4    4    0    0 -0.39263351566E+02 -0.15207108478E+02 -0.31470433969E+02  0.52566673270E+02  0.00000000000E+00 0.  1.
         11    1    4    4    0    0  0.34682678063E+02 -0.52934815445E+02 -0.12909792191E+03  0.14377501968E+03  0.00000000000E+00 0. -1.
</event>
<event>
 8    1  0.5951278E-006  0.7997792E+02  0.7561462E-02  0.1329114E+00
          2   -1    0    0  501    0  0.00000000000E+00  0.00000000000E+00  0.73602609774E+03  0.73602609774E+03  0.00000000000E+00 0. -1.
         -2   -1    0    0    0  501 -0.00000000000E+00 -0.00000000000E+00 -0.20346965893E+02  0.20346965893E+02  0.00000000000E+00 0.  1.
         23    2    1    2    0    0  0.35823455937E+02  0.38375249368E+02  0.33174322236E+03  0.35840876134E+03  0.12508914764E+03 0.  0.
         23    2    1    2    0    0 -0.35823455937E+02 -0.38375249368E+02  0.38393590948E+03  0.39796430229E+03  0.90624629945E+02 0.  0.
          5    1    3    3  502    0 -0.39116904926E+01 -0.82036834896E+00 -0.10302099765E+02  0.11814397416E+02  0.41800000000E+01 0.  1.
         -5    1    3    3    0  502  0.39735146429E+02  0.39195617717E+02  0.34204532213E+03  0.34659436392E+03  0.41800000000E+01 0.  1.
        -11    1    4    4    0    0 -0.56186189242E+02 -0.49603407316E+02  0.34096391331E+03  0.34910424812E+03  0.00000000000E+00 0.  1.
         11    1    4    4    0    0  0.20362733306E+02  0.11228157948E+02  0.42971996170E+02  0.48860054169E+02  0.00000000000E+00 0. -1.
</event>
<event>
 8    1  0.5951278E-006  0.2145385E+03  0.7561462E-02  0.1138022E+00
         -2   -1    0    0    0  501 -0.00000000000E+00  0.00000000000E+00  0.47694353481E+02  0.47694353481E+02  0.00000000000E+00 0.  1.
          2   -1    0    0  501    0  0.00000000000E+00 -0.00000000000E+00 -0.11170745550E+04  0.11170745550E+04  0.00000000000E+00 0. -1.
         23    2    1    2    0    0 -0.17779412991E+03  0.95525700591E+02 -0.61886828780E+03  0.66285850018E+03  0.12509005358E+03 0.  0.
         23    2    1    2    0    0  0.17779412991E+03 -0.95525700591E+02 -0.45051191377E+03  0.50191040835E+03  0.90648560199E+02 0.  0.
          5    1    3    3  502    0 -0.98842127784E+01  0.22029123302E+02 -0.24739637616E+03  0.24860695741E+03  0.41800000000E+01 0. -1.
         -5    1    3    3    0  502 -0.16790991713E+03  0.73496577289E+02 -0.37147191164E+03  0.41425154277E+03  0.41800000000E+01 0. -1.
        -11    1    4    4    0    0  0.29405096261E+02  0.17931155264E+02 -0.67776457736E+02  0.76025221069E+02  0.00000000000E+00 0.  1.
         11    1    4    4    0    0  0.14838903365E+03 -0.11345685586E+03 -0.38273545603E+03  0.42588518729E+03  0.00000000000E+00 0. -1.
</event>
<event>
 7    1  0.5951278E-006  0.1732970E+03  0.7561462E-02  0.1174453E+00
         -2   -1    0    0    0  501 -0.00000000000E+00  0.00000000000E+00  0.18051907336E+02  0.18051907336E+02  0.00000000000E+00 0.  1.
          2   -1    0    0  501    0  0.00000000000E+00 -0.00000000000E+00 -0.17155149244E+04  0.17155149244E+04  0.00000000000E+00 0. -1.
         23    2    1    2    0    0 -0.12942894110E+03  0.17310497550E+01 -0.71371977009E+03  0.73114964141E+03  0.91809806624E+02 0.  0.
          5    1    1    2  502    0  0.13113986941E+03  0.47311608078E+02 -0.80590343197E+03  0.81788377394E+03  0.41800000000E+01 0. -1.
         -5    1    1    2    0  502 -0.17109283056E+01 -0.49042657833E+02 -0.17783981500E+03  0.18453341639E+03  0.41800000000E+01 0.  1.
        -11    1    3    3    0    0 -0.83124034698E+02  0.44974349558E+02 -0.46308475981E+03  0.47263071423E+03  0.00000000000E+00 0. -1.
         11    1    3    3    0    0 -0.46304906402E+02 -0.43243299803E+02 -0.25063501028E+03  0.25851892718E+03  0.00000000000E+00 0.  1.
</event>
<event>
 8    1  0.5951278E-006  0.6469824E+02  0.7561462E-02  0.1379110E+00
          2   -1    0    0  501    0  0.00000000000E+00  0.00000000000E+00  0.64793890048E+02  0.64793890048E+02  0.00000000000E+00 0. -1.
         -2   -1    0    0    0  501 -0.00000000000E+00 -0.00000000000E+00 -0.19912091377E+03  0.19912091377E+03  0.00000000000E+00 0.  1.
         23    2    1    2    0    0  0.12729820170E+02  0.28264672877E+02 -0.59353520538E+02  0.14188371060E+03  0.12508879598E+03 0.  0.
         23    2    1    2    0    0 -0.12729820170E+02 -0.28264672877E+02 -0.74973503179E+02  0.12203109321E+03  0.91157125213E+02 0.  0.
          5    1    3    3  502    0 -0.75711343565E+01  0.40078210982E+02 -0.92421650728E+02  0.10110795713E+03  0.41800000000E+01 0. -1.
         -5    1    3    3    0  502  0.20300954526E+02 -0.11813538104E+02  0.33068130190E+02  0.40775753475E+02  0.41800000000E+01 0. -1.
        -11    1    4    4    0    0 -0.60577257999E+01 -0.45580822511E+02 -0.88047408164E+02  0.99331029931E+02  0.00000000000E+00 0.  1.
         11    1    4    4    0    0 -0.66720943700E+01  0.17316149634E+02  0.13073904985E+02  0.22700063281E+02  0.00000000000E+00 0. -1.
</event>
<event>
 8    1  0.5951278E-006  0.9412580E+02  0.7561462E-02  0.1293157E+00
          1   -1    0    0  501    0  0.00000000000E+00  0.00000000000E+00  0.90696258825E+02  0.90696258825E+02  0.00000000000E+00 0. -1.
         -1   -1    0    0    0  501 -0.00000000000E+00 -0.00000000000E+00 -0.21536709200E+03  0.21536709200E+03  0.00000000000E+00 0.  1.
         23    2    1    2    0    0 -0.75004318940E+02  0.35792124270E+02 -0.10531197172E+03  0.18342665798E+03  0.12509197995E+03 0.  0.
         23    2    1    2    0    0  0.75004318940E+02 -0.35792124270E+02 -0.19358861455E+02  0.12263669285E+03  0.88081035966E+02 0.  0.
          5    1    3    3  502    0 -0.28085405674E+02  0.16264001524E+02 -0.12466299026E+03  0.12888615634E+03  0.41800000000E+01 0. -1.
         -5    1    3    3    0  502 -0.46918913266E+02  0.19528122747E+02  0.19351018534E+02  0.54540501633E+02  0.41800000000E+01 0. -1.
        -11    1    4    4    0    0  0.84634664713E+02 -0.21534578645E+02 -0.39753844527E+02  0.95953805048E+02  0.00000000000E+00 0.  1.
         11    1    4    4    0    0 -0.96303457728E+01 -0.14257545625E+02  0.20394983072E+02  0.26682887802E+02  0.00000000000E+00 0. -1.
</event>
<event>
 8    1  0.5951278E-006  0.8124095E+02  0.7561462E-02  0.1325566E+00
          2   -1    0    0  501    0  0.00000000000E+00  0.00000000000E+00  0.57958537250E+03  0.57958537250E+03  0.00000000000E+00 0. -1.
         -2   -1    0    0    0  501 -0.00000000000E+00 -0.00000000000E+00 -0.23346878595E+02  0.23346878595E+02  0.00000000000E+00 0.  1.
         23    2    1    2    0    0  0.26644653164E+02  0.26663509710E+02  0.28242150176E+03  0.31117545724E+03  0.12508948893E+03 0.  0.
         23    2    1    2    0    0 -0.26644653164E+02 -0.26663509710E+02  0.27381699214E+03  0.29175679385E+03  0.93409856447E+02 0.  0.
          5    1    3    3  502    0 -0.55860596809E+01  0.37586017886E+02  0.14213718294E+02  0.40784984872E+02  0.41800000000E+01 0.  1.
         -5    1    3    3    0  502  0.32230712845E+02 -0.10922508175E+02  0.26820778347E+03  0.27039047237E+03  0.41800000000E+01 0.  1.
        -11    1    4    4    0    0 -0.56284650655E+02 -0.17585344134E+02  0.23388897138E+03  0.24120791272E+03  0.00000000000E+00 0. -1.
         11    1    4    4    0    0  0.29639997491E+02 -0.90781655768E+01  0.39928020767E+02  0.50548881134E+02  0.00000000000E+00 0.  1.
</event>
<event>
 7    1  0.5951278E-006  0.1133865E+03  0.7561462E-02  0.1254424E+00
          1   -1    0    0  501    0  0.00000000000E+00  0.00000000000E+00  0.34489002414E+03  0.34489002414E+03  0.00000000000E+00 0. -1.
         -1   -1    0    0    0  501 -0.00000000000E+00 -0.00000000000E+00 -0.51588488021E+02  0.51588488021E+02  0.00000000000E+00 0.  1.
         23    2    1    2    0    0  0.47166324513E+02  0.13189174768E+02  0.19781057682E+03  0.22355840095E+03  0.91927785963E+02 0.  0.
          5    1    1    2  502    0  0.82447576224E+01 -0.56367390262E+02  0.36758025188E+01  0.57238471655E+02  0.41800000000E+01 0. -1.
         -5    1    1    2    0  502 -0.55411082136E+02  0.43178215494E+02  0.91815156774E+02  0.11568163956E+03  0.41800000000E+01 0.  1.
        -11    1    3    3    0    0  0.72355754565E+02  0.15460221757E+02  0.17286861220E+03  0.18803704625E+03  0.00000000000E+00 0.  1.
         11    1    3    3    0    0 -0.25189430052E+02 -0.22710469884E+01  0.24941964616E+02  0.35521354699E+02  0.00000000000E+00 0. -1.
</event>
<event>
 8    1  0.5951278E-006  0.9902407E+02  0.7561462E-02  0.1282362E+00
          4   -1    0    0  501    0  0.00000000000E+00  0.00000000000E+00  0.22282028506E+03  0.22282028506E+03  0.00000000000E+00 0. -1.
         -4   -1    0    0    0  501 -0.00000000000E+00 -0.00000000000E+00 -0.12889719600E+03  0.12889719600E+03  0.00000000000E+00 0.  1.
         23    2    1    2    0    0 -0.34319880327E+02  0.75698389444E+02 -0.54072295870E+02  0.15961941178E+03  0.12508574293E+03 0.  0.
         23    2    1    2    0    0  0.34319880327E+02 -0.75698389444E+02  0.14799538493E+03  0.19209806929E+03  0.89949618748E+02 0.  0.
          5    1    3    3  502    0 -0.49230420693E+02  0.31420294107E+02 -0.85158785188E+02  0.10334582864E+03  0.41800000000E+01 0. -1.
         -5    1    3    3    0  502  0.14910540366E+02  0.44278095337E+02  0.31086489318E+02  0.56273583134E+02  0.41800000000E+01 0. -1.
        -11    1    4    4    0    0 -0.78876052866E+01 -0.27077706432E+02 -0.25938174063E+01  0.28322153723E+02  0.00000000000E+00 0.  1.
         11    1    4    4    0    0  0.42207485613E+02 -0.48620683012E+02  0.15058920234E+03  0.16377591556E+03  0.00000000000E+00 0. -1.
</event>
<event>
 8    1  0.5951278E-006  0.1027447E+03  0.7561462E-02  0.1274628E+00
          2   -1    0    0  501    0  0.00000000000E+00  0.00000000000E+00  0.37877471823E+03  0.37877471823E+03  0.00000000000E+00 0. -1.
         -2   -1    0    0    0  501 -0.00000000000E+00 -0.00000000000E+00 -0.40318627815E+02  0.40318627815E+02  0.00000000000E+00 0.  1.
         23    2    1    2    0    0  0.12955687207E+02  0.43202197904E+02  0.12787518681E+03  0.18448412296E+03  0.12509215997E+03 0.  0.
         23    2    1    2    0    0 -0.12955687207E+02 -0.43202197904E+02  0.21058090360E+03  0.23460922309E+03  0.93074652085E+02 0.  0.
          5    1    3    3  502    0  0.53284173592E+01 -0.31204641334E+02 -0.46332650328E+01  0.32265480272E+02  0.41800000000E+01 0. -1.
         -5    1    3    3    0  502  0.76272698482E+01  0.74406839238E+02  0.13250845185E+03  0.15221864269E+03  0.41800000000E+01 0. -1.
        -11    1    4    4    0    0  0.35441945367E+02 -0.27156155041E+01  0.11252085548E+03  0.11800190243E+03  0.00000000000E+00 0. -1.
         11    1    4    4    0    0 -0.48397632574E+02 -0.40486582400E+02  0.98060048121E+02  0.11660732066E+03  0.00000000000E+00 0.  1.
</event>
<event>
 8    1  0.5951278E-006  0.1465023E+03  0.7561462E-02  0.1204838E+00
         -1   -1    0    0    0  501 -0.00000000000E+00  0.00000000000E+00  0.63441457401E+03  0.63441457401E+03  0.00000000000E+00 0.  1.
          1   -1    0    0  501    0  0.00000000000E+00 -0.00000000000E+00 -0.52703842791E+02  0.52703842791E+02  0.00000000000E+00 0. -1.
         23    2    1    2    0    0  0.42159444246E+02  0.10798922599E+03  0.47697358542E+03  0.50654618380E+03  0.12508454529E+03 0.  0.
         23    2    1    2    0    0 -0.42159444246E+02 -0.10798922599E+03  0.10473714580E+03  0.18057223300E+03  0.90539328191E+02 0.  0.
          5    1    3    3  502    0  0.27086620542E+02 -0.12087276473E+02  0.22501299298E+03  0.22699803231E+03  0.41800000000E+01 0. -1.
         -5    1    3    3    0  502  0.15072823704E+02  0.12007650247E+03  0.25196059244E+03  0.27954815149E+03  0.41800000000E+01 0. -1.
        -11    1    4    4    0    0 -0.91767876332E+00 -0.99934101119E+02  0.50533496391E+02  0.11198795006E+03  0.00000000000E+00 0. -1.
         11    1    4    4    0    0 -0.41241765483E+02 -0.80551248755E+01  0.54203649412E+02  0.68584282941E+02  0.00000000000E+00 0.  1.
</event>
<event>
 8    1  0.5951278E-006  0.1097287E+03  0.7561462E-02  0.1261073E+00
          1   -1    0    0  501    0  0.00000000000E+00  0.00000000000E+00  0.42889601376E+02  0.42889601376E+02  0.00000000000E+00 0. -1.
         -1   -1    0    0    0  501 -0.00000000000E+00 -0.00000000000E+00 -0.44595263344E+03  0.44595263344E+03  0.00000000000E+00 0.  1.
         23    2    1    2    0    0 -0.65791530100E+02 -0.11133596802E+02 -0.31987319765E+03  0.34740711078E+03  0.11798455676E+03 0.  0.
         23    2    1    2    0    0  0.65791530100E+02  0.11133596802E+02 -0.83189834410E+02  0.14143512403E+03  0.92902439957E+02 0.  0.
          5    1    3    3  502    0 -0.46354610098E+02 -0.50276923836E+02 -0.88579452142E+02  0.11198352865E+03  0.41800000000E+01 0. -1.
         -5    1    3    3    0  502 -0.19436920002E+02  0.39143327033E+02 -0.23129374551E+03  0.23542358213E+03  0.41800000000E+01 0.  1.
        -11    1    4    4    0    0 -0.14479946676E+02  0.21689979413E+02 -0.44786456445E+02  0.51826158874E+02  0.00000000000E+00 0.  1.
         11    1    4    4    0    0  0.80271476776E+02 -0.10556382611E+02 -0.38403377965E+02  0.89608965158E+02  0.00000000000E+00 0. -1.
</event>
<event>
 8    1  0.5951278E-006  0.6067273E+02  0.7561462E-02  0.1395030E+00
         -1   -1    0    0    0  501 -0.00000000000E+00  0.00000000000E+00  0.37222137284E+02  0.37222137284E+02  0.00000000000E+00 0.  1.
          1   -1    0    0  501    0  0.00000000000E+00 -0.00000000000E+00 -0.34542135534E+03  0.34542135534E+03  0.00000000000E+00 0. -1.
         23    2    1    2    0    0 -0.26759497304E+02 -0.43563192429E+01 -0.13465942375E+03  0.18578334304E+03  0.12508893609E+03 0.  0.
         23    2    1    2    0    0  0.26759497304E+02  0.43563192429E+01 -0.17353979430E+03  0.19686014958E+03  0.88897750676E+02 0.  0.
          5    1    3    3  502    0 -0.17371534673E+02 -0.23283048031E+01 -0.15861639338E+03  0.15963653676E+03  0.41800000000E+01 0.  1.
         -5    1    3    3    0  502 -0.93879626308E+01 -0.20280144397E+01  0.23956969625E+02  0.26146806278E+02  0.41800000000E+01 0.  1.
        -11    1    4    4    0    0 -0.31057246243E+02  0.14292323740E+02 -0.59815464348E+02  0.68896392048E+02  0.00000000000E+00 0. -1.
         11    1    4    4    0    0  0.57816743546E+02 -0.99360044967E+01 -0.11372432995E+03  0.12796375754E+03  0.00000000000E+00 0.  1.
</event>
<event>
 8    1  0.5951278E-006  0.9902950E+02  0.7561462E-02  0.1282350E+00
         -2   -1    0    0    0  501 -0.00000000000E+00  0.00000000000E+00  0.25306698523E+03  0.25306698523E+03  0.00000000000E+00 0.  1.
          2   -1    0    0  501    0  0.00000000000E+00 -0.00000000000E+00 -0.53627410767E+02  0.53627410767E+02  0.00000000000E+00 0. -1.
         23    2    1    2    0    0 -0.23672914357E+02 -0.28648990771E+02  0.10616899348E+03  0.16822920343E+03  0.12509211871E+03 0.  0.
         23    2    1    2    0    0  0.23672914357E+02  0.28648990771E+02  0.93270580983E+02  0.13846519257E+03  0.95352172132E+02 0.  0.
          5    1    3    3  502    0 -0.60198904507E+02 -0.57810735479E+02  0.68549286940E+02  0.10808545869E+03  0.41800000000E+01 0. -1.
         -5    1    3    3    0  502  0.36525990150E+02  0.29161744709E+02  0.37619706543E+02  0.60143744739E+02  0.41800000000E+01 0. -1.
        -11    1    4    4    0    0 -0.12546918241E+02 -0.89094465673E+01  0.84089448248E+02  0.85485897680E+02  0.00000000000E+00 0.  1.
         11    1    4    4    0    0  0.36219832598E+02  0.37558437338E+02  0.91811327345E+01  0.52979294890E+02  0.00000000000E+00 0. -1.
</event>
<event>
 8    1  0.5951278E-006  0.1660293E+03  0.7561462E-02  0.1182053E+00
          1   -1    0    0  501    0  0.00000000000E+00  0.00000000000E+00  0.85220945459E+03  0.85220945459E+03  0.00000000000E+00 0. -1.
         -1   -1    0    0    0  501 -0.00000000000E+00 -0.00000000000E+00 -0.45480656609E+02  0.45480656609E+02  0.00000000000E+00 0.  1.
         23    2    1    2    0    0  0.12703306259E+03  0.17082673496E+02  0.19378687613E+03  0.26451713102E+03  0.12643869076E+03 0.  0.
         23    2    1    2    0    0 -0.12703306259E+03 -0.17082673496E+02  0.61294192185E+03  0.63317298017E+03  0.93707024980E+02 0.  0.
          5    1    3    3  502    0  0.10580488017E+03  0.62685568894E+02  0.16680991483E+03  0.20728524622E+03  0.41800000000E+01 0. -1.
         -5    1    3    3    0  502  0.21228182418E+02 -0.45602895397E+02  0.26976961300E+02  0.57231884805E+02  0.41800000000E+01 0. -1.
        -11    1    4    4    0    0 -0.81153338543E+02 -0.55810731076E+02  0.39763518851E+03  0.40965161442E+03  0.00000000000E+00 0.  1.
         11    1    4    4    0    0 -0.45879724047E+02  0.38728057580E+02  0.21530673335E+03  0.22352136575E+03  0.00000000000E+00 0. -1.
</event>
<event>
 7    1  0.5951278E-006  0.1123728E+03  0.7561462E-02  0.1256238E+00
         -4   -1    0    0    0  501 -0.00000000000E+00  0.00000000000E+00  0.41625648984E+02  0.41625648984E+02  0.00000000000E+00 0.  1.
          4   -1    0    0  501    0  0.00000000000E+00 -0.00000000000E+00 -0.38238293677E+03  0.38238293677E+03  0.00000000000E+00 0. -1.
         23    2    1    2    0    0  0.63359215621E+01 -0.83492617032E+02 -0.16366311042E+03  0.22236155570E+03  0.12509151345E+03 0.  0.
          5    1    3    3  502    0  0.50609740836E+02 -0.61732877421E+02 -0.15163189277E+03  0.17141177710E+03  0.41800000000E+01 0.  1.
         -5    1    3    3    0  502 -0.44273819274E+02 -0.21759739611E+02 -0.12031217650E+02  0.50949778598E+02  0.41800000000E+01 0.  1.
        -11    1    1    2    0    0 -0.20189947594E+02  0.14315882339E+02 -0.33433183394E+02  0.41597550683E+02  0.00000000000E+00 0.  1.
         11    1    1    2    0    0  0.13854026032E+02  0.69176734693E+02 -0.14366099397E+03  0.16004947938E+03  0.00000000000E+00 0. -1.
</event>
<event>
 8    1  0.5951278E-006  0.1318701E+03  0.7561462E-02  0.1224707E+00
         -3   -1    0    0    0  501 -0.00000000000E+00  0.00000000000E+00  0.11991444381E+03  0.11991444381E+03  0.00000000000E+00 0.  1.
          3   -1    0    0  501    0  0.00000000000E+00 -0.00000000000E+00 -0.21312765814E+03  0.21312765814E+03  0.00000000000E+00 0. -1.
         23    2    1    2    0    0  0.11018271856E+03 -0.37317594061E+02 -0.37433081174E+02  0.17487859023E+03  0.12509377067E+03 0.  0.
         23    2    1    2    0    0 -0.11018271856E+03  0.37317594061E+02 -0.55780133151E+02  0.15816351172E+03  0.91495567601E+02 0.  0.
          5    1    3    3  502    0  0.41946415923E+02 -0.92708709787E+01  0.46235746587E+02  0.63250830191E+02  0.41800000000E+01 0.  1.
         -5    1    3    3    0  502  0.68236302633E+02 -0.28046723083E+02 -0.83668827760E+02  0.11162776004E+03  0.41800000000E+01 0.  1.
        -11    1    4    4    0    0  0.15762311712E+02  0.63144572004E+01 -0.17996762158E-01  0.16980081393E+02  0.00000000000E+00 0.  1.
         11    1    4    4    0    0 -0.12594503027E+03  0.31003136861E+02 -0.55762136389E+02  0.14118343033E+03  0.00000000000E+00 0. -1.
</event>
<event>
 8    1  0.5951278E-006  0.1926072E+03  0.7561462E-02  0.1156131E+00
          4   -1    0    0  501    0  0.00000000000E+00  0.00000000000E+00  0.10529916893E+04  0.10529916893E+04  0.00000000000E+00 0. -1.
         -4   -1    0    0    0  501 -0.00000000000E+00 -0.00000000000E+00 -0.46279638591E+02  0.46279638591E+02  0.00000000000E+00 0.  1.
         23    2    1    2    0    0  0.16223807956E+03  0.84575919843E+02  0.37519071335E+03  0.43576256778E+03  0.12508662364E+03 0.  0.
         23    2    1    2    0    0 -0.16223807956E+03 -0.84575919843E+02  0.63152133732E+03  0.66350876007E+03  0.89164984891E+02 0.  0.
          5    1    3    3  502    0  0.28851917586E+02  0.13665631597E+02  0.20766762180E+03  0.21014874775E+03  0.41800000000E+01 0.  1.
         -5    1    3    3    0  502  0.13338616197E+03  0.70910288246E+02  0.16752309155E+03  0.22561382003E+03  0.41800000000E+01 0.  1.
        -11    1    4    4    0    0 -0.43692140622E+02 -0.69918307918E+02  0.21755696550E+03  0.23265555263E+03  0.00000000000E+00 0.  1.
         11    1    4    4    0    0 -0.11854593894E+03 -0.14657611925E+02  0.41396437182E+03  0.43085320744E+03  0.00000000000E+00 0. -1.
</event>
<event>
 7    1  0.5951278E-006  0.2657735E+03  0.7561462E-02  0.1103723E+00
         -2   -1    0    0    0  501 -0.00000000000E+00  0.00000000000E+00  0.27130725892E+03  0.27130725892E+03  0.00000000000E+00 0.  1.
          2   -1    0    0  501    0  0.00000000000E+00 -0.00000000000E+00 -0.36427548609E+03  0.36427548609E+03  0.00000000000E+00 0. -1.
         23    2    1    2    0    0 -0.24946212512E+03  0.63226664032E+02 -0.17542363071E+03  0.32829077646E+03  0.10379027308E+03 0.  0.
          5    1    1    2  502    0  0.63780132092E+02  0.56208771109E+01 -0.38860946645E+02  0.75014299192E+02  0.41800000000E+01 0. -1.
         -5    1    1    2    0  502  0.18568199303E+03 -0.68847541143E+02  0.12131635019E+03  0.23227766935E+03  0.41800000000E+01 0.  1.
        -11    1    3    3    0    0 -0.91517846043E+02  0.63447115226E+02 -0.11243727610E+03  0.15825041432E+03  0.00000000000E+00 0.  1.
         11    1    3    3    0    0 -0.15794427907E+03 -0.22045119433E+00 -0.62986354611E+02  0.17004036214E+03  0.00000000000E+00 0. -1.
</event>
<event>
 8    1  0.5951278E-006  0.1086615E+03  0.7561462E-02  0.1263069E+00
          3   -1    0    0  501    0  0.00000000000E+00  0.00000000000E+00  0.29996643738E+03  0.29996643738E+03  0.00000000000E+00 0. -1.
         -3   -1    0    0    0  501 -0.00000000000E+00 -0.00000000000E+00 -0.53621891776E+02  0.53621891776E+02  0.00000000000E+00 0.  1.
         23    2    1    2    0    0 -0.65533118094E+01 -0.53785243891E+02  0.81020455008E+02  0.15860586267E+03  0.12512276846E+03 0.  0.
         23    2    1    2    0    0  0.65533118094E+01  0.53785243891E+02  0.16532409060E+03  0.19498246649E+03  0.88035839016E+02 0.  0.
          5    1    3    3  502    0 -0.50831471234E+02 -0.44600831346E+01 -0.32603251964E+01  0.51301393059E+02  0.41800000000E+01 0.  1.
         -5    1    3    3    0  502  0.44278159425E+02 -0.49325160757E+02  0.84280780204E+02  0.10730446961E+03  0.41800000000E+01 0.  1.
        -11    1    4    4    0    0  0.39434862068E+02  0.53952517839E+02  0.84546613359E+02  0.10776879121E+03  0.00000000000E+00 0.  1.
         11    1    4    4    0    0 -0.32881550258E+02 -0.16727394741E+00  0.80777477238E+02  0.87213675286E+02  0.00000000000E+00 0. -1.
</event>
<event>
 8    1  0.5951278E-006  0.1371305E+03  0.7561462E-02  0.1217243E+00
         -1   -1    0    0    0  501 -0.00000000000E+00  0.00000000000E+00  0.52345619695E+03  0.52345619695E+03  0.00000000000E+00 0.  1.
          1   -1    0    0  501    0  0.00000000000E+00 -0.00000000000E+00 -0.45444337757E+02  0.45444337757E+02  0.00000000000E+00 0. -1.
         23    2    1    2    0    0  0.10154107292E+03 -0.34387468005E+02  0.30098248571E+03  0.34312217521E+03  0.12509709418E+03 0.  0.
         23    2    1    2    0    0 -0.10154107292E+03  0.34387468005E+02  0.17702937348E+03  0.22577835950E+03  0.90240684252E+02 0.  0.
          5    1    3    3  502    0  0.10184157211E+03 -0.72956589035E+02  0.24177383543E+03  0.27233514205E+03  0.41800000000E+01 0. -1.
         -5    1    3    3    0  502 -0.30049918436E+00  0.38569121030E+02  0.59208650272E+02  0.70787033162E+02  0.41800000000E+01 0. -1.
        -11    1    4    4    0    0 -0.53870133575E+02  0.49652573914E+01  0.15737058323E+03  0.16640957165E+03  0.00000000000E+00 0.  1.
         11    1    4    4    0    0 -0.47670939349E+02  0.29422210613E+02  0.19658790258E+02  0.59368787845E+02  0.00000000000E+00 0. -1.
</event>
<event>
 8    1  0.5951278E-006  0.1490612E+03  0.7561462E-02  0.1201631E+00
          2   -1    0    0  501    0  0.00000000000E+00  0.00000000000E+00  0.51423098630E+03  0.51423098630E+03  0.00000000000E+00 0. -1.
         -2   -1    0    0    0  501 -0.00000000000E+00 -0.00000000000E+00 -0.46065980761E+02  0.46065980761E+02  0.00000000000E+00 0.  1.
         23    2    1    2    0    0  0.73422391853E+02  0.76735471552E+02  0.20921541052E+03  0.26588981498E+03  0.12508847065E+03 0.  0.
         23    2    1    2    0    0 -0.73422391853E+02 -0.76735471552E+02  0.25894959502E+03  0.29440715208E+03  0.91331802893E+02 0.  0.
          5    1    3    3  502    0  0.95395329162E+02  0.12779787132E+02  0.12291503920E+03  0.15617032704E+03  0.41800000000E+01 0.  1.
         -5    1    3    3    0  502 -0.21972937309E+02  0.63955684420E+02  0.86300371320E+02  0.10971948794E+03  0.41800000000E+01 0.  1.
        -11    1    4    4    0    0 -0.10820496073E+02 -0.70266526522E+02  0.17939232359E+03  0.19296650914E+03  0.00000000000E+00 0. -1.
         11    1    4    4    0    0 -0.62601895780E+02 -0.64689450299E+01  0.79557271421E+02  0.10144064294E+03  0.00000000000E+00 0.  1.
</event>
<event>
 8    1  0.5951278E-006  0.1274368E+03  0.7561462E-02  0.1231309E+00
         -2   -1    0    0    0  501 -0.00000000000E+00  0.00000000000E+00  0.20327127737E+02  0.20327127737E+02  0.00000000000E+00 0.  1.
          2   -1    0    0  501    0  0.00000000000E+00 -0.00000000000E+00 -0.93351150144E+03  0.93351150144E+03  0.00000000000E+00 0. -1.
         23    2    1    2    0    0 -0.67788031506E+02  0.48626663975E+02 -0.45319131706E+03  0.47748266467E+03  0.12509018961E+03 0.  0.
         23    2    1    2    0    0  0.67788031506E+02 -0.48626663975E+02 -0.45999305664E+03  0.47635596451E+03  0.91441911063E+02 0.  0.
          5    1    3    3  502    0  0.51083381298E+01  0.60534060462E+02 -0.10378211133E+03  0.12032733117E+03  0.41800000000E+01 0.  1.
         -5    1    3    3    0  502 -0.72896369636E+02 -0.11907396487E+02 -0.34940920573E+03  0.35715533350E+03  0.41800000000E+01 0.  1.
        -11    1    4    4    0    0  0.47312845144E+00 -0.52567677853E+02 -0.26121350587E+03  0.26645089651E+03  0.00000000000E+00 0. -1.
         11    1    4    4    0    0  0.67314903055E+02  0.39410138778E+01 -0.19877955077E+03  0.20990506799E+03  0.00000000000E+00 0.  1.
</event>
<event>
 8    1  0.5951278E-006  0.1015136E+03  0.7561462E-02  0.1277145E+00
          2   -1    0    0  501    0  0.00000000000E+00  0.00000000000E+00  0.11527385268E+03  0.11527385268E+03  0.00000000000E+00 0. -1.
         -2   -1    0    0    0  501 -0.00000000000E+00 -0.00000000000E+00 -0.19127751030E+03  0.19127751030E+03  0.00000000000E+00 0.  1.
         23    2    1    2    0    0  0.47439472794E+02 -0.14896650682E+01 -0.13282275432E+03  0.18852567241E+03  0.12508925778E+03 0.  0.
         23    2    1    2    0    0 -0.47439472794E+02  0.14896650682E+01  0.56819096707E+02  0.11802569057E+03  0.91918067877E+02 0.  0.
          5    1    3    3  502    0  0.55912933416E+02 -0.54064816646E+02 -0.96109386553E+02  0.12370831462E+03  0.41800000000E+01 0. -1.
         -5    1    3    3    0  502 -0.84734606220E+01  0.52575151578E+02 -0.36713367768E+02  0.64817357793E+02  0.41800000000E+01 0. -1.
        -11    1    4    4    0    0 -0.50281426781E+02  0.19171138732E+02  0.75129736532E+02  0.92413374307E+02  0.00000000000E+00 0. -1.
         11    1    4    4    0    0  0.28419539868E+01 -0.17681473664E+02 -0.18310639825E+02  0.25612316260E+02  0.00000000000E+00 0.  1.
</event>
<event>
 8    1  0.5951278E-006  0.9923598E+02  0.7561462E-02  0.1281911E+00
         -1   -1    0    0    0  501 -0.00000000000E+00  0.00000000000E+00  0.15652141675E+03  0.15652141675E+03  0.00000000000E+00 0.  1.
          1   -1    0    0  501    0  0.00000000000E+00 -0.00000000000E+00 -0.10960979232E+03  0.10960979232E+03  0.00000000000E+00 0. -1.
         23    2    1    2    0    0 -0.18866009279E+02  0.64593272851E+02  0.55171943549E+02  0.15238121315E+03  0.12509146079E+03 0.  0.
         23    2    1    2    0    0  0.18866009279E+02 -0.64593272851E+02 -0.82603191243E+01  0.11374999592E+03  0.91337897376E+02 0.  0.
          5    1    3    3  502    0  0.59782034920E+01  0.83356897544E+02  0.77332488203E+02  0.11393812978E+03  0.41800000000E+01 0.  1.
         -5    1    3    3    0  502 -0.24844212771E+02 -0.18763624693E+02 -0.22160544655E+02  0.38443083373E+02  0.41800000000E+01 0.  1.
        -11    1    4    4    0    0 -0.16631474938E+02 -0.15009527706E+02 -0.39365996770E+02  0.45294299667E+02  0.00000000000E+00 0. -1.
         11    1    4    4    0    0  0.35497484217E+02 -0.49583745145E+02  0.31105677646E+02  0.68455696258E+02  0.00000000000E+00 0.  1.
</event>
<event>
 8    1  0.5951278E-006  0.1054163E+03  0.7561462E-02  0.1269302E+00
         -1   -1    0    0    0  501 -0.00000000000E+00  0.00000000000E+00  0.23318126293E+03  0.23318126293E+03  0.00000000000E+00 0.  1.
          1   -1    0    0  501    0  0.00000000000E+00 -0.00000000000E+00 -0.65993201672E+02  0.65993201672E+02  0.00000000000E+00 0. -1.
         23    2    1    2    0    0  0.14859736204E+02 -0.24898468704E+02  0.15800292501E+03  0.20357420412E+03  0.12504713817E+03 0.  0.
         23    2    1    2    0    0 -0.14859736204E+02  0.24898468704E+02  0.91851362465E+01  0.95600260486E+02  0.90632762141E+02 0.  0.
          5    1    3    3  502    0 -0.31332981168E+01  0.45717432859E+02  0.10090845448E+03  0.11090486829E+03  0.41800000000E+01 0. -1.
         -5    1    3    3    0  502  0.17993034321E+02 -0.70615901563E+02  0.57094470532E+02  0.92669335829E+02  0.41800000000E+01 0. -1.
        -11    1    4    4    0    0 -0.30871196837E+02 -0.24808128080E+02 -0.84231339593E+01  0.40489791289E+02  0.00000000000E+00 0. -1.
         11    1    4    4    0    0  0.16011460632E+02  0.49706596784E+02  0.17608270206E+02  0.55110469197E+02  0.00000000000E+00 0.  1.
</event>
<event>
 8    1  0.5951278E-006  0.1126625E+03  0.7561462E-02  0.1255717E+00
         -1   -1    0    0    0  501 -0.00000000000E+00  0.00000000000E+00  0.15087150906E+03  0.15087150906E+03  0.00000000000E+00 0.  1.
          1   -1    0    0  501    0  0.00000000000E+00 -0.00000000000E+00 -0.15042237778E+03  0.15042237778E+03  0.00000000000E+00 0. -1.
         23    2    1    2    0    0  0.37579443064E+02  0.35775358318E+02  0.90208670195E+02  0.16271641019E+03  0.12508770988E+03 0.  0.
         23    2    1    2    0    0 -0.37579443064E+02 -0.35775358318E+02 -0.89759538916E+02  0.13857747664E+03  0.91950265919E+02 0.  0.
          5    1    3    3  502    0 -0.28175983545E+02  0.56293249415E+02  0.61077109684E+02  0.87810601329E+02  0.41800000000E+01 0.  1.
         -5    1    3    3    0  502  0.65755426609E+02 -0.20517891097E+02  0.29131560512E+02  0.74905808864E+02  0.41800000000E+01 0.  1.
        -11    1    4    4    0    0 -0.28174301912E+02 -0.60518964854E+02 -0.29939252794E+02  0.73162116243E+02  0.00000000000E+00 0.  1.
         11    1    4    4    0    0 -0.94051411514E+01  0.24743606537E+02 -0.59820286123E+02  0.65415360400E+02  0.00000000000E+00 0. -1.
</event>
<event>
 8    1  0.5951278E-006  0.8825012E+02  0.7561462E-02  0.1307145E+00
         -2   -1    0    0    0  501 -0.00000000000E+00  0.00000000000E+00  0.11655100427E+03  0.11655100427E+03  0.00000000000E+00 0.  1.
          2   -1    0    0  501    0  0.00000000000E+00 -0.00000000000E+00 -0.11816183990E+03  0.11816183990E+03  0.00000000000E+00 0. -1.
         23    2    1    2    0    0  0.44515031008E+02 -0.13437486827E+02  0.10095605219E+02  0.13383705273E+03  0.12509309094E+03 0.  0.
         23    2    1    2    0    0 -0.44515031008E+02  0.13437486827E+02 -0.11706440847E+02  0.10087579144E+03  0.88750946498E+02 0.  0.
          5    1    3    3  502    0  0.27127181248E+02  0.49070794065E+02  0.32652504723E+02  0.65019114554E+02  0.41800000000E+01 0.  1.
         -5    1    3    3    0  502  0.17387849760E+02 -0.62508280893E+02 -0.22556899504E+02  0.68817938175E+02  0.41800000000E+01 0.  1.
        -11    1    4    4    0    0 -0.30049011734E+02 -0.63841363863E+01  0.35941015451E+02  0.47280618600E+02  0.00000000000E+00 0.  1.
         11    1    4    4    0    0 -0.14466019274E+02  0.19821623213E+02 -0.47647456298E+02  0.53595172844E+02  0.00000000000E+00 0. -1.
</event>
<event>
 8    1  0.5951278E-006  0.2478834E+03  0.7561462E-02  0.1114650E+00
          2   -1    0    0  501    0  0.00000000000E+00  0.00000000000E+00  0.12610054717E+04  0.12610054717E+04  0.00000000000E+00 0. -1.
         -2   -1    0    0    0  501 -0.00000000000E+00 -0.00000000000E+00 -0.57573689488E+02  0.57573689488E+02  0.00000000000E+00 0.  1.
         23    2    1    2    0    0  0.23010567003E+03 -0.25616819980E+01  0.40321830415E+03  0.48082002840E+03  0.12509083627E+03 0.  0.
         23    2    1    2    0    0 -0.23010567003E+03  0.25616819980E+01  0.80021347808E+03  0.83775913280E+03  0.92431447559E+02 0.  0.
          5    1    3    3  502    0 -0.50143333018E+01  0.15014616378E+02  0.74431208530E+02  0.76210625550E+02  0.41800000000E+01 0.  1.
         -5    1    3    3    0  502  0.23512000333E+03 -0.17576298376E+02  0.32878709562E+03  0.40460940285E+03  0.41800000000E+01 0.  1.
        -11    1    4    4    0    0 -0.69916663000E+02 -0.36253183806E+02  0.33745381164E+03  0.34652230533E+03  0.00000000000E+00 0. -1.
         11    1    4    4    0    0 -0.16018900703E+03  0.38814865804E+02  0.46275966643E+03  0.49123682747E+03  0.00000000000E+00 0.  1.
</event>
<event>
 8    1  0.5951278E-006  0.9646994E+02  0.7561462E-02  0.1287899E+00
         -4   -1    0    0    0  501 -0.00000000000E+00  0.00000000000E+00  0.30846118072E+03  0.30846118072E+03  0.00000000000E+00 0. -1.
          4   -1    0    0  501    0  0.00000000000E+00 -0.00000000000E+00 -0.42933537719E+02  0.42933537719E+02  0.00000000000E+00 0.  1.
         23    2    1    2    0    0  0.33553274864E+02 -0.16878382432E+02  0.18256783742E+03  0.22453668975E+03  0.12519987116E+03 0.  0.
         23    2    1    2    0    0 -0.33553274864E+02  0.16878382432E+02  0.82959805585E+02  0.12685802869E+03  0.88317201338E+02 0.  0.
          5    1    3    3  502    0 -0.14146217745E+02  0.29176617817E+02  0.27155051024E+01  0.32806049315E+02  0.41800000000E+01 0.  1.
         -5    1    3    3    0  502  0.47699492609E+02 -0.46055000249E+02  0.17985233231E+03  0.19173064044E+03  0.41800000000E+01 0.  1.
        -11    1    4    4    0    0 -0.26742684263E+02  0.51765091769E+02  0.38071738106E+02  0.69600669033E+02  0.00000000000E+00 0.  1.
         11    1    4    4    0    0 -0.68105906004E+01 -0.34886709336E+02  0.44888067479E+02  0.57257359655E+02  0.00000000000E+00 0. -1.
</event>
<event>
 8    1  0.5951278E-006  0.8955661E+02  0.7561462E-02  0.1303929E+00
         -1   -1    0    0    0  501 -0.00000000000E+00  0.00000000000E+00  0.10192199351E+04  0.10192199351E+04  0.00000000000E+00 0.  1.
          1   -1    0    0  501    0  0.00000000000E+00 -0.00000000000E+00 -0.15050428339E+02  0.15050428339E+02  0.00000000000E+00 0. -1.
         23    2    1    2    0    0 -0.22735967049E+02  0.16476781138E+02  0.77749611089E+03  0.78799556700E+03  0.12509357553E+03 0.  0.
         23    2    1    2    0    0  0.22735967049E+02 -0.16476781138E+02  0.22667339583E+03  0.24627479641E+03  0.92097982895E+02 0.  0.
          5    1    3    3  502    0  0.27019643099E+02 -0.64340789150E+01  0.42461211566E+02  0.50910562483E+02  0.41800000000E+01 0. -1.
         -5    1    3    3    0  502 -0.49755610148E+02  0.22910860053E+02  0.73503489933E+03  0.73708500451E+03  0.41800000000E+01 0. -1.
        -11    1    4    4    0    0  0.45386741271E+02 -0.42088343829E+02  0.15337194937E+03  0.16539147446E+03  0.00000000000E+00 0.  1.
         11    1    4    4    0    0 -0.22650774222E+02  0.25611562691E+02  0.73301446461E+02  0.80883321950E+02  0.00000000000E+00 0. -1.
</event>
<event>
 8    1  0.5951278E-006  0.1313108E+03  0.7561462E-02  0.1225524E+00
         -4   -1    0    0    0  501 -0.00000000000E+00  0.00000000000E+00  0.18717970103E+03  0.18717970103E+03  0.00000000000E+00 0.  1.
          4   -1    0    0  501    0  0.00000000000E+00 -0.00000000000E+00 -0.16384164159E+03  0.16384164159E+03  0.00000000000E+00 0. -1.
         23    2    1    2    0    0 -0.67974823369E+02 -0.93561627554E+02  0.84021559765E+02  0.18994711131E+03  0.12508368330E+03 0.  0.
         23    2    1    2    0    0  0.67974823369E+02  0.93561627554E+02 -0.60683500331E+02  0.16107423131E+03  0.94276540117E+02 0.  0.
          5    1    3    3  502    0 -0.51151692834E+02 -0.10850309242E+03  0.10456954085E+03  0.15919069702E+03  0.41800000000E+01 0.  1.
         -5    1    3    3    0  502 -0.16823130535E+02  0.14941464862E+02 -0.20547981090E+02  0.30756414292E+02  0.41800000000E+01 0.  1.
        -11    1    4    4    0    0  0.33465273977E+02  0.21410434069E+02 -0.70066903327E+02  0.80546273602E+02  0.00000000000E+00 0. -1.
         11    1    4    4    0    0  0.34509549392E+02  0.72151193485E+02  0.93834029952E+01  0.80527957706E+02  0.00000000000E+00 0.  1.
</event>
<event>
 8    1  0.5951278E-006  0.1403817E+03  0.7561462E-02  0.1212816E+00
          2   -1    0    0  501    0  0.00000000000E+00  0.00000000000E+00  0.32266894047E+02  0.32266894047E+02  0.00000000000E+00 0. -1.
         -2   -1    0    0    0  501 -0.00000000000E+00 -0.00000000000E+00 -0.72077693841E+03  0.72077693841E+03  0.00000000000E+00 0.  1.
         23    2    1    2    0    0 -0.98510884864E+02  0.30178032204E+01 -0.46747798399E+03  0.49385824927E+03  0.12508718275E+03 0.  0.
         23    2    1    2    0    0  0.98510884864E+02 -0.30178032204E+01 -0.22103206038E+03  0.25918558319E+03  0.92781966156E+02 0.  0.
          5    1    3    3  502    0 -0.11877903427E+03 -0.19726248429E+02 -0.42273135234E+03  0.43956438950E+03  0.41800000000E+01 0. -1.
         -5    1    3    3    0  502  0.20268149410E+02  0.22744051649E+02 -0.44746631647E+02  0.54293859779E+02  0.41800000000E+01 0. -1.
        -11    1    4    4    0    0  0.23194260442E+02 -0.39531877501E+02 -0.44826360465E+02  0.64110417630E+02  0.00000000000E+00 0.  1.
         11    1    4    4    0    0  0.75316624422E+02  0.36514074280E+02 -0.17620569991E+03  0.19507516556E+03  0.00000000000E+00 0. -1.
</event>
<event>
 8    1  0.5951278E-006  0.8684554E+02  0.7561462E-02  0.1310676E+00
         -4   -1    0    0    0  501 -0.00000000000E+00  0.00000000000E+00  0.17810060689E+03  0.17810060689E+03  0.00000000000E+00 0.  1.
          4   -1    0    0  501    0  0.00000000000E+00 -0.00000000000E+00 -0.73319612126E+02  0.73319612126E+02  0.00000000000E+00 0. -1.
         23    2    1    2    0    0 -0.30405035736E+02  0.39730586645E+01  0.38181484330E+02  0.13433180968E+03  0.12508780097E+03 0.  0.
         23    2    1    2    0    0  0.30405035736E+02 -0.39730586645E+01  0.66599510434E+02  0.11708840934E+03  0.91290467293E+02 0.  0.
          5    1    3    3  502    0 -0.21132056180E+02  0.39945962035E+02  0.71213487523E+02  0.84445703778E+02  0.41800000000E+01 0. -1.
         -5    1    3    3    0  502 -0.92729795561E+01 -0.35972903371E+02 -0.33032003193E+02  0.49886105898E+02  0.41800000000E+01 0. -1.
        -11    1    4    4    0    0  0.40003150855E+02 -0.38238556556E+02  0.58630904230E+02  0.80622715264E+02  0.00000000000E+00 0. -1.
         11    1    4    4    0    0 -0.95981151191E+01  0.34265497891E+02  0.79686062040E+01  0.36465694076E+02  0.00000000000E+00 0.  1.
</event>
<event>
 8    1  0.5951278E-006  0.1118439E+03  0.7561462E-02  0.1257193E+00
         -3   -1    0    0    0  501 -0.00000000000E+00  0.00000000000E+00  0.50795388846E+02  0.50795388846E+02  0.00000000000E+00 0.  1.
          3   -1    0    0  501    0  0.00000000000E+00 -0.00000000000E+00 -0.25541280089E+03  0.25541280089E+03  0.00000000000E+00 0. -1.
         23    2    1    2    0    0  0.30771975068E+02 -0.24743522195E+02 -0.11991082134E+03  0.17772414133E+03  0.12509240184E+03 0.  0.
         23    2    1    2    0    0 -0.30771975068E+02  0.24743522195E+02 -0.84706590711E+02  0.12848404841E+03  0.88169086673E+02 0.  0.
          5    1    3    3  502    0  0.73884956157E+02 -0.37723273922E+02 -0.94648036333E+02  0.12592757968E+03  0.41800000000E+01 0. -1.
         -5    1    3    3    0  502 -0.43112981089E+02  0.12979751727E+02 -0.25262785002E+02  0.51796561655E+02  0.41800000000E+01 0. -1.
        -11    1    4    4    0    0 -0.14897073959E+00 -0.31428840666E+02 -0.37767623421E+02  0.49134383040E+02  0.00000000000E+00 0.  1.
         11    1    4    4    0    0 -0.30623004328E+02  0.56172362860E+02 -0.46938967291E+02  0.79349665366E+02  0.00000000000E+00 0. -1.
</event>
<event>
 8    1  0.5951278E-006  0.1009242E+03  0.7561462E-02  0.1278364E+00
         -1   -1    0    0    0  501 -0.00000000000E+00  0.00000000000E+00  0.58049372545E+02  0.58049372545E+02  0.00000000000E+00 0.  1.
          1   -1    0    0  501    0  0.00000000000E+00 -0.00000000000E+00 -0.22514246852E+03  0.22514246852E+03  0.00000000000E+00 0. -1.
         23    2    1    2    0    0  0.12375424156E+02  0.13419368194E+02 -0.91945704266E+02  0.15631909260E+03  0.12509362739E+03 0.  0.
         23    2    1    2    0    0 -0.12375424156E+02 -0.13419368194E+02 -0.75147391710E+02  0.12687274846E+03  0.10057998437E+03 0.  0.
          5    1    3    3  502    0  0.39003710366E+01  0.62271377522E+02 -0.14379532914E+02  0.64165261003E+02  0.41800000000E+01 0. -1.
         -5    1    3    3    0  502  0.84750531192E+01 -0.48852009328E+02 -0.77566171351E+02  0.92153831602E+02  0.41800000000E+01 0. -1.
        -11    1    4    4    0    0  0.24493672545E+01 -0.50014087001E+02 -0.71404193432E+02  0.87212196041E+02  0.00000000000E+00 0.  1.
         11    1    4    4    0    0 -0.14824791410E+02  0.36594718808E+02 -0.37431982777E+01  0.39660552421E+02  0.00000000000E+00 0. -1.
</event>
<event>
 8    1  0.5951278E-006  0.1235758E+03  0.7561462E-02  0.1237312E+00
         -2   -1    0    0    0  501 -0.00000000000E+00  0.00000000000E+00  0.58396131493E+02  0.58396131493E+02  0.00000000000E+00 0.  1.
          2   -1    0    0  501    0  0.00000000000E+00 -0.00000000000E+00 -0.43382681748E+03  0.43382681748E+03  0.00000000000E+00 0. -1.
         23    2    1    2    0    0 -0.32125813482E+02  0.11637081420E+03 -0.22692424033E+03  0.28586222803E+03  0.12509343819E+03 0.  0.
         23    2    1    2    0    0  0.32125813482E+02 -0.11637081420E+03 -0.14850644566E+03  0.20636072094E+03  0.77177383049E+02 0.  0.
          5    1    3    3  502    0 -0.21963609023E+02  0.56140092301E+02 -0.10994461746E+02  0.61420360419E+02  0.41800000000E+01 0. -1.
         -5    1    3    3    0  502 -0.10162204459E+02  0.60230721902E+02 -0.21592977858E+03  0.22444186762E+03  0.41800000000E+01 0. -1.
        -11    1    4    4    0    0  0.37973449708E+02 -0.78767531956E+02 -0.49931008446E+02  0.10069465019E+03  0.00000000000E+00 0. -1.
         11    1    4    4    0    0 -0.58476362254E+01 -0.37603282247E+02 -0.98575437213E+02  0.10566607075E+03  0.00000000000E+00 0.  1.
</event>
<event>
 8    1  0.5951278E-006  0.2022988E+03  0.7561462E-02  0.1147814E+00
          1   -1    0    0  501    0  0.00000000000E+00  0.00000000000E+00  0.31691295182E+03  0.31691295182E+03  0.00000000000E+00 0. -1.
         -1   -1    0    0    0  501 -0.00000000000E+00 -0.00000000000E+00 -0.15155787050E+03  0.15155787050E+03  0.00000000000E+00 0.  1.
         23    2    1    2    0    0 -0.63810639079E+02 -0.16807390139E+03  0.19738342544E+02  0.21990478745E+03  0.12509148407E+03 0.  0.
         23    2    1    2    0    0  0.63810639079E+02  0.16807390139E+03  0.14561673878E+03  0.24856603487E+03  0.90885670445E+02 0.  0.
          5    1    3    3  502    0 -0.54739452722E+01  0.16827914620E+02  0.18542348611E+02  0.25969864830E+02  0.41800000000E+01 0. -1.
         -5    1    3    3    0  502 -0.58336693806E+02 -0.18490181601E+03  0.11959939335E+01  0.19393492262E+03  0.41800000000E+01 0. -1.
        -11    1    4    4    0    0  0.29380625185E+02  0.15140735878E+03  0.14283639431E+03  0.21021333204E+03  0.00000000000E+00 0. -1.
         11    1    4    4    0    0  0.34430013894E+02  0.16666542616E+02  0.27803444698E+01  0.38352702837E+02  0.00000000000E+00 0.  1.
</event>
<event>
 8    1  0.5951278E-006  0.1517697E+03  0.7561462E-02  0.1198315E+00
         -1   -1    0    0    0  501 -0.00000000000E+00  0.00000000000E+00  0.14181686552E+03  0.14181686552E+03  0.00000000000E+00 0.  1.
          1   -1    0    0  501    0  0.00000000000E+00 -0.00000000000E+00 -0.29666200288E+03  0.29666200288E+03  0.00000000000E+00 0. -1.
         23    2    1    2    0    0  0.88145810574E+02  0.76010676005E+02  0.56742555424E+02  0.18000594161E+03  0.12504045198E+03 0.  0.
         23    2    1    2    0    0 -0.88145810574E+02 -0.76010676005E+02 -0.21158769278E+03  0.25847292679E+03  0.92149852715E+02 0.  0.
          5    1    3    3  502    0 -0.25414058131E+02  0.97951434727E+01 -0.13738273523E+02  0.30790124159E+02  0.41800000000E+01 0.  1.
         -5    1    3    3    0  502  0.11355986871E+03  0.66215532532E+02  0.70480828947E+02  0.14921581745E+03  0.41800000000E+01 0.  1.
        -11    1    4    4    0    0 -0.83234959686E+02 -0.16630616626E+02 -0.15267049178E+03  0.17467946354E+03  0.00000000000E+00 0. -1.
         11    1    4    4    0    0 -0.49108508888E+01 -0.59380059379E+02 -0.58917201006E+02  0.83793463245E+02  0.00000000000E+00 0.  1.
</event>
<event>
 8    1  0.5951278E-006  0.5885708E+02  0.7561462E-02  0.1402692E+00
         -1   -1    0    0    0  501 -0.00000000000E+00  0.00000000000E+00  0.14257031934E+03  0.14257031934E+03  0.00000000000E+00 0.  1.
          1   -1    0    0  501    0  0.00000000000E+00 -0.00000000000E+00 -0.93062862137E+02  0.93062862137E+02  0.00000000000E+00 0. -1.
         23    2    1    2    0    0 -0.14304082411E+02 -0.82941127438E+01  0.64549163675E+02  0.14173222057E+03  0.12509208103E+03 0.  0.
         23    2    1    2    0    0  0.14304082411E+02  0.82941127438E+01 -0.15041706473E+02  0.93900960910E+02  0.91201636205E+02 0.  0.
          5    1    3    3  502    0  0.10318001524E+01 -0.23369839527E+02  0.98500497474E+02  0.10132637571E+03  0.41800000000E+01 0. -1.
         -5    1    3    3    0  502 -0.15335882563E+02  0.15075726783E+02 -0.33951333800E+02  0.40405844859E+02  0.41800000000E+01 0. -1.
        -11    1    4    4    0    0  0.25461528870E+02 -0.25753066742E+02 -0.37084885022E+02  0.51834338002E+02  0.00000000000E+00 0. -1.
         11    1    4    4    0    0 -0.11157446459E+02  0.34047179485E+02  0.22043178549E+02  0.42066622909E+02  0.00000000000E+00 0.  1.
</event>
<event>
 8    1  0.5951278E-006  0.1394027E+03  0.7561462E-02  0.1214135E+00
         -2   -1    0    0    0  501 -0.00000000000E+00  0.00000000000E+00  0.18263859055E+04  0.18263859055E+04  0.00000000000E+00 0.  1.
          2   -1    0    0  501    0  0.00000000000E+00 -0.00000000000E+00 -0.13929911673E+02  0.13929911673E+02  0.00000000000E+00 0. -1.
         23    2    1    2    0    0 -0.32718495935E+02 -0.90179969547E+02  0.13665353095E+04  0.13755978283E+04  0.12509079201E+03 0.  0.
         23    2    1    2    0    0  0.32718495935E+02  0.90179969547E+02  0.44592068441E+03  0.46471798895E+03  0.88964181469E+02 0.  0.
          5    1    3    3  502    0  0.36802130491E+02 -0.26873439627E+01  0.17917198563E+03  0.18298003023E+03  0.41800000000E+01 0.  1.
         -5    1    3    3    0  502 -0.69520626426E+02 -0.87492625584E+02  0.11873633238E+04  0.11926177980E+04  0.41800000000E+01 0.  1.
        -11    1    4    4    0    0  0.62266684469E+02  0.49406924311E+02  0.30008560317E+03  0.31043445910E+03  0.00000000000E+00 0. -1.
         11    1    4    4    0    0 -0.29548188535E+02  0.40773045236E+02  0.14583508124E+03  0.15428352985E+03  0.00000000000E+00 0.  1.
</event>
<event>
 8    1  0.5951278E-006  0.1894967E+03  0.7561462E-02  0.1158916E+00
          1   -1    0    0  501    0  0.00000000000E+00  0.00000000000E+00  0.10123281434E+04  0.10123281434E+04  0.00000000000E+00 0. -1.
         -1   -1    0    0    0  501 -0.00000000000E+00 -0.00000000000E+00 -0.49171503878E+02  0.49171503878E+02  0.00000000000E+00 0.  1.
         23    2    1    2    0    0 -0.14682859286E+03 -0.11227577809E+03  0.33656910330E+03  0.40384392007E+03  0.12508662781E+03 0.  0.
         23    2    1    2    0    0  0.14682859286E+03  0.11227577809E+03  0.62658753622E+03  0.65765572721E+03  0.75727332940E+02 0.  0.
          5    1    3    3  502    0 -0.79986881722E+02 -0.53529851684E+02  0.28514867057E+03  0.30098269551E+03  0.41800000000E+01 0.  1.
         -5    1    3    3    0  502 -0.66841711133E+02 -0.58745926405E+02  0.51420432735E+02  0.10286122457E+03  0.41800000000E+01 0.  1.
        -11    1    4    4    0    0  0.53671740917E+02  0.77210069912E+02  0.22381051186E+03  0.24276160299E+03  0.00000000000E+00 0. -1.
         11    1    4    4    0    0  0.93156851938E+02  0.35065708177E+02  0.40277702437E+03  0.41489412422E+03  0.00000000000E+00 0.  1.
</event>
<event>
 8    1  0.5951278E-006  0.1142322E+03  0.7561462E-02  0.1252927E+00
          3   -1    0    0  501    0  0.00000000000E+00  0.00000000000E+00  0.33960202808E+02  0.33960202808E+02  0.00000000000E+00 0. -1.
         -3   -1    0    0    0  501 -0.00000000000E+00 -0.00000000000E+00 -0.53266262886E+03  0.53266262886E+03  0.00000000000E+00 0.  1.
         23    2    1    2    0    0 -0.26927455766E+02  0.57457695458E+02 -0.37564732135E+03  0.40098159997E+03  0.12509539892E+03 0.  0.
         23    2    1    2    0    0  0.26927455766E+02 -0.57457695458E+02 -0.12305510470E+03  0.16564123171E+03  0.90928456527E+02 0.  0.
          5    1    3    3  502    0 -0.22756503900E+02  0.95236552733E+02 -0.30869562375E+03  0.32388010122E+03  0.41800000000E+01 0.  1.
         -5    1    3    3    0  502 -0.41709518666E+01 -0.37778857275E+02 -0.66951697605E+02  0.77101498745E+02  0.41800000000E+01 0.  1.
        -11    1    4    4    0    0 -0.78063635679E+01 -0.56950053702E+02 -0.27019509127E+02  0.63516153869E+02  0.00000000000E+00 0. -1.
         11    1    4    4    0    0  0.34733819334E+02 -0.50764175554E+00 -0.96035595575E+02  0.10212507784E+03  0.00000000000E+00 0.  1.
</event>
<event>
 8    1  0.5951278E-006  0.1206095E+03  0.7561462E-02  0.1242095E+00
          1   -1    0    0  501    0  0.00000000000E+00  0.00000000000E+00  0.23141746451E+03  0.23141746451E+03  0.00000000000E+00 0. -1.
         -1   -1    0    0    0  501 -0.00000000000E+00 -0.00000000000E+00 -0.94992780967E+02  0.94992780967E+02  0.00000000000E+00 0.  1.
         23    2    1    2    0    0 -0.66619240474E+02  0.76067310045E+02  0.81715778418E+02  0.18041223676E+03  0.12508696124E+03 0.  0.
         23    2    1    2    0    0  0.66619240474E+02 -0.76067310045E+02  0.54708905128E+02  0.14599800872E+03  0.89988862592E+02 0.  0.
          5    1    3    3  502    0 -0.33532196704E+02  0.16503572697E+02 -0.30932747482E+02  0.48693771617E+02  0.41800000000E+01 0.  1.
         -5    1    3    3    0  502 -0.33087043770E+02  0.59563737348E+02  0.11264852590E+03  0.13171846514E+03  0.41800000000E+01 0.  1.
        -11    1    4    4    0    0  0.88102324409E+02 -0.49069265878E+02  0.41613827306E+02  0.10909410178E+03  0.00000000000E+00 0.  1.
         11    1    4    4    0    0 -0.21483083935E+02 -0.26998044167E+02  0.13095077823E+02  0.36903906939E+02  0.00000000000E+00 0. -1.
</event>
<event>
 8    1  0.5951278E-006  0.1303844E+03  0.7561462E-02  0.1226886E+00
         -2   -1    0    0    0  501 -0.00000000000E+00  0.00000000000E+00  0.25006318703E+02  0.25006318703E+02  0.00000000000E+00 0.  1.
          2   -1    0    0  501    0  0.00000000000E+00 -0.00000000000E+00 -0.93880904191E+03  0.93880904191E+03  0.00000000000E+00 0. -1.
         23    2    1    2    0    0 -0.10833872503E+03 -0.34566727710E+01 -0.38449108056E+03  0.41861153933E+03  0.12511195748E+03 0.  0.
         23    2    1    2    0    0  0.10833872503E+03  0.34566727710E+01 -0.52931164264E+03  0.54520382128E+03  0.72987421991E+02 0.  0.
          5    1    3    3  502    0 -0.12486820032E+03  0.10707571063E+02 -0.37326496030E+03  0.39376506005E+03  0.41800000000E+01 0.  1.
         -5    1    3    3    0  502  0.16529475290E+02 -0.14164243834E+02 -0.11226120263E+02  0.24846479286E+02  0.41800000000E+01 0.  1.
        -11    1    4    4    0    0  0.78471571800E+02 -0.12313855191E+02 -0.47234514194E+03  0.47897740210E+03  0.00000000000E+00 0. -1.
         11    1    4    4    0    0  0.29867153229E+02  0.15770527962E+02 -0.56966500703E+02  0.66226419173E+02  0.00000000000E+00 0.  1.
</event>
<event>
 8    1  0.5951278E-006  0.8389209E+02  0.7561462E-02  0.1318356E+00
         -2   -1    0    0    0  501 -0.00000000000E+00  0.00000000000E+00  0.54404713809E+03  0.54404713809E+03  0.00000000000E+00 0.  1.
          2   -1    0    0  501    0  0.00000000000E+00 -0.00000000000E+00 -0.31376390210E+02  0.31376390210E+02  0.00000000000E+00 0. -1.
         23    2    1    2    0    0  0.28526025639E+02 -0.51748262793E+02  0.36869578620E+03  0.39379758907E+03  0.12509333140E+03 0.  0.
         23    2    1    2    0    0 -0.28526025639E+02  0.51748262793E+02  0.14397496169E+03  0.18162593923E+03  0.93635331833E+02 0.  0.
          5    1    3    3  502    0  0.16419762042E+02 -0.25857027336E+02  0.36305176728E+03  0.36436554801E+03  0.41800000000E+01 0. -1.
         -5    1    3    3    0  502  0.12106263597E+02 -0.25891235457E+02  0.56440189145E+01  0.29432041066E+02  0.41800000000E+01 0. -1.
        -11    1    4    4    0    0  0.22977291487E+02 -0.12087381684E+02  0.19136439603E+02  0.32253124511E+02  0.00000000000E+00 0. -1.
         11    1    4    4    0    0 -0.51503317127E+02  0.63835644477E+02  0.12483852208E+03  0.14937281472E+03  0.00000000000E+00 0.  1.
</event>
<event>
 8    1  0.5951278E-006  0.1380067E+03  0.7561462E-02  0.1216036E+00
         -2   -1    0    0    0  501 -0.00000000000E+00  0.00000000000E+00  0.41945013885E+02  0.41945013885E+02  0.00000000000E+00 0.  1.
          2   -1    0    0  501    0  0.00000000000E+00 -0.00000000000E+00 -0.65199459242E+03  0.65199459242E+03  0.00000000000E+00 0. -1.
         23    2    1    2    0    0  0.54458730317E+02 -0.10267936891E+03 -0.23259075340E+03  0.28853828439E+03  0.12508827636E+03 0.  0.
         23    2    1    2    0    0 -0.54458730317E+02  0.10267936891E+03 -0.37745882514E+03  0.40540132192E+03  0.91467267549E+02 0.  0.
          5    1    3    3  502    0 -0.94050979075E+01 -0.39471789108E+02 -0.17952412169E+03  0.18410013762E+03  0.41800000000E+01 0.  1.
         -5    1    3    3    0  502  0.63863828224E+02 -0.63207579802E+02 -0.53066631710E+02  0.10443814677E+03  0.41800000000E+01 0.  1.
        -11    1    4    4    0    0 -0.70228260882E+02  0.40387042066E+02 -0.17190673663E+03  0.19003959559E+03  0.00000000000E+00 0.  1.
         11    1    4    4    0    0  0.15769530565E+02  0.62292326843E+02 -0.20555208851E+03  0.21536172634E+03  0.00000000000E+00 0. -1.
</event>
<event>
 8    1  0.5951278E-006  0.6987417E+02  0.7561462E-02  0.1360521E+00
          1   -1    0    0  501    0  0.00000000000E+00  0.00000000000E+00  0.51270723580E+02  0.51270723580E+02  0.00000000000E+00 0. -1.
         -1   -1    0    0    0  501 -0.00000000000E+00 -0.00000000000E+00 -0.22913000486E+03  0.22913000486E+03  0.00000000000E+00 0.  1.
         23    2    1    2    0    0  0.15898507914E+02  0.12992949602E+02 -0.10094999235E+03  0.16204941008E+03  0.12509009177E+03 0.  0.
         23    2    1    2    0    0 -0.15898507914E+02 -0.12992949602E+02 -0.76909288933E+02  0.11835131836E+03  0.87580914252E+02 0.  0.
          5    1    3    3  502    0 -0.22759746076E+02 -0.23848898060E+02 -0.10321874418E+03  0.10843596050E+03  0.41800000000E+01 0. -1.
         -5    1    3    3    0  502  0.38658253990E+02  0.36841847662E+02  0.22687518288E+01  0.53613449577E+02  0.41800000000E+01 0. -1.
        -11    1    4    4    0    0 -0.25807877949E+02  0.10185278043E+02  0.87245351161E+01  0.29084428240E+02  0.00000000000E+00 0. -1.
         11    1    4    4    0    0  0.99093700353E+01 -0.23178227645E+02 -0.85633824049E+02  0.89266890125E+02  0.00000000000E+00 0.  1.
</event>
<event>
 8    1  0.5951278E-006  0.1078821E+03  0.7561462E-02  0.1264543E+00
          2   -1    0    0  501    0  0.00000000000E+00  0.00000000000E+00  0.27226850276E+02  0.27226850276E+02  0.00000000000E+00 0.  1.
         -2   -1    0    0    0  501 -0.00000000000E+00 -0.00000000000E+00 -0.44650133795E+03  0.44650133795E+03  0.00000000000E+00 0. -1.
         23    2    1    2    0    0  0.59315115193E+01  0.18497549748E+02 -0.26522787781E+03  0.29389072120E+03  0.12509431109E+03 0.  0.
         23    2    1    2    0    0 -0.59315115193E+01 -0.18497549748E+02 -0.15404660986E+03  0.17983746702E+03  0.90740367858E+02 0.  0.
          5    1    3    3  502    0  0.53922297846E+02  0.44022492643E+02 -0.17618498065E+03  0.18948407287E+03  0.41800000000E+01 0.  1.
         -5    1    3    3    0  502 -0.47990786327E+02 -0.25524942896E+02 -0.89042897158E+02  0.10440664833E+03  0.41800000000E+01 0.  1.
        -11    1    4    4    0    0  0.37538128933E+02  0.10835450640E+02 -0.80835313226E+02  0.89782325536E+02  0.00000000000E+00 0. -1.
         11    1    4    4    0    0 -0.43469640452E+02 -0.29333000388E+02 -0.73211296635E+02  0.90055141485E+02  0.00000000000E+00 0.  1.
</event>
<event>
 8    1  0.5951278E-006  0.9723542E+02  0.7561462E-02  0.1286219E+00
          2   -1    0    0  501    0  0.00000000000E+00  0.00000000000E+00  0.60074286655E+02  0.60074286655E+02  0.00000000000E+00 0. -1.
         -2   -1    0    0    0  501 -0.00000000000E+00 -0.00000000000E+00 -0.41564692384E+03  0.41564692384E+03  0.00000000000E+00 0.  1.
         23    2    1    2    0    0 -0.62347066672E+02  0.80326598627E+01 -0.34832475213E+03  0.37558007747E+03  0.12561282299E+03 0.  0.
         23    2    1    2    0    0  0.62347066672E+02 -0.80326598627E+01 -0.72478850499E+01  0.10014113302E+03  0.77614652855E+02 0.  0.
          5    1    3    3  502    0  0.29838580938E+02  0.12533001315E+02 -0.30746487704E+02  0.44835654791E+02  0.41800000000E+01 0. -1.
         -5    1    3    3    0  502 -0.92185647610E+02 -0.45003414521E+01 -0.31757826443E+03  0.33074442268E+03  0.41800000000E+01 0.  1.
        -11    1    4    4    0    0  0.48614769567E+02  0.69674358649E+01 -0.38809565275E+02  0.62594914645E+02  0.00000000000E+00 0. -1.
         11    1    4    4    0    0  0.13732297105E+02 -0.15000095728E+02  0.31561680225E+02  0.37546218375E+02  0.00000000000E+00 0.  1.
</event>
<event>
 8    1  0.5951278E-006  0.1320482E+03  0.7561462E-02  0.1224448E+00
          1   -1    0    0  501    0  0.00000000000E+00  0.00000000000E+00  0.71233159842E+02  0.71233159842E+02  0.00000000000E+00 0. -1.
         -1   -1    0    0    0  501 -0.00000000000E+00 -0.00000000000E+00 -0.32152307052E+03  0.32152307052E+03  0.00000000000E+00 0.  1.
         23    2    1    2    0    0 -0.29024810334E+02  0.10016423860E+03 -0.16101651653E+03  0.22901945449E+03  0.12509307587E+03 0.  0.
         23    2    1    2    0    0  0.29024810334E+02 -0.10016423860E+03 -0.89273394142E+02  0.16373677586E+03  0.89245047809E+02 0.  0.
          5    1    3    3  502    0  0.41041026596E+02  0.65113757279E+02 -0.45909086710E+02  0.89717801431E+02  0.41800000000E+01 0. -1.
         -5    1    3    3    0  502 -0.70065836930E+02  0.35050481325E+02 -0.11510742982E+03  0.13930165306E+03  0.41800000000E+01 0. -1.
        -11    1    4    4    0    0 -0.46127949662E+01 -0.34237485376E+02 -0.82468618602E+02  0.89412282917E+02  0.00000000000E+00 0.  1.
         11    1    4    4    0    0  0.33637605301E+02 -0.65926753228E+02 -0.68047755394E+01  0.74324492947E+02  0.00000000000E+00 0. -1.
</event>
<event>
 8    1  0.5951278E-006  0.1152611E+03  0.7561462E-02  0.1251126E+00
         -1   -1    0    0    0  501 -0.00000000000E+00  0.00000000000E+00  0.19020175622E+03  0.19020175622E+03  0.00000000000E+00 0.  1.
          1   -1    0    0  501    0  0.00000000000E+00 -0.00000000000E+00 -0.75922330984E+02  0.75922330984E+02  0.00000000000E+00 0. -1.
         23    2    1    2    0    0  0.38531501619E+02 -0.12213197654E+02  0.97567039680E+02  0.16370494758E+03  0.12508454667E+03 0.  0.
         23    2    1    2    0    0 -0.38531501619E+02  0.12213197654E+02  0.16712385557E+02  0.10241913963E+03  0.92609597326E+02 0.  0.
          5    1    3    3  502    0 -0.53710823747E+01  0.52060823097E+02  0.49301128285E+02  0.72022576166E+02  0.41800000000E+01 0. -1.
         -5    1    3    3    0  502  0.43902583994E+02 -0.64274020751E+02  0.48265911395E+02  0.91682371412E+02  0.41800000000E+01 0. -1.
        -11    1    4    4    0    0 -0.13516426385E+01 -0.37759003362E+02  0.13241699716E+02  0.40036382005E+02  0.00000000000E+00 0.  1.
         11    1    4    4    0    0 -0.37179858981E+02  0.49972201016E+02  0.34706858411E+01  0.62382757621E+02  0.00000000000E+00 0. -1.
</event>
<event>
 8    1  0.5951278E-006  0.1063196E+03  0.7561462E-02  0.1267541E+00
          3   -1    0    0  501    0  0.00000000000E+00  0.00000000000E+00  0.10607881764E+03  0.10607881764E+03  0.00000000000E+00 0. -1.
         -3   -1    0    0    0  501 -0.00000000000E+00 -0.00000000000E+00 -0.12496165788E+03  0.12496165788E+03  0.00000000000E+00 0.  1.
         23    2    1    2    0    0 -0.80768073024E+01 -0.18277166702E+01 -0.37272182863E+02  0.13078855707E+03  0.12509138931E+03 0.  0.
         23    2    1    2    0    0  0.80768073024E+01  0.18277166702E+01  0.18389342623E+02  0.10025191846E+03  0.98202361829E+02 0.  0.
          5    1    3    3  502    0  0.46170349368E+01  0.59934279497E+02 -0.29595133883E+02  0.67132549632E+02  0.41800000000E+01 0. -1.
         -5    1    3    3    0  502 -0.12693842239E+02 -0.61761996168E+02 -0.76770489801E+01  0.63656007434E+02  0.41800000000E+01 0. -1.
        -11    1    4    4    0    0  0.22986299878E+02 -0.39253062279E+02  0.30663639938E+02  0.54858287383E+02  0.00000000000E+00 0. -1.
         11    1    4    4    0    0 -0.14909492576E+02  0.41080778950E+02 -0.12274297314E+02  0.45393631079E+02  0.00000000000E+00 0.  1.
</event>
<event>
 8    1  0.5951278E-006  0.1239698E+03  0.7561462E-02  0.1236688E+00
         -1   -1    0    0    0  501 -0.00000000000E+00  0.00000000000E+00  0.11727271496E+03  0.11727271496E+03  0.00000000000E+00 0.  1.
          1   -1    0    0  501    0  0.00000000000E+00 -0.00000000000E+00 -0.17049392782E+03  0.17049392782E+03  0.00000000000E+00 0. -1.
         23    2    1    2    0    0  0.23521074668E+02 -0.62784930651E+02  0.32741758208E+02  0.14565261401E+03  0.12508985877E+03 0.  0.
         23    2    1    2    0    0 -0.23521074668E+02  0.62784930651E+02 -0.85962971070E+02  0.14211402878E+03  0.91167846907E+02 0.  0.
          5    1    3    3  502    0 -0.16794087573E+02  0.30940379170E+02 -0.68949148497E+01  0.36115934038E+02  0.41800000000E+01 0. -1.
         -5    1    3    3    0  502  0.40315162241E+02 -0.93725309822E+02  0.39636673058E+02  0.10953667997E+03  0.41800000000E+01 0. -1.
        -11    1    4    4    0    0 -0.41937314369E+02 -0.30151598029E+01 -0.17985883847E+02  0.45730969188E+02  0.00000000000E+00 0.  1.
         11    1    4    4    0    0  0.18416239700E+02  0.65800090454E+02 -0.67977087223E+02  0.96383059589E+02  0.00000000000E+00 0. -1.
</event>
<event>
 8    1  0.5951278E-006  0.1486471E+03  0.7561462E-02  0.1202145E+00
          2   -1    0    0  501    0  0.00000000000E+00  0.00000000000E+00  0.10458099311E+04  0.10458099311E+04  0.00000000000E+00 0. -1.
         -2   -1    0    0    0  501 -0.00000000000E+00 -0.00000000000E+00 -0.22135160244E+02  0.22135160244E+02  0.00000000000E+00 0.  1.
         23    2    1    2    0    0  0.98144499619E+02  0.39736424585E+02  0.52966107033E+03  0.55443408927E+03  0.12507990915E+03 0.  0.
         23    2    1    2    0    0 -0.98144499619E+02 -0.39736424585E+02  0.49401370049E+03  0.51351100204E+03  0.91829661342E+02 0.  0.
          5    1    3    3  502    0  0.25940629545E+02 -0.44238444853E+02  0.20582004966E+03  0.21215400422E+03  0.41800000000E+01 0. -1.
         -5    1    3    3    0  502  0.72203870074E+02  0.83974869437E+02  0.32384102067E+03  0.34228008505E+03  0.41800000000E+01 0. -1.
        -11    1    4    4    0    0 -0.36817248216E-01 -0.36864144425E+02  0.20494221559E+03  0.20823130944E+03  0.00000000000E+00 0.  1.
         11    1    4    4    0    0 -0.98107682371E+02 -0.28722801599E+01  0.28907148489E+03  0.30527969259E+03  0.00000000000E+00 0. -1.
</event>
<event>
 8    1  0.5951278E-006  0.1107023E+03  0.7561462E-02  0.1259275E+00
          2   -1    0    0  501    0  0.00000000000E+00  0.00000000000E+00  0.15735491717E+03  0.15735491717E+03  0.00000000000E+00 0. -1.
         -2   -1    0    0    0  501 -0.00000000000E+00 -0.00000000000E+00 -0.10809071546E+03  0.10809071546E+03  0.00000000000E+00 0.  1.
         23    2    1    2    0    0  0.68866946664E+02 -0.84687605917E+00  0.29350325511E+01  0.14282138394E+03  0.12508381092E+03 0.  0.
         23    2    1    2    0    0 -0.68866946664E+02  0.84687605917E+00  0.46329169165E+02  0.12262424869E+03  0.90260406097E+02 0.  0.
          5    1    3    3  502    0  0.88790580334E+02 -0.25030487453E+02  0.34090519741E+02  0.98437433908E+02  0.41800000000E+01 0. -1.
         -5    1    3    3    0  502 -0.19923633670E+02  0.24183611394E+02 -0.31155487189E+02  0.44383950035E+02  0.41800000000E+01 0. -1.
        -11    1    4    4    0    0 -0.24340866078E+01  0.26221021263E+02 -0.13588865977E+02  0.29633157311E+02  0.00000000000E+00 0.  1.
         11    1    4    4    0    0 -0.66432860056E+02 -0.25374145203E+02  0.59918035142E+02  0.92991091376E+02  0.00000000000E+00 0. -1.
</event>
<event>
 8    1  0.5951278E-006  0.8874945E+02  0.7561462E-02  0.1305909E+00
         -2   -1    0    0    0  501 -0.00000000000E+00  0.00000000000E+00  0.28898145491E+03  0.28898145491E+03  0.00000000000E+00 0.  1.
          2   -1    0    0  501    0  0.00000000000E+00 -0.00000000000E+00 -0.61314594075E+02  0.61314594075E+02  0.00000000000E+00 0. -1.
         23    2    1    2    0    0 -0.17230217582E+02  0.43289327802E+02  0.21750254211E+03  0.25519800105E+03  0.12509123717E+03 0.  0.
         23    2    1    2    0    0  0.17230217582E+02 -0.43289327802E+02  0.10164318729E+02  0.95098047937E+02  0.82276843928E+02 0.  0.
          5    1    3    3  502    0 -0.45006267848E+02  0.63019873162E+01  0.20067588528E+03  0.20579981177E+03  0.41800000000E+01 0. -1.
         -5    1    3    3    0  502  0.27776050266E+02  0.36987340486E+02  0.16826656826E+02  0.49398189284E+02  0.41800000000E+01 0. -1.
        -11    1    4    4    0    0  0.41761329889E+02 -0.81283519849E+01 -0.15324407229E+02  0.45220750071E+02  0.00000000000E+00 0. -1.
         11    1    4    4    0    0 -0.24531112307E+02 -0.35160975817E+02  0.25488725958E+02  0.49877297866E+02  0.00000000000E+00 0.  1.
</event>
<event>
 8    1  0.5951278E-006  0.1436533E+03  0.7561462E-02  0.1208496E+00
         -1   -1    0    0    0  501 -0.00000000000E+00  0.00000000000E+00  0.11102462690E+03  0.11102462690E+03  0.00000000000E+00 0.  1.
          1   -1    0    0  501    0  0.00000000000E+00 -0.00000000000E+00 -0.38482474196E+03  0.38482474196E+03  0.00000000000E+00 0. -1.
         23    2    1    2    0    0 -0.52766864086E+02 -0.12291211496E+03 -0.29560864129E+01  0.18316776111E+03  0.12509980141E+03 0.  0.
         23    2    1    2    0    0  0.52766864086E+02  0.12291211496E+03 -0.27084402865E+03  0.31268160776E+03  0.80756238290E+02 0.  0.
          5    1    3    3  502    0 -0.19816494506E+02 -0.38847574505E+02 -0.61476259032E+02  0.75489272907E+02  0.41800000000E+01 0. -1.
         -5    1    3    3    0  502 -0.32950369580E+02 -0.84064540457E+02  0.58520172619E+02  0.10767848820E+03  0.41800000000E+01 0. -1.
        -11    1    4    4    0    0 -0.59061842558E+01  0.80488326853E+02 -0.11133517021E+03  0.13750917751E+03  0.00000000000E+00 0.  1.
         11    1    4    4    0    0  0.58673048342E+02  0.42423788110E+02 -0.15950885844E+03  0.17517243025E+03  0.00000000000E+00 0. -1.
</event>
<event>
 8    1  0.5951278E-006  0.1313527E+03  0.7561462E-02  0.1225462E+00
         -2   -1    0    0    0  501 -0.00000000000E+00  0.00000000000E+00  0.24091492816E+03  0.24091492816E+03  0.00000000000E+00 0.  1.
          2   -1    0    0  501    0  0.00000000000E+00 -0.00000000000E+00 -0.10947577272E+03  0.10947577272E+03  0.00000000000E+00 0. -1.
         23    2    1    2    0    0  0.13798865298E+02 -0.12041169392E+03  0.68636934853E+02  0.18721196300E+03  0.12509158864E+03 0.  0.
         23    2    1    2    0    0 -0.13798865298E+02  0.12041169392E+03  0.62802220588E+02  0.16317873787E+03  0.89408035801E+02 0.  0.
          5    1    3    3  502    0  0.30717115362E+02 -0.11985289486E+03  0.94692823819E+02  0.15586038902E+03  0.41800000000E+01 0.  1.
         -5    1    3    3    0  502 -0.16918250064E+02 -0.55879906424E+00 -0.26055888966E+02  0.31351573987E+02  0.41800000000E+01 0.  1.
        -11    1    4    4    0    0 -0.93192939063E+01  0.46481974007E+02 -0.20554198684E+02  0.51671057954E+02  0.00000000000E+00 0. -1.
         11    1    4    4    0    0 -0.44795713916E+01  0.73929719914E+02  0.83356419273E+02  0.11150767992E+03  0.00000000000E+00 0.  1.
</event>
<event>
 8    1  0.5951278E-006  0.9700799E+02  0.7561462E-02  0.1286717E+00
          1   -1    0    0  501    0  0.00000000000E+00  0.00000000000E+00  0.33465633777E+03  0.33465633777E+03  0.00000000000E+00 0. -1.
         -1   -1    0    0    0  501 -0.00000000000E+00 -0.00000000000E+00 -0.52858377387E+02  0.52858377387E+02  0.00000000000E+00 0.  1.
         23    2    1    2    0    0 -0.67072974062E+02  0.12537220403E+02  0.10421861157E+03  0.17653773494E+03  0.12509231437E+03 0.  0.
         23    2    1    2    0    0  0.67072974062E+02 -0.12537220403E+02  0.17757934881E+03  0.21097698021E+03  0.91218941626E+02 0.  0.
          5    1    3    3  502    0  0.79900118572E+01 -0.21832202386E+02 -0.17503996711E+02  0.29399789988E+02  0.41800000000E+01 0.  1.
         -5    1    3    3    0  502 -0.75062985920E+02  0.34369422789E+02  0.12172260828E+03  0.14713794495E+03  0.41800000000E+01 0.  1.
        -11    1    4    4    0    0  0.18055410892E+01 -0.21743428992E+02  0.12436281874E+03  0.12626221670E+03  0.00000000000E+00 0. -1.
         11    1    4    4    0    0  0.65267432973E+02  0.92062085883E+01  0.53216530075E+02  0.84714763511E+02  0.00000000000E+00 0.  1.
</event>
<event>
 8    1  0.5951278E-006  0.1036606E+03  0.7561462E-02  0.1272781E+00
          1   -1    0    0  501    0  0.00000000000E+00  0.00000000000E+00  0.54425018819E+02  0.54425018819E+02  0.00000000000E+00 0. -1.
         -1   -1    0    0    0  501 -0.00000000000E+00 -0.00000000000E+00 -0.39688362687E+03  0.39688362687E+03  0.00000000000E+00 0.  1.
         23    2    1    2    0    0  0.82293690000E+02 -0.22945081015E+02 -0.26505016848E+03  0.30528474840E+03  0.12509379538E+03 0.  0.
         23    2    1    2    0    0 -0.82293690000E+02  0.22945081015E+02 -0.77408439571E+02  0.14602389728E+03  0.89622452006E+02 0.  0.
          5    1    3    3  502    0  0.32049522160E+02 -0.50693407342E+02 -0.38156944527E+02  0.71206869292E+02  0.41800000000E+01 0. -1.
         -5    1    3    3    0  502  0.50244167839E+02  0.27748326327E+02 -0.22689322395E+03  0.23407787911E+03  0.41800000000E+01 0. -1.
        -11    1    4    4    0    0 -0.66167589901E+02  0.62854284930E+01 -0.95682328192E+02  0.11650220810E+03  0.00000000000E+00 0.  1.
         11    1    4    4    0    0 -0.16126100099E+02  0.16659652522E+02  0.18273888621E+02  0.29521689177E+02  0.00000000000E+00 0. -1.
</event>
<event>
 8    1  0.5951278E-006  0.1052936E+03  0.7561462E-02  0.1269542E+00
         -1   -1    0    0    0  501 -0.00000000000E+00  0.00000000000E+00  0.10682343981E+03  0.10682343981E+03  0.00000000000E+00 0.  1.
          1   -1    0    0  501    0  0.00000000000E+00 -0.00000000000E+00 -0.12005297707E+03  0.12005297707E+03  0.00000000000E+00 0. -1.
         23    2    1    2    0    0 -0.30171781019E+02 -0.45445250846E+01  0.10611154656E+02  0.12462110801E+03  0.12036126819E+03 0.  0.
         23    2    1    2    0    0  0.30171781019E+02  0.45445250846E+01 -0.23840691922E+02  0.10225530887E+03  0.94640269035E+02 0.  0.
          5    1    3    3  502    0 -0.68630758832E+02  0.18144141434E+02 -0.15422284385E+02  0.72764759203E+02  0.41800000000E+01 0. -1.
         -5    1    3    3    0  502  0.38458977813E+02 -0.22688666519E+02  0.26033439041E+02  0.51856348802E+02  0.41800000000E+01 0.  1.
        -11    1    4    4    0    0  0.50685450015E+02  0.32308780443E+02  0.34028710528E+00  0.60108135325E+02  0.00000000000E+00 0.  1.
         11    1    4    4    0    0 -0.20513668996E+02 -0.27764255359E+02 -0.24180979027E+02  0.42147173547E+02  0.00000000000E+00 0. -1.
</event>
<event>
 8    1  0.5951278E-006  0.1114333E+03  0.7561462E-02  0.1257938E+00
         -2   -1    0    0    0  501 -0.00000000000E+00  0.00000000000E+00  0.59307359121E+02  0.59307359121E+02  0.00000000000E+00 0.  1.
          2   -1    0    0  501    0  0.00000000000E+00 -0.00000000000E+00 -0.23323883317E+03  0.23323883317E+03  0.00000000000E+00 0. -1.
         23    2    1    2    0    0  0.27573415414E+02  0.30164310579E+02 -0.73119890909E+02  0.15055132026E+03  0.12509597402E+03 0.  0.
         23    2    1    2    0    0 -0.27573415414E+02 -0.30164310579E+02 -0.10081158314E+03  0.14199487203E+03  0.91265489187E+02 0.  0.
          5    1    3    3  502    0 -0.17346335588E+02 -0.42063206208E+02 -0.33324639335E+02  0.56552742300E+02  0.41800000000E+01 0.  1.
         -5    1    3    3    0  502  0.44919751003E+02  0.72227516787E+02 -0.39795251574E+02  0.93998577964E+02  0.41800000000E+01 0.  1.
        -11    1    4    4    0    0 -0.23399271839E+02 -0.58692272582E+02 -0.92442825934E+02  0.11197314343E+03  0.00000000000E+00 0. -1.
         11    1    4    4    0    0 -0.41741435748E+01  0.28527962003E+02 -0.83687572043E+01  0.30021728594E+02  0.00000000000E+00 0.  1.
</event>
<event>
 7    1  0.5951278E-006  0.1259504E+03  0.7561462E-02  0.1233591E+00
          3   -1    0    0  501    0  0.00000000000E+00  0.00000000000E+00  0.10397709613E+03  0.10397709613E+03  0.00000000000E+00 0. -1.
         -3   -1    0    0    0  501 -0.00000000000E+00 -0.00000000000E+00 -0.53792535839E+03  0.53792535839E+03  0.00000000000E+00 0.  1.
         23    2    1    2    0    0 -0.78148974883E+02 -0.74110800170E+00  0.47888308070E+02  0.12613593161E+03  0.86655476899E+02 0.  0.
          5    1    1    2  502    0 -0.43275725528E+02  0.25752936215E+01 -0.46164714075E+02  0.63467107881E+02  0.41800000000E+01 0. -1.
         -5    1    1    2    0  502  0.12142470041E+03 -0.18341856198E+01 -0.43567185626E+03  0.45229941503E+03  0.41800000000E+01 0.  1.
        -11    1    3    3    0    0 -0.68107266951E+01 -0.12788170321E+02 -0.21476895994E+02  0.25907148817E+02  0.00000000000E+00 0.  1.
         11    1    3    3    0    0 -0.71338248188E+02  0.12047062319E+02  0.69365204064E+02  0.10022878279E+03  0.00000000000E+00 0. -1.
</event>
<event>
 8    1  0.5951278E-006  0.2346890E+03  0.7561462E-02  0.1123382E+00
         -2   -1    0    0    0  501 -0.00000000000E+00  0.00000000000E+00  0.40117025520E+02  0.40117025520E+02  0.00000000000E+00 0.  1.
          2   -1    0    0  501    0  0.00000000000E+00 -0.00000000000E+00 -0.18382507162E+04  0.18382507162E+04  0.00000000000E+00 0. -1.
         23    2    1    2    0    0  0.18600734187E+03 -0.12027633085E+03 -0.52842483170E+03  0.58646497715E+03  0.12507293742E+03 0.  0.
         23    2    1    2    0    0 -0.18600734187E+03  0.12027633085E+03 -0.12697088590E+04  0.12919027645E+04  0.88244203974E+02 0.  0.
          5    1    3    3  502    0  0.17329547499E+03 -0.84053667994E+02 -0.50685833621E+03  0.54223536047E+03  0.41800000000E+01 0. -1.
         -5    1    3    3    0  502  0.12711866878E+02 -0.36222662858E+02 -0.21566495487E+02  0.44229616680E+02  0.41800000000E+01 0. -1.
        -11    1    4    4    0    0 -0.37130100109E+02  0.73016402565E+02 -0.46931150682E+03  0.47640668532E+03  0.00000000000E+00 0.  1.
         11    1    4    4    0    0 -0.14887724176E+03  0.47259928288E+02 -0.80039735213E+03  0.81549607922E+03  0.00000000000E+00 0. -1.
</event>
<event>
 8    1  0.5951278E-006  0.1204866E+03  0.7561462E-02  0.1242297E+00
         -2   -1    0    0    0  501 -0.00000000000E+00  0.00000000000E+00  0.43404817120E+02  0.43404817120E+02  0.00000000000E+00 0.  1.
          2   -1    0    0  501    0  0.00000000000E+00 -0.00000000000E+00 -0.41082268255E+03  0.41082268255E+03  0.00000000000E+00 0. -1.
         23    2    1    2    0    0 -0.49153573927E+02  0.49390702675E+02 -0.14129771830E+03  0.20116563211E+03  0.12508817292E+03 0.  0.
         23    2    1    2    0    0  0.49153573927E+02 -0.49390702675E+02 -0.22612014713E+03  0.25306186756E+03  0.89746713232E+02 0.  0.
          5    1    3    3  502    0 -0.87381536813E+02  0.98810978906E+01 -0.88276247705E+02  0.12467292160E+03  0.41800000000E+01 0.  1.
         -5    1    3    3    0  502  0.38227962886E+02  0.39509604785E+02 -0.53021470593E+02  0.76492710505E+02  0.41800000000E+01 0.  1.
        -11    1    4    4    0    0  0.45137746286E+02 -0.66419005671E+02 -0.22052794937E+03  0.23469443306E+03  0.00000000000E+00 0. -1.
         11    1    4    4    0    0  0.40158276416E+01  0.17028302996E+02 -0.55921977598E+01  0.18367434507E+02  0.00000000000E+00 0.  1.
</event>
<event>
 6    1  0.5951278E-006  0.1717113E+03  0.7561462E-02  0.1176075E+00
         -1   -1    0    0    0  501 -0.00000000000E+00  0.00000000000E+00  0.45406036268E+03  0.45406036268E+03  0.00000000000E+00 0.  1.
          1   -1    0    0  501    0  0.00000000000E+00 -0.00000000000E+00 -0.20084519804E+03  0.20084519804E+03  0.00000000000E+00 0. -1.
          5    1    1    2  502    0 -0.62663581000E+01 -0.65626386232E+02 -0.32006688833E+01  0.66134760112E+02  0.41800000000E+01 0. -1.
         -5    1    1    2    0  502  0.21268648127E+02  0.91344895566E+02  0.36409996126E+03  0.37600864289E+03  0.41800000000E+01 0.  1.
        -11    1    1    2    0    0  0.59171473134E+02  0.50015121506E+02 -0.44124013192E+02  0.89161113453E+02  0.00000000000E+00 0.  1.
         11    1    1    2    0    0 -0.74173763161E+02 -0.75733630841E+02 -0.63560114550E+02  0.12360104427E+03  0.00000000000E+00 0. -1.
</event>
<event>
 8    1  0.5951278E-006  0.1581177E+03  0.7561462E-02  0.1190838E+00
          1   -1    0    0  501    0  0.00000000000E+00  0.00000000000E+00  0.27508174951E+03  0.27508174951E+03  0.00000000000E+00 0. -1.
         -1   -1    0    0    0  501 -0.00000000000E+00 -0.00000000000E+00 -0.11894433315E+03  0.11894433315E+03  0.00000000000E+00 0.  1.
         23    2    1    2    0    0  0.13556846317E+03 -0.17453758722E+02  0.27666326863E+02  0.18734209199E+03  0.12509273317E+03 0.  0.
         23    2    1    2    0    0 -0.13556846317E+03  0.17453758722E+02  0.12847108949E+03  0.20668399067E+03  0.86775625982E+02 0.  0.
          5    1    3    3  502    0 -0.91551363915E+01 -0.32457628604E+02  0.24241505548E+02  0.41742510324E+02  0.41800000000E+01 0.  1.
         -5    1    3    3    0  502  0.14472359956E+03  0.15003869882E+02  0.34248213152E+01  0.14559958167E+03  0.41800000000E+01 0.  1.
        -11    1    4    4    0    0 -0.42017822834E+02  0.47838362314E+01  0.99212120606E+02  0.10784909550E+03  0.00000000000E+00 0. -1.
         11    1    4    4    0    0 -0.93550640335E+02  0.12669922490E+02  0.29258968882E+02  0.98834895168E+02  0.00000000000E+00 0.  1.
</event>
<event>
 8    1  0.5951278E-006  0.1102491E+03  0.7561462E-02  0.1260109E+00
         -1   -1    0    0    0  501 -0.00000000000E+00  0.00000000000E+00  0.63092335035E+02  0.63092335035E+02  0.00000000000E+00 0.  1.
          1   -1    0    0  501    0  0.00000000000E+00 -0.00000000000E+00 -0.32330215903E+03  0.32330215903E+03  0.00000000000E+00 0. -1.
         23    2    1    2    0    0  0.40858569831E+02 -0.77581969848E+02 -0.99217664920E+02  0.18215708724E+03  0.12509466266E+03 0.  0.
         23    2    1    2    0    0 -0.40858569831E+02  0.77581969848E+02 -0.16099215907E+03  0.20423740683E+03  0.90033650875E+02 0.  0.
          5    1    3    3  502    0 -0.65310280488E+01 -0.52673390831E+02  0.15534933797E+02  0.55461220660E+02  0.41800000000E+01 0. -1.
         -5    1    3    3    0  502  0.47389597880E+02 -0.24908579017E+02 -0.11475259872E+03  0.12669586658E+03  0.41800000000E+01 0. -1.
        -11    1    4    4    0    0 -0.37826446715E+02  0.19628102218E+01 -0.10034331291E+03  0.10725424533E+03  0.00000000000E+00 0. -1.
         11    1    4    4    0    0 -0.30321231164E+01  0.75619159626E+02 -0.60648846160E+02  0.96983161496E+02  0.00000000000E+00 0.  1.
</event>
<event>
 8    1  0.5951278E-006  0.1062603E+03  0.7561462E-02  0.1267656E+00
         -2   -1    0    0    0  501 -0.00000000000E+00  0.00000000000E+00  0.16264647724E+03  0.16264647724E+03  0.00000000000E+00 0.  1.
          2   -1    0    0  501    0  0.00000000000E+00 -0.00000000000E+00 -0.10159501184E+03  0.10159501184E+03  0.00000000000E+00 0. -1.
         23    2    1    2    0    0 -0.37185646241E+02  0.19025676508E+02  0.10094632650E+03  0.16608625563E+03  0.12509890017E+03 0.  0.
         23    2    1    2    0    0  0.37185646241E+02 -0.19025676508E+02 -0.39894861099E+02  0.98155233442E+02  0.79360577474E+02 0.  0.
          5    1    3    3  502    0  0.46398078850E+02  0.95948634977E+01  0.33252542524E+02  0.58034878399E+02  0.41800000000E+01 0. -1.
         -5    1    3    3    0  502 -0.83583725091E+02  0.94308130107E+01  0.67693783972E+02  0.10805137724E+03  0.41800000000E+01 0. -1.
        -11    1    4    4    0    0  0.19663595547E+02 -0.45170909497E+02 -0.44449331499E+02  0.66353682078E+02  0.00000000000E+00 0.  1.
         11    1    4    4    0    0  0.17522050695E+02  0.26145232988E+02  0.45544703997E+01  0.31801551365E+02  0.00000000000E+00 0. -1.
</event>
<event>
 8    1  0.5951278E-006  0.8883367E+02  0.7561462E-02  0.1305701E+00
          3   -1    0    0  501    0  0.00000000000E+00  0.00000000000E+00  0.34286312212E+03  0.34286312212E+03  0.00000000000E+00 0. -1.
         -3   -1    0    0    0  501 -0.00000000000E+00 -0.00000000000E+00 -0.40093081837E+02  0.40093081837E+02  0.00000000000E+00 0.  1.
         23    2    1    2    0    0  0.20894662081E+02 -0.50418498032E+01  0.10697511503E+03  0.16599333317E+03  0.12509238293E+03 0.  0.
         23    2    1    2    0    0 -0.20894662081E+02  0.50418498032E+01  0.19579492525E+03  0.21696287078E+03  0.90968276843E+02 0.  0.
          5    1    3    3  502    0  0.72889516168E+00 -0.55256135695E+02  0.95659133515E+02  0.11055276589E+03  0.41800000000E+01 0.  1.
         -5    1    3    3    0  502  0.20165766920E+02  0.50214285892E+02  0.11315981515E+02  0.55440567284E+02  0.41800000000E+01 0.  1.
        -11    1    4    4    0    0 -0.20729224295E+02  0.33565748853E+02  0.32267145610E+02  0.50965958460E+02  0.00000000000E+00 0.  1.
         11    1    4    4    0    0 -0.16543778599E+00 -0.28523899050E+02  0.16352777964E+03  0.16599691232E+03  0.00000000000E+00 0. -1.
</event>
<event>
 8    1  0.5951278E-006  0.1275061E+03  0.7561462E-02  0.1231204E+00
          1   -1    0    0  501    0  0.00000000000E+00  0.00000000000E+00  0.17791939178E+03  0.17791939178E+03  0.00000000000E+00 0. -1.
         -1   -1    0    0    0  501 -0.00000000000E+00 -0.00000000000E+00 -0.12306213133E+03  0.12306213133E+03  0.00000000000E+00 0.  1.
         23    2    1    2    0    0  0.28141283804E+02  0.81167476028E+02 -0.24245289542E+02  0.15367198346E+03  0.12508858228E+03 0.  0.
         23    2    1    2    0    0 -0.28141283804E+02 -0.81167476028E+02  0.79102549998E+02  0.14730953965E+03  0.89793073438E+02 0.  0.
          5    1    3    3  502    0  0.44367346230E+02 -0.10159591216E+02 -0.38464187718E+02  0.59738135575E+02  0.41800000000E+01 0. -1.
         -5    1    3    3    0  502 -0.16226062426E+02  0.91327067244E+02  0.14218898176E+02  0.93933847886E+02  0.41800000000E+01 0. -1.
        -11    1    4    4    0    0 -0.43253716247E+02 -0.89349484522E+02  0.83335128160E+02  0.12961079407E+03  0.00000000000E+00 0. -1.
         11    1    4    4    0    0  0.15112432443E+02  0.81820084939E+01 -0.42325781625E+01  0.17698745584E+02  0.00000000000E+00 0.  1.
</event>
<event>
 8    1  0.5951278E-006  0.1709531E+03  0.7561462E-02  0.1176858E+00
         -2   -1    0    0    0  501 -0.00000000000E+00  0.00000000000E+00  0.40846758974E+02  0.40846758974E+02  0.00000000000E+00 0.  1.
          2   -1    0    0  501    0  0.00000000000E+00 -0.00000000000E+00 -0.99210900245E+03  0.99210900245E+03  0.00000000000E+00 0. -1.
         23    2    1    2    0    0  0.10098922989E+03 -0.11795368392E+03 -0.32564343439E+03  0.38184075356E+03  0.12508724401E+03 0.  0.
         23    2    1    2    0    0 -0.10098922989E+03  0.11795368392E+03 -0.62561880909E+03  0.65111500787E+03  0.91869271663E+02 0.  0.
          5    1    3    3  502    0 -0.67069443622E+01 -0.47057723777E+02 -0.23250283642E+02  0.53079756586E+02  0.41800000000E+01 0. -1.
         -5    1    3    3    0  502  0.10769617425E+03 -0.70895960141E+02 -0.30239315075E+03  0.32876099697E+03  0.41800000000E+01 0. -1.
        -11    1    4    4    0    0 -0.22812093663E+02  0.69645455773E+02 -0.15302359485E+03  0.16966762128E+03  0.00000000000E+00 0. -1.
         11    1    4    4    0    0 -0.78177136229E+02  0.48308228145E+02 -0.47259521424E+03  0.48144738659E+03  0.00000000000E+00 0.  1.
</event>
<event>
 8    1  0.5951278E-006  0.1213804E+03  0.7561462E-02  0.1240837E+00
          2   -1    0    0  501    0  0.00000000000E+00  0.00000000000E+00  0.45089568731E+03  0.45089568731E+03  0.00000000000E+00 0.  1.
         -2   -1    0    0    0  501 -0.00000000000E+00 -0.00000000000E+00 -0.35790070290E+02  0.35790070290E+02  0.00000000000E+00 0. -1.
         23    2    1    2    0    0  0.61004796928E+02 -0.22816265569E+02  0.20492761170E+03  0.24876704596E+03  0.12509016705E+03 0.  0.
         23    2    1    2    0    0 -0.61004796928E+02  0.22816265569E+02  0.21017800532E+03  0.23791871165E+03  0.90489514353E+02 0.  0.
          5    1    3    3  502    0 -0.33579080435E+02 -0.24095876669E+02  0.35349456452E+02  0.54545599151E+02  0.41800000000E+01 0. -1.
         -5    1    3    3    0  502  0.94583877363E+02  0.12796110999E+01  0.16957815525E+03  0.19422144681E+03  0.41800000000E+01 0. -1.
        -11    1    4    4    0    0 -0.46196463035E+02  0.54569983816E+02  0.10477993041E+03  0.12684963597E+03  0.00000000000E+00 0.  1.
         11    1    4    4    0    0 -0.14808333894E+02 -0.31753718247E+02  0.10539807491E+03  0.11106907567E+03  0.00000000000E+00 0. -1.
</event>
<event>
 8    1  0.5951278E-006  0.1627398E+03  0.7561462E-02  0.1185638E+00
         -3   -1    0    0    0  501 -0.00000000000E+00  0.00000000000E+00  0.29936875599E+03  0.29936875599E+03  0.00000000000E+00 0.  1.
          3   -1    0    0  501    0  0.00000000000E+00 -0.00000000000E+00 -0.11888245360E+03  0.11888245360E+03  0.00000000000E+00 0. -1.
         23    2    1    2    0    0  0.11500989508E+03  0.77517047142E+02  0.17016093412E+03  0.25266188252E+03  0.12508842799E+03 0.  0.
         23    2    1    2    0    0 -0.11500989508E+03 -0.77517047142E+02  0.10325368273E+02  0.16558932706E+03  0.89872373087E+02 0.  0.
          5    1    3    3  502    0  0.11060156486E+03  0.92836594217E+02  0.18200478008E+03  0.23236727770E+03  0.41800000000E+01 0. -1.
         -5    1    3    3    0  502  0.44083302156E+01 -0.15319547075E+02 -0.11843845959E+02  0.20294604824E+02  0.41800000000E+01 0. -1.
        -11    1    4    4    0    0  0.14139153236E+02 -0.45583969720E+00 -0.34686773711E+01  0.14565547253E+02  0.00000000000E+00 0. -1.
         11    1    4    4    0    0 -0.12914904831E+03 -0.77061207445E+02  0.13794045644E+02  0.15102377981E+03  0.00000000000E+00 0.  1.
</event>
<event>
 8    1  0.5951278E-006  0.1273142E+03  0.7561462E-02  0.1231496E+00
         -1   -1    0    0    0  501 -0.00000000000E+00  0.00000000000E+00  0.81347667072E+02  0.81347667072E+02  0.00000000000E+00 0.  1.
          1   -1    0    0  501    0  0.00000000000E+00 -0.00000000000E+00 -0.26989108978E+03  0.26989108978E+03  0.00000000000E+00 0. -1.
         23    2    1    2    0    0  0.87045152499E+02 -0.45427310469E+02 -0.12390727751E+03  0.20159498148E+03  0.12508806508E+03 0.  0.
         23    2    1    2    0    0 -0.87045152499E+02  0.45427310469E+02 -0.64636145202E+02  0.14964377538E+03  0.92600913240E+02 0.  0.
          5    1    3    3  502    0  0.97928822725E+02 -0.60148626377E+02 -0.13687484751E+03  0.17877390150E+03  0.41800000000E+01 0.  1.
         -5    1    3    3    0  502 -0.10883670226E+02  0.14721315908E+02  0.12967570002E+02  0.22821079979E+02  0.41800000000E+01 0.  1.
        -11    1    4    4    0    0 -0.55002358068E+02  0.63540755702E+02 -0.11236979456E+02  0.84787715711E+02  0.00000000000E+00 0.  1.
         11    1    4    4    0    0 -0.32042794431E+02 -0.18113445233E+02 -0.53399165746E+02  0.64856059667E+02  0.00000000000E+00 0. -1.
</event>
<event>
 8    1  0.5951278E-006  0.7309531E+02  0.7561462E-02  0.1349873E+00
          1   -1    0    0  501    0  0.00000000000E+00  0.00000000000E+00  0.29101680388E+03  0.29101680388E+03  0.00000000000E+00 0. -1.
         -1   -1    0    0    0  501 -0.00000000000E+00 -0.00000000000E+00 -0.40997939462E+02  0.40997939462E+02  0.00000000000E+00 0.  1.
         23    2    1    2    0    0  0.92793144278E+01 -0.19148109877E+02  0.15949321012E+03  0.20381031201E+03  0.12509118043E+03 0.  0.
         23    2    1    2    0    0 -0.92793144278E+01  0.19148109877E+02  0.90525654298E+02  0.12820443133E+03  0.88253761041E+02 0.  0.
          5    1    3    3  502    0  0.49228715649E+01  0.43662052706E+02  0.12353757138E+03  0.13118541631E+03  0.41800000000E+01 0.  1.
         -5    1    3    3    0  502  0.43564428629E+01 -0.62810162583E+02  0.35955638740E+02  0.72624895700E+02  0.41800000000E+01 0.  1.
        -11    1    4    4    0    0 -0.53376872909E+01  0.28400051123E+02  0.10593398727E+03  0.10980466051E+03  0.00000000000E+00 0. -1.
         11    1    4    4    0    0 -0.39416271368E+01 -0.92519412460E+01 -0.15408332974E+02  0.18399770823E+02  0.00000000000E+00 0.  1.
</event>
<event>
 8    1  0.5951278E-006  0.1554738E+03  0.7561462E-02  0.1193904E+00
         -3   -1    0    0    0  501 -0.00000000000E+00  0.00000000000E+00  0.12243707123E+03  0.12243707123E+03  0.00000000000E+00 0.  1.
          3   -1    0    0  501    0  0.00000000000E+00 -0.00000000000E+00 -0.26973006131E+03  0.26973006131E+03  0.00000000000E+00 0. -1.
         23    2    1    2    0    0 -0.12471198918E+03  0.68482753116E+02 -0.49823321520E+02  0.19589574331E+03  0.12509920527E+03 0.  0.
         23    2    1    2    0    0  0.12471198918E+03 -0.68482753116E+02 -0.97469668561E+02  0.19627138923E+03  0.93697140944E+02 0.  0.
          5    1    3    3  502    0 -0.40617323127E+02  0.24216750410E+02  0.42218677422E+02  0.63530363305E+02  0.41800000000E+01 0. -1.
         -5    1    3    3    0  502 -0.84094666056E+02  0.44266002707E+02 -0.92041998942E+02  0.13236538001E+03  0.41800000000E+01 0. -1.
        -11    1    4    4    0    0  0.13031583669E+03 -0.81826755754E+02 -0.79504397568E+02  0.17320157183E+03  0.00000000000E+00 0.  1.
         11    1    4    4    0    0 -0.56038475093E+01  0.13344002638E+02 -0.17965270993E+02  0.23069817406E+02  0.00000000000E+00 0. -1.
</event>
<event>
 8    1  0.5951278E-006  0.2947464E+03  0.7561462E-02  0.1087897E+00
          2   -1    0    0  501    0  0.00000000000E+00  0.00000000000E+00  0.94336469146E+03  0.94336469146E+03  0.00000000000E+00 0. -1.
         -2   -1    0    0    0  501 -0.00000000000E+00 -0.00000000000E+00 -0.10717902799E+03  0.10717902799E+03  0.00000000000E+00 0.  1.
         23    2    1    2    0    0 -0.15221612251E+03  0.22763041727E+03  0.22925442337E+03  0.37840349516E+03  0.12508500985E+03 0.  0.
         23    2    1    2    0    0  0.15221612251E+03 -0.22763041727E+03  0.60693124010E+03  0.67214022429E+03  0.91769254549E+02 0.  0.
          5    1    3    3  502    0 -0.70964505380E+02  0.20393676814E+03  0.17263517406E+03  0.27648967819E+03  0.41800000000E+01 0. -1.
         -5    1    3    3    0  502 -0.81251617133E+02  0.23693649135E+02  0.56619249310E+02  0.10191381697E+03  0.41800000000E+01 0.  1.
        -11    1    4    4    0    0  0.69520238631E+02 -0.18089518130E+03  0.40354567664E+03  0.44766644205E+03  0.00000000000E+00 0.  1.
         11    1    4    4    0    0  0.82695883883E+02 -0.46735235970E+02  0.20338556345E+03  0.22447378224E+03  0.00000000000E+00 0. -1.
</event>
<event>
 8    1  0.5951278E-006  0.2173873E+03  0.7561462E-02  0.1135846E+00
          2   -1    0    0  501    0  0.00000000000E+00  0.00000000000E+00  0.86378088821E+03  0.86378088821E+03  0.00000000000E+00 0.  1.
         -2   -1    0    0    0  501 -0.00000000000E+00 -0.00000000000E+00 -0.58343633103E+02  0.58343633103E+02  0.00000000000E+00 0. -1.
         23    2    1    2    0    0  0.15686829451E+03 -0.11911850841E+03  0.41612546041E+03  0.47707931300E+03  0.12508953284E+03 0.  0.
         23    2    1    2    0    0 -0.15686829451E+03  0.11911850841E+03  0.38931179470E+03  0.44504520831E+03  0.87776324123E+02 0.  0.
          5    1    3    3  502    0  0.17681278218E+03 -0.10387302164E+03  0.34295995080E+03  0.39961401980E+03  0.41800000000E+01 0. -1.
         -5    1    3    3    0  502 -0.19944487667E+02 -0.15245486770E+02  0.73165509604E+02  0.77465293201E+02  0.41800000000E+01 0. -1.
        -11    1    4    4    0    0 -0.60617855000E+02  0.15044302586E+02  0.19333005808E+03  0.20316832121E+03  0.00000000000E+00 0.  1.
         11    1    4    4    0    0 -0.96250439514E+02  0.10407420583E+03  0.19598173662E+03  0.24187688710E+03  0.00000000000E+00 0. -1.
</event>
<event>
 8    1  0.5951278E-006  0.1780480E+03  0.7561462E-02  0.1169706E+00
         -2   -1    0    0    0  501 -0.00000000000E+00  0.00000000000E+00  0.10696592144E+03  0.10696592144E+03  0.00000000000E+00 0. -1.
          2   -1    0    0  501    0  0.00000000000E+00 -0.00000000000E+00 -0.31920348737E+03  0.31920348737E+03  0.00000000000E+00 0.  1.
         23    2    1    2    0    0  0.14413799827E+03 -0.36217742871E+02 -0.11603931453E+03  0.22627491921E+03  0.12509088337E+03 0.  0.
         23    2    1    2    0    0 -0.14413799827E+03  0.36217742871E+02 -0.96198251395E+02  0.19989448959E+03  0.92823574347E+02 0.  0.
          5    1    3    3  502    0 -0.19014604091E+02 -0.39124573842E+01  0.50644358973E+01  0.20493496590E+02  0.41800000000E+01 0. -1.
         -5    1    3    3    0  502  0.16315260236E+03 -0.32305285486E+02 -0.12110375043E+03  0.20578142262E+03  0.41800000000E+01 0. -1.
        -11    1    4    4    0    0 -0.27769961150E+02  0.45309882421E+02 -0.54038272779E+02  0.75791101801E+02  0.00000000000E+00 0.  1.
         11    1    4    4    0    0 -0.11636803712E+03 -0.90921395505E+01 -0.42159978616E+02  0.12410338779E+03  0.00000000000E+00 0. -1.
</event>
<event>
 8    1  0.5951278E-006  0.8027584E+02  0.7561462E-02  0.1328270E+00
         -1   -1    0    0    0  501 -0.00000000000E+00  0.00000000000E+00  0.19335199440E+02  0.19335199440E+02  0.00000000000E+00 0.  1.
          1   -1    0    0  501    0  0.00000000000E+00 -0.00000000000E+00 -0.64308343772E+03  0.64308343772E+03  0.00000000000E+00 0. -1.
         23    2    1    2    0    0  0.45448744631E+01  0.29139071191E+02 -0.30864926057E+03  0.33433848000E+03  0.12509241304E+03 0.  0.
         23    2    1    2    0    0 -0.45448744631E+01 -0.29139071191E+02 -0.31509897771E+03  0.32808015716E+03  0.86484000942E+02 0.  0.
          5    1    3    3  502    0 -0.27236200091E+02  0.26206357249E+02 -0.18283650203E+02  0.42194170456E+02  0.41800000000E+01 0.  1.
         -5    1    3    3    0  502  0.31781074554E+02  0.29327139420E+01 -0.29036561037E+03  0.29214430954E+03  0.41800000000E+01 0.  1.
        -11    1    4    4    0    0  0.40323256864E+02 -0.17671736415E+02 -0.17830403013E+03  0.18365887529E+03  0.00000000000E+00 0. -1.
         11    1    4    4    0    0 -0.44868131327E+02 -0.11467334776E+02 -0.13679494757E+03  0.14442128187E+03  0.00000000000E+00 0.  1.
</event>
<event>
 8    1  0.5951278E-006  0.1554465E+03  0.7561462E-02  0.1193936E+00
          1   -1    0    0  501    0  0.00000000000E+00  0.00000000000E+00  0.26352076050E+03  0.26352076050E+03  0.00000000000E+00 0. -1.
         -1   -1    0    0    0  501 -0.00000000000E+00 -0.00000000000E+00 -0.95523857871E+02  0.95523857871E+02  0.00000000000E+00 0.  1.
         23    2    1    2    0    0 -0.46188129687E+02  0.10423622539E+03  0.70567733499E+02  0.18337340593E+03  0.12508983566E+03 0.  0.
         23    2    1    2    0    0  0.46188129687E+02 -0.10423622539E+03  0.97429169131E+02  0.17567121244E+03  0.91484413287E+02 0.  0.
          5    1    3    3  502    0  0.29141660748E+01 -0.25465026233E+02  0.28120704526E+02  0.38278013898E+02  0.41800000000E+01 0. -1.
         -5    1    3    3    0  502 -0.49102295762E+02  0.12970125162E+03  0.42447028973E+02  0.14509539204E+03  0.41800000000E+01 0. -1.
        -11    1    4    4    0    0 -0.16506130934E+02  0.74394391101E+01  0.12383946983E+02  0.21935354011E+02  0.00000000000E+00 0. -1.
         11    1    4    4    0    0  0.62694260621E+02 -0.11167566450E+03  0.85045222148E+02  0.15373585843E+03  0.00000000000E+00 0.  1.
</event>
<event>
 8    1  0.5951278E-006  0.9014448E+02  0.7561462E-02  0.1302502E+00
          2   -1    0    0  501    0  0.00000000000E+00  0.00000000000E+00  0.29144030168E+03  0.29144030168E+03  0.00000000000E+00 0. -1.
         -2   -1    0    0    0  501 -0.00000000000E+00 -0.00000000000E+00 -0.54167107134E+02  0.54167107134E+02  0.00000000000E+00 0.  1.
         23    2    1    2    0    0 -0.11540274201E+02  0.35879052127E+02  0.11005285061E+03  0.17081757430E+03  0.12508608817E+03 0.  0.
         23    2    1    2    0    0  0.11540274201E+02 -0.35879052127E+02  0.12722034393E+03  0.17478983451E+03  0.11378042902E+03 0.  0.
          5    1    3    3  502    0 -0.41476067404E+02  0.48523053116E+02  0.12050045023E+03  0.13642793613E+03  0.41800000000E+01 0. -1.
         -5    1    3    3    0  502  0.29935793203E+02 -0.12644000989E+02 -0.10447599622E+02  0.34389638172E+02  0.41800000000E+01 0. -1.
        -11    1    4    4    0    0  0.32930007275E+02 -0.48571650363E+02  0.16002680100E+02  0.60824965010E+02  0.00000000000E+00 0.  1.
         11    1    4    4    0    0 -0.21389733074E+02  0.12692598237E+02  0.11121766384E+03  0.11396486950E+03  0.00000000000E+00 0. -1.
</event>
<event>
 8    1  0.5951278E-006  0.1499246E+03  0.7561462E-02  0.1200566E+00
         -4   -1    0    0    0  501 -0.00000000000E+00  0.00000000000E+00  0.31399383869E+03  0.31399383869E+03  0.00000000000E+00 0.  1.
          4   -1    0    0  501    0  0.00000000000E+00 -0.00000000000E+00 -0.16224563399E+03  0.16224563399E+03  0.00000000000E+00 0. -1.
         23    2    1    2    0    0 -0.54765479898E+02 -0.10809373428E+03  0.24290630972E+03  0.29888870916E+03  0.12508985563E+03 0.  0.
         23    2    1    2    0    0  0.54765479898E+02  0.10809373428E+03 -0.91158105017E+02  0.17735076351E+03  0.91978149740E+02 0.  0.
          5    1    3    3  502    0 -0.70697353752E+02 -0.25955477010E+02  0.55609969198E+02  0.93710958210E+02  0.41800000000E+01 0.  1.
         -5    1    3    3    0  502  0.15931873854E+02 -0.82138257270E+02  0.18729634052E+03  0.20517775095E+03  0.41800000000E+01 0.  1.
        -11    1    4    4    0    0 -0.52059252199E+01  0.68697463087E+02 -0.10997664650E+02  0.69766694918E+02  0.00000000000E+00 0.  1.
         11    1    4    4    0    0  0.59971405118E+02  0.39396271193E+02 -0.80160440367E+02  0.10758406860E+03  0.00000000000E+00 0. -1.
</event>
<event>
 8    1  0.5951278E-006  0.7036050E+02  0.7561462E-02  0.1358871E+00
          2   -1    0    0  501    0  0.00000000000E+00  0.00000000000E+00  0.26277735876E+03  0.26277735876E+03  0.00000000000E+00 0. -1.
         -2   -1    0    0    0  501 -0.00000000000E+00 -0.00000000000E+00 -0.76118099219E+02  0.76118099219E+02  0.00000000000E+00 0.  1.
         23    2    1    2    0    0  0.28298685631E+02 -0.32119438069E+02  0.68456033023E+01  0.13239148176E+03  0.12509263866E+03 0.  0.
         23    2    1    2    0    0 -0.28298685631E+02  0.32119438069E+02  0.17981365624E+03  0.20650397623E+03  0.92078593146E+02 0.  0.
          5    1    3    3  502    0  0.10480693795E+02 -0.79651680718E+01  0.65194865763E+02  0.66641816952E+02  0.41800000000E+01 0. -1.
         -5    1    3    3    0  502  0.17817991835E+02 -0.24154269997E+02 -0.58349262461E+02  0.65749664804E+02  0.41800000000E+01 0. -1.
        -11    1    4    4    0    0  0.31166525420E+02  0.64061529591E+01  0.32051563450E+02  0.45162969589E+02  0.00000000000E+00 0.  1.
         11    1    4    4    0    0 -0.59465211051E+02  0.25713285109E+02  0.14776209279E+03  0.16134100664E+03  0.00000000000E+00 0. -1.
</event>
<event>
 7    1  0.5951278E-006  0.1130992E+03  0.7561462E-02  0.1254936E+00
         -2   -1    0    0    0  501 -0.00000000000E+00  0.00000000000E+00  0.48609301043E+02  0.48609301043E+02  0.00000000000E+00 0.  1.
          2   -1    0    0  501    0  0.00000000000E+00 -0.00000000000E+00 -0.49384412204E+03  0.49384412204E+03  0.00000000000E+00 0. -1.
         23    2    1    2    0    0 -0.71258395664E+02 -0.25320700326E+02 -0.18400707098E+03  0.21896078593E+03  0.91467626989E+02 0.  0.
          5    1    1    2  502    0 -0.15885343233E+02 -0.93566484923E+01 -0.22024420659E+03  0.22105400683E+03  0.41800000000E+01 0. -1.
         -5    1    1    2    0  502  0.87143738896E+02  0.34677348819E+02 -0.40983543428E+02  0.10243863032E+03  0.41800000000E+01 0.  1.
        -11    1    3    3    0    0  0.85254411324E+01 -0.32220836513E+02 -0.27717050296E+02  0.43348590856E+02  0.00000000000E+00 0.  1.
         11    1    3    3    0    0 -0.79783836796E+02  0.69001361864E+01 -0.15629002069E+03  0.17561219508E+03  0.00000000000E+00 0. -1.
</event>
<event>
 8    1  0.5951278E-006  0.1048818E+03  0.7561462E-02  0.1270353E+00
          1   -1    0    0  501    0  0.00000000000E+00  0.00000000000E+00  0.37175038484E+02  0.37175038484E+02  0.00000000000E+00 0. -1.
         -1   -1    0    0    0  501 -0.00000000000E+00 -0.00000000000E+00 -0.44164998234E+03  0.44164998234E+03  0.00000000000E+00 0.  1.
         23    2    1    2    0    0 -0.31893084709E+02  0.58832900396E+02 -0.25183805046E+03  0.28904496523E+03  0.12508440847E+03 0.  0.
         23    2    1    2    0    0  0.31893084709E+02 -0.58832900396E+02 -0.15263689339E+03  0.18978005559E+03  0.90774276396E+02 0.  0.
          5    1    3    3  502    0  0.25523707107E+02 -0.76122682148E+01 -0.15867588765E+03  0.16095004185E+03  0.41800000000E+01 0. -1.
         -5    1    3    3    0  502 -0.57416791816E+02  0.66445168610E+02 -0.93162162811E+02  0.12809492337E+03  0.41800000000E+01 0. -1.
        -11    1    4    4    0    0  0.27085222217E+02  0.77177328463E+01 -0.10255465632E+03  0.10635144661E+03  0.00000000000E+00 0.  1.
         11    1    4    4    0    0  0.48078624922E+01 -0.66550633242E+02 -0.50082237068E+02  0.83428608980E+02  0.00000000000E+00 0. -1.
</event>
<event>
 8    1  0.5951278E-006  0.1508298E+03  0.7561462E-02  0.1199457E+00
         -2   -1    0    0    0  501 -0.00000000000E+00  0.00000000000E+00  0.14133822589E+04  0.14133822589E+04  0.00000000000E+00 0.  1.
          2   -1    0    0  501    0  0.00000000000E+00 -0.00000000000E+00 -0.31596968857E+02  0.31596968857E+02  0.00000000000E+00 0. -1.
         23    2    1    2    0    0  0.10865787950E+03 -0.20966436832E+02  0.12072080471E+04  0.12187062016E+04  0.12508960968E+03 0.  0.
         23    2    1    2    0    0 -0.10865787950E+03  0.20966436832E+02  0.17457724289E+03  0.22627302616E+03  0.92065967557E+02 0.  0.
          5    1    3    3  502    0  0.70340533360E+02  0.49859608790E+02  0.64017816903E+03  0.64597161836E+03  0.41800000000E+01 0. -1.
         -5    1    3    3    0  502  0.38317346137E+02 -0.70826045622E+02  0.56702987812E+03  0.57273458323E+03  0.41800000000E+01 0. -1.
        -11    1    4    4    0    0 -0.10472331658E+03 -0.84143919494E+01  0.16406589630E+03  0.19482143968E+03  0.00000000000E+00 0.  1.
         11    1    4    4    0    0 -0.39345629155E+01  0.29380828781E+02  0.10511346585E+02  0.31451586482E+02  0.00000000000E+00 0. -1.
</event>
<event>
 8    1  0.5951278E-006  0.9659011E+02  0.7561462E-02  0.1287634E+00
          2   -1    0    0  501    0  0.00000000000E+00  0.00000000000E+00  0.16774009179E+03  0.16774009179E+03  0.00000000000E+00 0. -1.
         -2   -1    0    0    0  501 -0.00000000000E+00 -0.00000000000E+00 -0.82887745126E+02  0.82887745126E+02  0.00000000000E+00 0.  1.
         23    2    1    2    0    0 -0.32443074598E+02  0.18868349666E+02  0.72600674992E+01  0.12583260365E+03  0.11988564490E+03 0.  0.
         23    2    1    2    0    0  0.32443074598E+02 -0.18868349666E+02  0.77592279167E+02  0.12479523327E+03  0.90248106633E+02 0.  0.
          5    1    3    3  502    0  0.45304856838E+02  0.70611128216E+01  0.96652264802E+01  0.47045492561E+02  0.41800000000E+01 0. -1.
         -5    1    3    3    0  502 -0.77747931436E+02  0.11807236844E+02 -0.24051589809E+01  0.78787111091E+02  0.41800000000E+01 0.  1.
        -11    1    4    4    0    0 -0.15086381236E+02 -0.14048718315E+02 -0.11570987291E+02  0.23640074703E+02  0.00000000000E+00 0.  1.
         11    1    4    4    0    0  0.47529455833E+02 -0.48196313504E+01  0.89163266458E+02  0.10115515856E+03  0.00000000000E+00 0. -1.
</event>
<event>
 8    1  0.5951278E-006  0.1165558E+03  0.7561462E-02  0.1248889E+00
         -1   -1    0    0    0  501 -0.00000000000E+00  0.00000000000E+00  0.72698395296E+02  0.72698395296E+02  0.00000000000E+00 0.  1.
          1   -1    0    0  501    0  0.00000000000E+00 -0.00000000000E+00 -0.25047265745E+03  0.25047265745E+03  0.00000000000E+00 0. -1.
         23    2    1    2    0    0  0.14800695102E+02 -0.62689774661E+02 -0.32339163137E+02  0.13942283121E+03  0.11934754278E+03 0.  0.
         23    2    1    2    0    0 -0.14800695102E+02  0.62689774661E+02 -0.14543509902E+03  0.18374822154E+03  0.91994415428E+02 0.  0.
          5    1    3    3  502    0  0.36242613124E+02  0.23134765300E+02  0.46462531968E+01  0.43448871565E+02  0.41800000000E+01 0. -1.
         -5    1    3    3    0  502 -0.21441918021E+02 -0.85824539961E+02 -0.36985416334E+02  0.95973959642E+02  0.41800000000E+01 0.  1.
        -11    1    4    4    0    0 -0.21652818881E+02  0.79923597565E+02 -0.77812027437E+02  0.11362806707E+03  0.00000000000E+00 0. -1.
         11    1    4    4    0    0  0.68521237788E+01 -0.17233822904E+02 -0.67623071580E+02  0.70120154464E+02  0.00000000000E+00 0.  1.
</event>
<event>
 8    1  0.5951278E-006  0.1650961E+03  0.7561462E-02  0.1183060E+00
          2   -1    0    0  501    0  0.00000000000E+00  0.00000000000E+00  0.13410853059E+04  0.13410853059E+04  0.00000000000E+00 0. -1.
         -2   -1    0    0    0  501 -0.00000000000E+00 -0.00000000000E+00 -0.21737024329E+02  0.21737024329E+02  0.00000000000E+00 0.  1.
         23    2    1    2    0    0 -0.11835537810E+03 -0.55707627721E+02  0.54842107090E+03  0.57751589350E+03  0.12509037100E+03 0.  0.
         23    2    1    2    0    0  0.11835537810E+03  0.55707627721E+02  0.77092721067E+03  0.78530643674E+03  0.72567900060E+02 0.  0.
          5    1    3    3  502    0 -0.14110085898E+03 -0.65399185055E+02  0.48386083270E+03  0.50825710386E+03  0.41800000000E+01 0.  1.
         -5    1    3    3    0  502  0.22745480877E+02  0.96915573341E+01  0.64560238209E+02  0.69258789634E+02  0.41800000000E+01 0.  1.
        -11    1    4    4    0    0  0.59837387595E+02  0.67120605210E+02  0.47344238475E+03  0.48190598696E+03  0.00000000000E+00 0. -1.
         11    1    4    4    0    0  0.58517990503E+02 -0.11412977490E+02  0.29748482593E+03  0.30340044978E+03  0.00000000000E+00 0.  1.
</event>
<event>
 8    1  0.5951278E-006  0.1379677E+03  0.7561462E-02  0.1216090E+00
          3   -1    0    0  501    0  0.00000000000E+00  0.00000000000E+00  0.25603972542E+03  0.25603972542E+03  0.00000000000E+00 0. -1.
         -3   -1    0    0    0  501 -0.00000000000E+00 -0.00000000000E+00 -0.80290908764E+02  0.80290908764E+02  0.00000000000E+00 0.  1.
         23    2    1    2    0    0  0.66857638714E+02 -0.64984231443E+02  0.86842339538E+02  0.17855555457E+03  0.12509036710E+03 0.  0.
         23    2    1    2    0    0 -0.66857638714E+02  0.64984231443E+02  0.88906477116E+02  0.15777507961E+03  0.91080842571E+02 0.  0.
          5    1    3    3  502    0  0.24337001557E+02 -0.98347238680E+02  0.50386422816E+02  0.11322867572E+03  0.41800000000E+01 0. -1.
         -5    1    3    3    0  502  0.42520637157E+02  0.33363007237E+02  0.36455916723E+02  0.65326878850E+02  0.41800000000E+01 0. -1.
        -11    1    4    4    0    0  0.15049496864E+02 -0.10931620504E+01  0.37970004172E+02  0.40858335453E+02  0.00000000000E+00 0. -1.
         11    1    4    4    0    0 -0.81907135577E+02  0.66077393493E+02  0.50936472944E+02  0.11691674416E+03  0.00000000000E+00 0.  1.
</event>
<event>
 8    1  0.5951278E-006  0.2597833E+03  0.7561462E-02  0.1107274E+00
          2   -1    0    0  501    0  0.00000000000E+00  0.00000000000E+00  0.13795836126E+04  0.13795836126E+04  0.00000000000E+00 0. -1.
         -2   -1    0    0    0  501 -0.00000000000E+00 -0.00000000000E+00 -0.54676747699E+02  0.54676747699E+02  0.00000000000E+00 0.  1.
         23    2    1    2    0    0 -0.24503444018E+03  0.55349752199E+02  0.70755943765E+03  0.76117907389E+03  0.12509097800E+03 0.  0.
         23    2    1    2    0    0  0.24503444018E+03 -0.55349752199E+02  0.61734742728E+03  0.67308128644E+03  0.93888765258E+02 0.  0.
          5    1    3    3  502    0 -0.15861399373E+03 -0.99501026871E+01  0.30085776868E+03  0.34027969808E+03  0.41800000000E+01 0.  1.
         -5    1    3    3    0  502 -0.86420446448E+02  0.65299854886E+02  0.40670166898E+03  0.42089937581E+03  0.41800000000E+01 0.  1.
        -11    1    4    4    0    0  0.16026339760E+03 -0.46966940757E+02  0.28821298785E+03  0.33310205118E+03  0.00000000000E+00 0.  1.
         11    1    4    4    0    0  0.84771042576E+02 -0.83828114415E+01  0.32913443943E+03  0.33997923526E+03  0.00000000000E+00 0. -1.
</event>
<event>
 8    1  0.5951278E-006  0.1468695E+03  0.7561462E-02  0.1204373E+00
          1   -1    0    0  501    0  0.00000000000E+00  0.00000000000E+00  0.10717829206E+03  0.10717829206E+03  0.00000000000E+00 0. -1.
         -1   -1    0    0    0  501 -0.00000000000E+00 -0.00000000000E+00 -0.26954297516E+03  0.26954297516E+03  0.00000000000E+00 0.  1.
         23    2    1    2    0    0 -0.13269522633E+03  0.11180456563E+02 -0.81476067881E+02  0.20005270741E+03  0.12509880258E+03 0.  0.
         23    2    1    2    0    0  0.13269522633E+03 -0.11180456563E+02 -0.80888615212E+02  0.17666855981E+03  0.83281367989E+02 0.  0.
          5    1    3    3  502    0 -0.13480459976E+03  0.27476335068E+02 -0.10353324020E+03  0.17223191729E+03  0.41800000000E+01 0.  1.
         -5    1    3    3    0  502  0.21093734354E+01 -0.16295878505E+02  0.22057172321E+02  0.27820790128E+02  0.41800000000E+01 0.  1.
        -11    1    4    4    0    0  0.41875150451E+02 -0.22640670853E+02 -0.69759528675E+02  0.84454248223E+02  0.00000000000E+00 0.  1.
         11    1    4    4    0    0  0.90820075874E+02  0.11460214290E+02 -0.11129086537E+02  0.92214311582E+02  0.00000000000E+00 0. -1.
</event>
<event>
 8    1  0.5951278E-006  0.9171987E+02  0.7561462E-02  0.1298739E+00
         -2   -1    0    0    0  501 -0.00000000000E+00  0.00000000000E+00  0.16062080503E+02  0.16062080503E+02  0.00000000000E+00 0.  1.
          2   -1    0    0  501    0  0.00000000000E+00 -0.00000000000E+00 -0.83036231816E+03  0.83036231816E+03  0.00000000000E+00 0. -1.
         23    2    1    2    0    0 -0.94566885519E+00 -0.28523327013E+02 -0.36059057365E+03  0.38273810483E+03  0.12509364738E+03 0.  0.
         23    2    1    2    0    0  0.94566885519E+00  0.28523327013E+02 -0.45370966401E+03  0.46368629383E+03  0.91312898299E+02 0.  0.
          5    1    3    3  502    0  0.40357183376E+02 -0.28895534232E+01 -0.35445724223E+02  0.53952975216E+02  0.41800000000E+01 0. -1.
         -5    1    3    3    0  502 -0.41302852231E+02 -0.25633773590E+02 -0.32514484942E+03  0.32878512962E+03  0.41800000000E+01 0. -1.
        -11    1    4    4    0    0 -0.37895436792E+02 -0.10078715837E+02 -0.14776682331E+03  0.15288125690E+03  0.00000000000E+00 0.  1.
         11    1    4    4    0    0  0.38841105648E+02  0.38602042850E+02 -0.30594284070E+03  0.31080503693E+03  0.00000000000E+00 0. -1.
</event>
<event>
 8    1  0.5951278E-006  0.1264326E+03  0.7561462E-02  0.1232847E+00
          1   -1    0    0  501    0  0.00000000000E+00  0.00000000000E+00  0.31716774706E+03  0.31716774706E+03  0.00000000000E+00 0. -1.
         -1   -1    0    0    0  501 -0.00000000000E+00 -0.00000000000E+00 -0.74781658228E+02  0.74781658228E+02  0.00000000000E+00 0.  1.
         23    2    1    2    0    0 -0.44071013561E+02 -0.79803457978E+02  0.56205787638E+02  0.16467843441E+03  0.12509616323E+03 0.  0.
         23    2    1    2    0    0  0.44071013561E+02  0.79803457978E+02  0.18618030119E+03  0.22727097087E+03  0.93156553757E+02 0.  0.
          5    1    3    3  502    0 -0.82300491293E+02 -0.69104453907E+02  0.62315122023E+02  0.12429578935E+03  0.41800000000E+01 0. -1.
         -5    1    3    3    0  502  0.38229477733E+02 -0.10699004070E+02 -0.61093343851E+01  0.40382645065E+02  0.41800000000E+01 0. -1.
        -11    1    4    4    0    0  0.59038318392E+01  0.63704144912E+02  0.40273246654E+02  0.75597669973E+02  0.00000000000E+00 0.  1.
         11    1    4    4    0    0  0.38167181722E+02  0.16099313066E+02  0.14590705454E+03  0.15167330090E+03  0.00000000000E+00 0. -1.
</event>
<event>
 8    1  0.5951278E-006  0.7971467E+02  0.7561462E-02  0.1329863E+00
          2   -1    0    0  501    0  0.00000000000E+00  0.00000000000E+00  0.12444511199E+03  0.12444511199E+03  0.00000000000E+00 0. -1.
         -2   -1    0    0    0  501 -0.00000000000E+00 -0.00000000000E+00 -0.11782625729E+03  0.11782625729E+03  0.00000000000E+00 0.  1.
         23    2    1    2    0    0 -0.28366164647E+02 -0.30307916005E+02 -0.17738753264E+02  0.13298572460E+03  0.12508929015E+03 0.  0.
         23    2    1    2    0    0  0.28366164647E+02  0.30307916005E+02  0.24357607972E+02  0.10928564468E+03  0.98116512357E+02 0.  0.
          5    1    3    3  502    0 -0.24905718607E+02 -0.71375069361E+02 -0.40350093168E+02  0.85792177757E+02  0.41800000000E+01 0. -1.
         -5    1    3    3    0  502 -0.34604460391E+01  0.41067153356E+02  0.22611339905E+02  0.47193546845E+02  0.41800000000E+01 0. -1.
        -11    1    4    4    0    0  0.17282064153E+02  0.23891420035E+02  0.62469696899E+02  0.69079177205E+02  0.00000000000E+00 0. -1.
         11    1    4    4    0    0  0.11084100494E+02  0.64164959702E+01 -0.38112088927E+02  0.40206467473E+02  0.00000000000E+00 0.  1.
</event>
<event>
 7    1  0.5951278E-006  0.1506352E+03  0.7561462E-02  0.1199695E+00
          1   -1    0    0  501    0  0.00000000000E+00  0.00000000000E+00  0.10412864516E+03  0.10412864516E+03  0.00000000000E+00 0. -1.
         -1   -1    0    0    0  501 -0.00000000000E+00 -0.00000000000E+00 -0.57747978513E+03  0.57747978513E+03  0.00000000000E+00 0.  1.
         23    2    1    2    0    0 -0.84676928985E+02 -0.59842900689E+02  0.39297874217E+02  0.14247604288E+03  0.89463650787E+02 0.  0.
          5    1    1    2  502    0  0.20003822583E+02 -0.40470736623E+02 -0.18247713804E+03  0.18802502958E+03  0.41800000000E+01 0. -1.
         -5    1    1    2    0  502  0.64673106403E+02  0.10031363731E+03 -0.33017187615E+03  0.35110735783E+03  0.41800000000E+01 0.  1.
        -11    1    3    3    0    0 -0.10035629321E+03 -0.65496021966E+02  0.38172972634E+02  0.12577078484E+03  0.00000000000E+00 0. -1.
         11    1    3    3    0    0  0.15679364224E+02  0.56531212762E+01  0.11249015833E+01  0.16705258041E+02  0.00000000000E+00 0.  1.
</event>
<event>
 8    1  0.5951278E-006  0.1261666E+03  0.7561462E-02  0.1233257E+00
          2   -1    0    0  501    0  0.00000000000E+00  0.00000000000E+00  0.35309147996E+03  0.35309147996E+03  0.00000000000E+00 0. -1.
         -2   -1    0    0    0  501 -0.00000000000E+00 -0.00000000000E+00 -0.75001681221E+02  0.75001681221E+02  0.00000000000E+00 0.  1.
         23    2    1    2    0    0 -0.11543188380E+03 -0.31893157908E+02  0.12004164323E+03  0.21071065755E+03  0.12508913532E+03 0.  0.
         23    2    1    2    0    0  0.11543188380E+03  0.31893157908E+02  0.15804815551E+03  0.21738250363E+03  0.89074351573E+02 0.  0.
          5    1    3    3  502    0 -0.44009729370E+02 -0.39113327755E+02  0.12540587466E+03  0.13860308253E+03  0.41800000000E+01 0. -1.
         -5    1    3    3    0  502 -0.71422154428E+02  0.72201698472E+01 -0.53642314324E+01  0.72107575016E+02  0.41800000000E+01 0. -1.
        -11    1    4    4    0    0  0.67559261809E+02  0.28751784236E+02  0.27680309313E+02  0.78467308331E+02  0.00000000000E+00 0. -1.
         11    1    4    4    0    0  0.47872621989E+02  0.31413736720E+01  0.13036784620E+03  0.13891519530E+03  0.00000000000E+00 0.  1.
</event>
<event>
 8    1  0.5951278E-006  0.1164922E+03  0.7561462E-02  0.1248999E+00
         -1   -1    0    0    0  501 -0.00000000000E+00  0.00000000000E+00  0.38782022806E+02  0.38782022806E+02  0.00000000000E+00 0.  1.
          1   -1    0    0  501    0  0.00000000000E+00 -0.00000000000E+00 -0.50136119636E+03  0.50136119636E+03  0.00000000000E+00 0. -1.
         23    2    1    2    0    0  0.50574955278E+02  0.64757858403E+02 -0.19348739182E+03  0.24461665112E+03  0.12509408014E+03 0.  0.
         23    2    1    2    0    0 -0.50574955278E+02 -0.64757858403E+02 -0.26909178174E+03  0.29552656805E+03  0.90411056268E+02 0.  0.
          5    1    3    3  502    0  0.75933534305E+02  0.39458199781E+02 -0.55705331441E+02  0.10219299151E+03  0.41800000000E+01 0. -1.
         -5    1    3    3    0  502 -0.25358579027E+02  0.25299658622E+02 -0.13778206037E+03  0.14242365961E+03  0.41800000000E+01 0. -1.
        -11    1    4    4    0    0 -0.70380434417E+02 -0.53973551487E+02 -0.14952176112E+03  0.17384851698E+03  0.00000000000E+00 0.  1.
         11    1    4    4    0    0  0.19805479139E+02 -0.10784306915E+02 -0.11957002062E+03  0.12167805107E+03  0.00000000000E+00 0. -1.
</event>
<event>
 8    1  0.5951278E-006  0.1772745E+03  0.7561462E-02  0.1170467E+00
         -2   -1    0    0    0  501 -0.00000000000E+00  0.00000000000E+00  0.51337891764E+02  0.51337891764E+02  0.00000000000E+00 0. -1.
          2   -1    0    0  501    0  0.00000000000E+00 -0.00000000000E+00 -0.75211335853E+03  0.75211335853E+03  0.00000000000E+00 0.  1.
         23    2    1    2    0    0 -0.15803459683E+03  0.34702692916E+02 -0.40006203655E+03  0.44930431692E+03  0.12508207474E+03 0.  0.
         23    2    1    2    0    0  0.15803459683E+03 -0.34702692916E+02 -0.30071343022E+03  0.35414693337E+03  0.93873705662E+02 0.  0.
          5    1    3    3  502    0 -0.17021661018E+03  0.19485445077E+02 -0.39195243126E+03  0.42778213815E+03  0.41800000000E+01 0. -1.
         -5    1    3    3    0  502  0.12182013349E+02  0.15217247838E+02 -0.81096052949E+01  0.21522178771E+02  0.41800000000E+01 0. -1.
        -11    1    4    4    0    0  0.86938721390E+02 -0.30051702383E+02 -0.25084959663E+03  0.26718339436E+03  0.00000000000E+00 0.  1.
         11    1    4    4    0    0  0.71095875443E+02 -0.46509905323E+01 -0.49863833587E+02  0.86963539014E+02  0.00000000000E+00 0. -1.
</event>
<event>
 8    1  0.5951278E-006  0.6806162E+02  0.7561462E-02  0.1366811E+00
         -2   -1    0    0    0  501 -0.00000000000E+00  0.00000000000E+00  0.21521001861E+02  0.21521001861E+02  0.00000000000E+00 0.  1.
          2   -1    0    0  501    0  0.00000000000E+00 -0.00000000000E+00 -0.49619128334E+03  0.49619128334E+03  0.00000000000E+00 0. -1.
         23    2    1    2    0    0 -0.18284577249E+01  0.63932481804E+01 -0.26204348792E+03  0.28663753627E+03  0.11597444011E+03 0.  0.
         23    2    1    2    0    0  0.18284577249E+01 -0.63932481804E+01 -0.21262679356E+03  0.23107474893E+03  0.90228428856E+02 0.  0.
          5    1    3    3  502    0  0.29476990234E+02  0.78024505446E+01 -0.25140349023E+03  0.25328039499E+03  0.41800000000E+01 0. -1.
         -5    1    3    3    0  502 -0.31305447959E+02 -0.14092023642E+01 -0.10639997685E+02  0.33357141273E+02  0.41800000000E+01 0.  1.
        -11    1    4    4    0    0  0.19088366440E+01 -0.40039451673E+02 -0.17926672967E+03  0.18369366269E+03  0.00000000000E+00 0.  1.
         11    1    4    4    0    0 -0.80378919081E-01  0.33646203493E+02 -0.33360063893E+02  0.47381086239E+02  0.00000000000E+00 0. -1.
</event>
<event>
 8    1  0.5951278E-006  0.1017114E+03  0.7561462E-02  0.1276738E+00
          2   -1    0    0  501    0  0.00000000000E+00  0.00000000000E+00  0.32356741472E+03  0.32356741472E+03  0.00000000000E+00 0. -1.
         -2   -1    0    0    0  501 -0.00000000000E+00 -0.00000000000E+00 -0.48731963979E+02  0.48731963979E+02  0.00000000000E+00 0.  1.
         23    2    1    2    0    0 -0.15281264460E+02 -0.41336106422E+02  0.90111360475E+02  0.16034285002E+03  0.12509029350E+03 0.  0.
         23    2    1    2    0    0  0.15281264460E+02  0.41336106422E+02  0.18472409027E+03  0.21195652868E+03  0.94129643513E+02 0.  0.
          5    1    3    3  502    0  0.31115074016E+02 -0.43418686641E+02 -0.56047127804E+01  0.53872213487E+02  0.41800000000E+01 0.  1.
         -5    1    3    3    0  502 -0.46396338476E+02  0.20825802191E+01  0.95716073255E+02  0.10647063653E+03  0.41800000000E+01 0.  1.
        -11    1    4    4    0    0 -0.12940679418E+02 -0.26636494764E+02  0.64855150014E+02  0.71296244785E+02  0.00000000000E+00 0.  1.
         11    1    4    4    0    0  0.28221943878E+02  0.67972601186E+02  0.11986894026E+03  0.14066028390E+03  0.00000000000E+00 0. -1.
</event>
<event>
 8    1  0.5951278E-006  0.1174381E+03  0.7561462E-02  0.1247384E+00
         -4   -1    0    0    0  501 -0.00000000000E+00  0.00000000000E+00  0.11445311963E+03  0.11445311963E+03  0.00000000000E+00 0.  1.
          4   -1    0    0  501    0  0.00000000000E+00 -0.00000000000E+00 -0.31182333357E+03  0.31182333357E+03  0.00000000000E+00 0. -1.
         23    2    1    2    0    0  0.60916150865E+02 -0.68064851765E+02  0.36573469976E+02  0.15914064983E+03  0.12507808057E+03 0.  0.
         23    2    1    2    0    0 -0.60916150865E+02  0.68064851765E+02 -0.23394368392E+03  0.26713580338E+03  0.91040039113E+02 0.  0.
          5    1    3    3  502    0  0.67168040571E+02 -0.42769147101E+02  0.77009943066E+02  0.11085463161E+03  0.41800000000E+01 0.  1.
         -5    1    3    3    0  502 -0.62518897060E+01 -0.25295704664E+02 -0.40436473090E+02  0.48286018218E+02  0.41800000000E+01 0.  1.
        -11    1    4    4    0    0 -0.77430642730E+02  0.23033764453E+02 -0.15417745796E+03  0.17405960842E+03  0.00000000000E+00 0.  1.
         11    1    4    4    0    0  0.16514491865E+02  0.45031087312E+02 -0.79766225957E+02  0.93076194967E+02  0.00000000000E+00 0. -1.
</event>
<event>
 8    1  0.5951278E-006  0.1114665E+03  0.7561462E-02  0.1257878E+00
         -1   -1    0    0    0  501 -0.00000000000E+00  0.00000000000E+00  0.29514504028E+03  0.29514504028E+03  0.00000000000E+00 0.  1.
          1   -1    0    0  501    0  0.00000000000E+00 -0.00000000000E+00 -0.45795094498E+02  0.45795094498E+02  0.00000000000E+00 0. -1.
         23    2    1    2    0    0 -0.28494756710E+00 -0.32858400901E+02  0.17958030534E+03  0.22130709186E+03  0.12509191476E+03 0.  0.
         23    2    1    2    0    0  0.28494756710E+00  0.32858400901E+02  0.69769640445E+02  0.11963304292E+03  0.91457676140E+02 0.  0.
          5    1    3    3  502    0  0.42621520403E+02 -0.61500824303E+02  0.83693496991E+02  0.11234330968E+03  0.41800000000E+01 0.  1.
         -5    1    3    3    0  502 -0.42906467970E+02  0.28642423402E+02  0.95886808350E+02  0.10896378218E+03  0.41800000000E+01 0.  1.
        -11    1    4    4    0    0 -0.37298729837E+02  0.43374024781E+02  0.49537415226E+02  0.75673355815E+02  0.00000000000E+00 0.  1.
         11    1    4    4    0    0  0.37583677404E+02 -0.10515623880E+02  0.20232225219E+02  0.43959687102E+02  0.00000000000E+00 0. -1.
</event>
<event>
 8    1  0.5951278E-006  0.6791023E+02  0.7561462E-02  0.1367347E+00
         -3   -1    0    0    0  501 -0.00000000000E+00  0.00000000000E+00  0.73993837167E+02  0.73993837167E+02  0.00000000000E+00 0.  1.
          3   -1    0    0  501    0  0.00000000000E+00 -0.00000000000E+00 -0.19033049824E+03  0.19033049824E+03  0.00000000000E+00 0. -1.
         23    2    1    2    0    0  0.72241887822E+01 -0.23361827479E+02 -0.37095688208E+02  0.13272373154E+03  0.12506612229E+03 0.  0.
         23    2    1    2    0    0 -0.72241887822E+01  0.23361827479E+02 -0.79240972869E+02  0.13160060387E+03  0.10218426136E+03 0.  0.
          5    1    3    3  502    0  0.20007118554E+02  0.80936592111E+01 -0.77049934308E+02  0.80124633472E+02  0.41800000000E+01 0. -1.
         -5    1    3    3    0  502 -0.12782929772E+02 -0.31455486690E+02  0.39954246100E+02  0.52599098071E+02  0.41800000000E+01 0. -1.
        -11    1    4    4    0    0 -0.35308135815E+01 -0.27955272376E+02 -0.74833185452E+02  0.79962300761E+02  0.00000000000E+00 0. -1.
         11    1    4    4    0    0 -0.36933752007E+01  0.51317099855E+02 -0.44077874172E+01  0.51638303107E+02  0.00000000000E+00 0.  1.
</event>
<event>
 7    1  0.5951278E-006  0.1534647E+03  0.7561462E-02  0.1196279E+00
         -1   -1    0    0    0  501 -0.00000000000E+00  0.00000000000E+00  0.19585824793E+02  0.19585824793E+02  0.00000000000E+00 0.  1.
          1   -1    0    0  501    0  0.00000000000E+00 -0.00000000000E+00 -0.14470463129E+04  0.14470463129E+04  0.00000000000E+00 0. -1.
         23    2    1    2    0    0  0.94609239777E+02  0.20517320922E+02 -0.48381692661E+03  0.50901687332E+03  0.12508992819E+03 0.  0.
          5    1    3    3  502    0 -0.99010309050E+01  0.36918797207E+02 -0.53607483260E+02  0.65971680755E+02  0.41800000000E+01 0. -1.
         -5    1    3    3    0  502  0.10451027068E+03 -0.16401476285E+02 -0.43020944335E+03  0.44304519256E+03  0.41800000000E+01 0. -1.
        -11    1    1    2    0    0  0.25695710498E+02  0.23184933370E+02 -0.17539288800E+03  0.17877493067E+03  0.00000000000E+00 0. -1.
         11    1    1    2    0    0 -0.12030495027E+03 -0.43702254292E+02 -0.76825067345E+03  0.77884033366E+03  0.00000000000E+00 0.  1.
</event>
<event>
 8    1  0.5951278E-006  0.1207826E+03  0.7561462E-02  0.1241812E+00
          2   -1    0    0  501    0  0.00000000000E+00  0.00000000000E+00  0.28975955931E+03  0.28975955931E+03  0.00000000000E+00 0. -1.
         -2   -1    0    0    0  501 -0.00000000000E+00 -0.00000000000E+00 -0.56708679139E+02  0.56708679139E+02  0.00000000000E+00 0.  1.
         23    2    1    2    0    0  0.59871162434E+02  0.13339642889E+02  0.12808273166E+03  0.18924382091E+03  0.12508211479E+03 0.  0.
         23    2    1    2    0    0 -0.59871162434E+02 -0.13339642889E+02  0.10496814852E+03  0.15722441755E+03  0.99693044420E+02 0.  0.
          5    1    3    3  502    0  0.39251879312E+01  0.55026541434E+02  0.16776696566E+02  0.57812259169E+02  0.41800000000E+01 0. -1.
         -5    1    3    3    0  502  0.55945974503E+02 -0.41686898545E+02  0.11130603509E+03  0.13143156174E+03  0.41800000000E+01 0. -1.
        -11    1    4    4    0    0 -0.79528220441E+02 -0.35180649905E+02  0.85650353517E+02  0.12205899816E+03  0.00000000000E+00 0.  1.
         11    1    4    4    0    0  0.19657058007E+02  0.21841007015E+02  0.19317795002E+02  0.35165419387E+02  0.00000000000E+00 0. -1.
</event>
<event>
 8    1  0.5951278E-006  0.2353442E+03  0.7561462E-02  0.1122934E+00
         -2   -1    0    0    0  501 -0.00000000000E+00  0.00000000000E+00  0.60047614491E+02  0.60047614491E+02  0.00000000000E+00 0.  1.
          2   -1    0    0  501    0  0.00000000000E+00 -0.00000000000E+00 -0.96521269818E+03  0.96521269818E+03  0.00000000000E+00 0. -1.
         23    2    1    2    0    0  0.17298875607E+03  0.12498175016E+03 -0.51861246811E+03  0.57458806117E+03  0.12508797045E+03 0.  0.
         23    2    1    2    0    0 -0.17298875607E+03 -0.12498175016E+03 -0.38655261558E+03  0.45067225151E+03  0.90205354999E+02 0.  0.
          5    1    3    3  502    0  0.60937827461E+02 -0.12182001015E+02 -0.20662538950E+03  0.21580858174E+03  0.41800000000E+01 0.  1.
         -5    1    3    3    0  502  0.11205092861E+03  0.13716375117E+03 -0.31198707861E+03  0.35877947943E+03  0.41800000000E+01 0.  1.
        -11    1    4    4    0    0 -0.18256871294E+03 -0.10906869334E+03 -0.36256528198E+03  0.42033426997E+03  0.00000000000E+00 0. -1.
         11    1    4    4    0    0  0.95799568711E+01 -0.15913056813E+02 -0.23987333597E+02  0.30337981539E+02  0.00000000000E+00 0.  1.
</event>
<event>
 7    1  0.5951278E-006  0.1254496E+03  0.7561462E-02  0.1234368E+00
          1   -1    0    0  501    0  0.00000000000E+00  0.00000000000E+00  0.27363087198E+03  0.27363087198E+03  0.00000000000E+00 0. -1.
         -1   -1    0    0    0  501 -0.00000000000E+00 -0.00000000000E+00 -0.65548521925E+02  0.65548521925E+02  0.00000000000E+00 0.  1.
         23    2    1    2    0    0  0.90752196532E+02  0.16781990376E+02  0.83399698744E+02  0.17641186539E+03  0.12509212654E+03 0.  0.
          5    1    3    3  502    0  0.13609445307E+01  0.53738353813E+02  0.98174732528E+01  0.54804361337E+02  0.41800000000E+01 0. -1.
         -5    1    3    3    0  502  0.89391252001E+02 -0.36956363436E+02  0.73582225491E+02  0.12160750405E+03  0.41800000000E+01 0. -1.
        -11    1    1    2    0    0 -0.73074717161E+02  0.36228037651E+01  0.67558390573E+02  0.99585014596E+02  0.00000000000E+00 0.  1.
         11    1    1    2    0    0 -0.17677479370E+02 -0.20404794141E+02  0.57124260734E+02  0.63182513920E+02  0.00000000000E+00 0. -1.
</event>
<event>
 8    1  0.5951278E-006  0.1060187E+03  0.7561462E-02  0.1268125E+00
         -1   -1    0    0    0  501 -0.00000000000E+00  0.00000000000E+00  0.63521787962E+02  0.63521787962E+02  0.00000000000E+00 0.  1.
          1   -1    0    0  501    0  0.00000000000E+00 -0.00000000000E+00 -0.27971896683E+03  0.27971896683E+03  0.00000000000E+00 0. -1.
         23    2    1    2    0    0 -0.11246809226E+02 -0.62228602630E+02 -0.51111605622E+02  0.14920514254E+03  0.12510351165E+03 0.  0.
         23    2    1    2    0    0  0.11246809226E+02  0.62228602630E+02 -0.16508557324E+03  0.19403561225E+03  0.79985515097E+02 0.  0.
          5    1    3    3  502    0  0.55097467194E+02 -0.39495540357E+02 -0.12573202868E+02  0.69073775266E+02  0.41800000000E+01 0. -1.
         -5    1    3    3    0  502 -0.66344276419E+02 -0.22733062274E+02 -0.38538402754E+02  0.80131367272E+02  0.41800000000E+01 0. -1.
        -11    1    4    4    0    0  0.19373062016E+02  0.11589354304E+02 -0.12988133071E+03  0.13182863396E+03  0.00000000000E+00 0. -1.
         11    1    4    4    0    0 -0.81262527903E+01  0.50639248326E+02 -0.35204242531E+02  0.62206978287E+02  0.00000000000E+00 0.  1.
</event>
<event>
 8    1  0.5951278E-006  0.1019947E+03  0.7561462E-02  0.1276156E+00
         -2   -1    0    0    0  501 -0.00000000000E+00  0.00000000000E+00  0.38512329808E+03  0.38512329808E+03  0.00000000000E+00 0.  1.
          2   -1    0    0  501    0  0.00000000000E+00 -0.00000000000E+00 -0.42357221037E+02  0.42357221037E+02  0.00000000000E+00 0. -1.
         23    2    1    2    0    0  0.45852380257E+02 -0.23947736638E+02  0.27028111156E+03  0.30227104135E+03  0.12505985888E+03 0.  0.
         23    2    1    2    0    0 -0.45852380257E+02  0.23947736638E+02  0.72484965480E+02  0.12520947777E+03  0.88019362856E+02 0.  0.
          5    1    3    3  502    0  0.55532176457E+02  0.18814487007E+02  0.48639932483E+02  0.76296284151E+02  0.41800000000E+01 0. -1.
         -5    1    3    3    0  502 -0.96797961998E+01 -0.42762223645E+02  0.22164117908E+03  0.22597475719E+03  0.41800000000E+01 0. -1.
        -11    1    4    4    0    0  0.19861210700E+02  0.29119628801E+02  0.33495986087E+02  0.48625112400E+02  0.00000000000E+00 0. -1.
         11    1    4    4    0    0 -0.65713590957E+02 -0.51718921630E+01  0.38988979393E+02  0.76584365370E+02  0.00000000000E+00 0.  1.
</event>
<event>
 8    1  0.5951278E-006  0.1287709E+03  0.7561462E-02  0.1229291E+00
         -2   -1    0    0    0  501 -0.00000000000E+00  0.00000000000E+00  0.22074155234E+03  0.22074155234E+03  0.00000000000E+00 0.  1.
          2   -1    0    0  501    0  0.00000000000E+00 -0.00000000000E+00 -0.13896646185E+03  0.13896646185E+03  0.00000000000E+00 0. -1.
         23    2    1    2    0    0  0.10723342892E+02  0.98745057431E+02  0.13528797842E+03  0.20932039832E+03  0.12508643251E+03 0.  0.
         23    2    1    2    0    0 -0.10723342892E+02 -0.98745057431E+02 -0.53512887930E+02  0.15038761587E+03  0.99434548238E+02 0.  0.
          5    1    3    3  502    0 -0.36193474333E+01 -0.27400523363E+02  0.70703891114E+01  0.28833160746E+02  0.41800000000E+01 0. -1.
         -5    1    3    3    0  502  0.14342690326E+02  0.12614558079E+03  0.12821758931E+03  0.18048723758E+03  0.41800000000E+01 0. -1.
        -11    1    4    4    0    0 -0.18742084959E+02 -0.80139422965E+02  0.10755315500E+02  0.83001624522E+02  0.00000000000E+00 0.  1.
         11    1    4    4    0    0  0.80187420663E+01 -0.18605634466E+02 -0.64268203429E+02  0.67385991350E+02  0.00000000000E+00 0. -1.
</event>
<event>
 8    1  0.5951278E-006  0.1079891E+03  0.7561462E-02  0.1264340E+00
         -2   -1    0    0    0  501 -0.00000000000E+00  0.00000000000E+00  0.15746680560E+03  0.15746680560E+03  0.00000000000E+00 0.  1.
          2   -1    0    0  501    0  0.00000000000E+00 -0.00000000000E+00 -0.99953101780E+02  0.99953101780E+02  0.00000000000E+00 0. -1.
         23    2    1    2    0    0  0.60869139847E+01  0.58723291089E+02  0.54544917017E+02  0.14868419317E+03  0.12508543436E+03 0.  0.
         23    2    1    2    0    0 -0.60869139847E+01 -0.58723291089E+02  0.29687868065E+01  0.10873571421E+03  0.91264266894E+02 0.  0.
          5    1    3    3  502    0  0.61265051198E+02  0.60834638939E+01  0.20074571377E+02  0.64891261717E+02  0.41800000000E+01 0. -1.
         -5    1    3    3    0  502 -0.55178137213E+02  0.52639827195E+02  0.34470345640E+02  0.83792931456E+02  0.41800000000E+01 0. -1.
        -11    1    4    4    0    0  0.22290210216E+02 -0.20449001140E+02  0.38743613544E+02  0.49153664254E+02  0.00000000000E+00 0.  1.
         11    1    4    4    0    0 -0.28377124201E+02 -0.38274289949E+02 -0.35774826738E+02  0.59582049957E+02  0.00000000000E+00 0. -1.
</event>
<event>
 8    1  0.5951278E-006  0.1120894E+03  0.7561462E-02  0.1256749E+00
          2   -1    0    0  501    0  0.00000000000E+00  0.00000000000E+00  0.77903230257E+02  0.77903230257E+02  0.00000000000E+00 0. -1.
         -2   -1    0    0    0  501 -0.00000000000E+00 -0.00000000000E+00 -0.20211786389E+03  0.20211786389E+03  0.00000000000E+00 0.  1.
         23    2    1    2    0    0  0.22451222790E+02  0.38394093944E+02 -0.12152075163E+03  0.17998014389E+03  0.12508954897E+03 0.  0.
         23    2    1    2    0    0 -0.22451222790E+02 -0.38394093944E+02 -0.26938820052E+01  0.10004095026E+03  0.89569921706E+02 0.  0.
          5    1    3    3  502    0 -0.18542132572E+02  0.74721153625E+02 -0.61571680865E+02  0.98669173321E+02  0.41800000000E+01 0.  1.
         -5    1    3    3    0  502  0.40993355361E+02 -0.36327059681E+02 -0.59949070766E+02  0.81310970567E+02  0.41800000000E+01 0.  1.
        -11    1    4    4    0    0  0.57652229160E+01 -0.57680200336E+02  0.17237262645E+02  0.60476164971E+02  0.00000000000E+00 0. -1.
         11    1    4    4    0    0 -0.28216445706E+02  0.19286106392E+02 -0.19931144650E+02  0.39564785291E+02  0.00000000000E+00 0.  1.
</event>
<event>
 8    1  0.5951278E-006  0.1372024E+03  0.7561462E-02  0.1217144E+00
         -1   -1    0    0    0  501 -0.00000000000E+00  0.00000000000E+00  0.45699064931E+03  0.45699064931E+03  0.00000000000E+00 0.  1.
          1   -1    0    0  501    0  0.00000000000E+00 -0.00000000000E+00 -0.52955912860E+02  0.52955912860E+02  0.00000000000E+00 0. -1.
         23    2    1    2    0    0 -0.98031750658E+02 -0.47662326132E+02  0.28096480878E+03  0.32629864774E+03  0.12509061626E+03 0.  0.
         23    2    1    2    0    0  0.98031750658E+02  0.47662326132E+02  0.12306992767E+03  0.18364791443E+03  0.81843924077E+02 0.  0.
          5    1    3    3  502    0 -0.41175603115E+01 -0.61934273740E+02  0.63209713376E+02  0.88689057001E+02  0.41800000000E+01 0. -1.
         -5    1    3    3    0  502 -0.93914190346E+02  0.14271947608E+02  0.21775509541E+03  0.23760959074E+03  0.41800000000E+01 0. -1.
        -11    1    4    4    0    0  0.15649817115E+02 -0.81071964082E+01  0.67359968229E+02  0.69627643427E+02  0.00000000000E+00 0.  1.
         11    1    4    4    0    0  0.82381933543E+02  0.55769522540E+02  0.55709959439E+02  0.11402027100E+03  0.00000000000E+00 0. -1.
</event>
<event>
 8    1  0.5951278E-006  0.1279233E+03  0.7561462E-02  0.1230570E+00
          1   -1    0    0  501    0  0.00000000000E+00  0.00000000000E+00  0.65126966836E+03  0.65126966836E+03  0.00000000000E+00 0. -1.
         -1   -1    0    0    0  501 -0.00000000000E+00 -0.00000000000E+00 -0.27792592875E+02  0.27792592875E+02  0.00000000000E+00 0.  1.
         23    2    1    2    0    0 -0.54251370956E+02 -0.55814175045E+02  0.38319278539E+03  0.41053878924E+03  0.12508778240E+03 0.  0.
         23    2    1    2    0    0  0.54251370956E+02  0.55814175045E+02  0.24028429010E+03  0.26852347200E+03  0.91158551771E+02 0.  0.
          5    1    3    3  502    0 -0.41806224873E+02 -0.91659603703E+02  0.20691541878E+03  0.23017538165E+03  0.41800000000E+01 0. -1.
         -5    1    3    3    0  502 -0.12445146083E+02  0.35845428658E+02  0.17627736661E+03  0.18036340759E+03  0.41800000000E+01 0. -1.
        -11    1    4    4    0    0  0.20989294914E+01  0.64014839595E+02  0.10129721502E+03  0.11984753216E+03  0.00000000000E+00 0.  1.
         11    1    4    4    0    0  0.52152441465E+02 -0.82006645495E+01  0.13898707507E+03  0.14867593984E+03  0.00000000000E+00 0. -1.
</event>
<event>
 8    1  0.5951278E-006  0.1072538E+03  0.7561462E-02  0.1265742E+00
          2   -1    0    0  501    0  0.00000000000E+00  0.00000000000E+00  0.17889325798E+03  0.17889325798E+03  0.00000000000E+00 0. -1.
         -2   -1    0    0    0  501 -0.00000000000E+00 -0.00000000000E+00 -0.12615055264E+03  0.12615055264E+03  0.00000000000E+00 0.  1.
         23    2    1    2    0    0 -0.92161403443E+02 -0.32191999694E+02  0.62222971277E+02  0.17043775669E+03  0.12508909473E+03 0.  0.
         23    2    1    2    0    0  0.92161403443E+02  0.32191999694E+02 -0.94802659386E+01  0.13460605393E+03  0.92189289958E+02 0.  0.
          5    1    3    3  502    0 -0.77064046248E+02 -0.13016450110E+02 -0.23091595326E+02  0.81602630915E+02  0.41800000000E+01 0.  1.
         -5    1    3    3    0  502 -0.15097357195E+02 -0.19175549584E+02  0.85314566603E+02  0.88835125771E+02  0.41800000000E+01 0.  1.
        -11    1    4    4    0    0  0.64267987257E+02  0.47262203551E+02  0.28878276361E+02  0.84841292518E+02  0.00000000000E+00 0. -1.
         11    1    4    4    0    0  0.27893416186E+02 -0.15070203857E+02 -0.38358542300E+02  0.49764761410E+02  0.00000000000E+00 0.  1.
</event>
<event>
 8    1  0.5951278E-006  0.1332110E+03  0.7561462E-02  0.1222767E+00
         -4   -1    0    0    0  501 -0.00000000000E+00  0.00000000000E+00  0.21106233051E+03  0.21106233051E+03  0.00000000000E+00 0.  1.
          4   -1    0    0  501    0  0.00000000000E+00 -0.00000000000E+00 -0.11406289929E+03  0.11406289929E+03  0.00000000000E+00 0. -1.
         23    2    1    2    0    0  0.39368997138E+02 -0.98832541837E+02  0.79242475647E+02  0.18232062320E+03  0.12507457950E+03 0.  0.
         23    2    1    2    0    0 -0.39368997138E+02  0.98832541837E+02  0.17756955572E+02  0.14280460659E+03  0.93595175789E+02 0.  0.
          5    1    3    3  502    0  0.47828044727E+02  0.10293034915E+02  0.36525872443E+01  0.49237000556E+02  0.41800000000E+01 0.  1.
         -5    1    3    3    0  502 -0.84590475892E+01 -0.10912557675E+03  0.75589888403E+02  0.13308362265E+03  0.41800000000E+01 0.  1.
        -11    1    4    4    0    0 -0.36971458930E+02  0.72846165664E+02  0.54159758369E+02  0.98013938059E+02  0.00000000000E+00 0.  1.
         11    1    4    4    0    0 -0.23975382082E+01  0.25986376174E+02 -0.36402802797E+02  0.44790668532E+02  0.00000000000E+00 0. -1.
</event>
<event>
 8    1  0.5951278E-006  0.1570309E+03  0.7561462E-02  0.1192090E+00
          1   -1    0    0  501    0  0.00000000000E+00  0.00000000000E+00  0.59184732043E+02  0.59184732043E+02  0.00000000000E+00 0. -1.
         -1   -1    0    0    0  501 -0.00000000000E+00 -0.00000000000E+00 -0.45372731892E+03  0.45372731892E+03  0.00000000000E+00 0.  1.
         23    2    1    2    0    0  0.92755755709E+02 -0.80349294172E+02 -0.22236724345E+03  0.28311953454E+03  0.12509932287E+03 0.  0.
         23    2    1    2    0    0 -0.92755755709E+02  0.80349294172E+02 -0.17217534342E+03  0.22979251642E+03  0.90003402335E+02 0.  0.
          5    1    3    3  502    0  0.30857109841E+02 -0.10369239645E+03 -0.12554484971E+03  0.16578074677E+03  0.41800000000E+01 0. -1.
         -5    1    3    3    0  502  0.61898645867E+02  0.23343102282E+02 -0.96822393740E+02  0.11733878776E+03  0.41800000000E+01 0. -1.
        -11    1    4    4    0    0 -0.70387544245E+02  0.17119910434E+02 -0.13475198628E+03  0.15298887386E+03  0.00000000000E+00 0.  1.
         11    1    4    4    0    0 -0.22368211464E+02  0.63229383738E+02 -0.37423357143E+02  0.76803642568E+02  0.00000000000E+00 0. -1.
</event>
<event>
 8    1  0.5951278E-006  0.1126120E+03  0.7561462E-02  0.1255808E+00
          1   -1    0    0  501    0  0.00000000000E+00  0.00000000000E+00  0.86085369435E+03  0.86085369435E+03  0.00000000000E+00 0. -1.
         -1   -1    0    0    0  501 -0.00000000000E+00 -0.00000000000E+00 -0.19566593539E+02  0.19566593539E+02  0.00000000000E+00 0.  1.
         23    2    1    2    0    0 -0.65482779931E+02  0.98733266261E+01  0.39033790980E+03  0.41520666147E+03  0.12508961129E+03 0.  0.
         23    2    1    2    0    0  0.65482779931E+02 -0.98733266261E+01  0.45094919101E+03  0.46521362642E+03  0.93182982835E+02 0.  0.
          5    1    3    3  502    0 -0.88377057110E+02  0.14149210477E+02  0.15776477327E+03  0.18143290899E+03  0.41800000000E+01 0.  1.
         -5    1    3    3    0  502  0.22894277180E+02 -0.42758838513E+01  0.23257313653E+03  0.23377375248E+03  0.41800000000E+01 0.  1.
        -11    1    4    4    0    0 -0.21740492840E+02 -0.11761150304E+02  0.14402548780E+03  0.14613115623E+03  0.00000000000E+00 0. -1.
         11    1    4    4    0    0  0.87223272770E+02  0.18878236782E+01  0.30692370321E+03  0.31908247019E+03  0.00000000000E+00 0.  1.
</event>
<event>
 8    1  0.5951278E-006  0.1144424E+03  0.7561462E-02  0.1252558E+00
          2   -1    0    0  501    0  0.00000000000E+00  0.00000000000E+00  0.76241305698E+02  0.76241305698E+02  0.00000000000E+00 0. -1.
         -2   -1    0    0    0  501 -0.00000000000E+00 -0.00000000000E+00 -0.19487069752E+03  0.19487069752E+03  0.00000000000E+00 0.  1.
         23    2    1    2    0    0 -0.49395256015E+02  0.15210133522E+02 -0.57665582606E+02  0.14711986456E+03  0.12509074967E+03 0.  0.
         23    2    1    2    0    0  0.49395256015E+02 -0.15210133522E+02 -0.60963809212E+02  0.12399213865E+03  0.94795701037E+02 0.  0.
          5    1    3    3  502    0 -0.64107091350E+02  0.50980432768E+02 -0.57075386188E+01  0.82211751494E+02  0.41800000000E+01 0.  1.
         -5    1    3    3    0  502  0.14711835335E+02 -0.35770299246E+02 -0.51958043988E+02  0.64908113068E+02  0.41800000000E+01 0.  1.
        -11    1    4    4    0    0  0.77782246036E+02 -0.16653388036E+02 -0.44674091519E+02  0.91231505438E+02  0.00000000000E+00 0. -1.
         11    1    4    4    0    0 -0.28386990021E+02  0.14432545138E+01 -0.16289717693E+02  0.32760633214E+02  0.00000000000E+00 0.  1.
</event>
<event>
 8    1  0.5951278E-006  0.9994474E+02  0.7561462E-02  0.1280412E+00
         -1   -1    0    0    0  501 -0.00000000000E+00  0.00000000000E+00  0.26051000314E+02  0.26051000314E+02  0.00000000000E+00 0.  1.
          1   -1    0    0  501    0  0.00000000000E+00 -0.00000000000E+00 -0.51123593358E+03  0.51123593358E+03  0.00000000000E+00 0. -1.
         23    2    1    2    0    0 -0.24140940768E+02  0.31430039500E+02 -0.27155811014E+03  0.30159954262E+03  0.12509134471E+03 0.  0.
         23    2    1    2    0    0  0.24140940768E+02 -0.31430039500E+02 -0.21362682312E+03  0.23568739127E+03  0.91331782218E+02 0.  0.
          5    1    3    3  502    0  0.34308694414E+02 -0.33535323422E+00 -0.20321728591E+03  0.20613572390E+03  0.41800000000E+01 0. -1.
         -5    1    3    3    0  502 -0.58449635182E+02  0.31765392734E+02 -0.68340824233E+02  0.95463818723E+02  0.41800000000E+01 0. -1.
        -11    1    4    4    0    0 -0.66437617322E+01  0.29589008082E+02 -0.51865708503E+02  0.60080784680E+02  0.00000000000E+00 0. -1.
         11    1    4    4    0    0  0.30784702500E+02 -0.61019047582E+02 -0.16176111462E+03  0.17560660659E+03  0.00000000000E+00 0.  1.
</event>
<event>
 8    1  0.5951278E-006  0.1075390E+03  0.7561462E-02  0.1265196E+00
         -3   -1    0    0    0  501 -0.00000000000E+00  0.00000000000E+00  0.48600670740E+03  0.48600670740E+03  0.00000000000E+00 0.  1.
          3   -1    0    0  501    0  0.00000000000E+00 -0.00000000000E+00 -0.29197986824E+02  0.29197986824E+02  0.00000000000E+00 0. -1.
         23    2    1    2    0    0  0.30594348683E+02 -0.33917681885E+02  0.30080377441E+03  0.32896313972E+03  0.12508962099E+03 0.  0.
         23    2    1    2    0    0 -0.30594348683E+02  0.33917681885E+02  0.15600494617E+03  0.18624155451E+03  0.90895269849E+02 0.  0.
          5    1    3    3  502    0 -0.58493645123E+01  0.36251518738E+02  0.18514718071E+03  0.18879973146E+03  0.41800000000E+01 0. -1.
         -5    1    3    3    0  502  0.36443713195E+02 -0.70169200622E+02  0.11565659370E+03  0.14016340826E+03  0.41800000000E+01 0. -1.
        -11    1    4    4    0    0  0.58293179716E+01  0.56029047706E+02  0.10968095149E+03  0.12330103915E+03  0.00000000000E+00 0. -1.
         11    1    4    4    0    0 -0.36423666654E+02 -0.22111365821E+02  0.46323994678E+02  0.62940515361E+02  0.00000000000E+00 0.  1.
</event>
<event>
 8    1  0.5951278E-006  0.1090817E+03  0.7561462E-02  0.1262280E+00
         -2   -1    0    0    0  501 -0.00000000000E+00  0.00000000000E+00  0.39396231910E+02  0.39396231910E+02  0.00000000000E+00 0.  1.
          2   -1    0    0  501    0  0.00000000000E+00 -0.00000000000E+00 -0.32502726666E+03  0.32502726666E+03  0.00000000000E+00 0. -1.
         23    2    1    2    0    0  0.11815933418E+02  0.32950321465E+02 -0.14820165706E+03  0.19707655780E+03  0.12510035376E+03 0.  0.
         23    2    1    2    0    0 -0.11815933418E+02 -0.32950321465E+02 -0.13742937769E+03  0.16734694077E+03  0.88841571158E+02 0.  0.
          5    1    3    3  502    0 -0.51927889283E+02  0.38120708315E+00 -0.33933563801E+02  0.62174031206E+02  0.41800000000E+01 0.  1.
         -5    1    3    3    0  502  0.63743822701E+02  0.32569114381E+02 -0.11426809326E+03  0.13490252659E+03  0.41800000000E+01 0.  1.
        -11    1    4    4    0    0  0.80398675235E+01 -0.60150560966E+02 -0.10021577002E+03  0.11715771428E+03  0.00000000000E+00 0. -1.
         11    1    4    4    0    0 -0.19855800942E+02  0.27200239502E+02 -0.37213607672E+02  0.50189226493E+02  0.00000000000E+00 0.  1.
</event>
<event>
 8    1  0.5951278E-006  0.8600154E+02  0.7561462E-02  0.1312834E+00
          1   -1    0    0  501    0  0.00000000000E+00  0.00000000000E+00  0.44141015202E+02  0.44141015202E+02  0.00000000000E+00 0. -1.
         -1   -1    0    0    0  501 -0.00000000000E+00 -0.00000000000E+00 -0.28114222095E+03  0.28114222095E+03  0.00000000000E+00 0.  1.
         23    2    1    2    0    0  0.14883220168E+02  0.78858373962E+01 -0.15808989534E+03  0.20229568857E+03  0.12508970354E+03 0.  0.
         23    2    1    2    0    0 -0.14883220168E+02 -0.78858373962E+01 -0.78911310411E+02  0.12298754758E+03  0.92818345576E+02 0.  0.
          5    1    3    3  502    0  0.58044499146E+02 -0.27696774609E+02 -0.11396646881E+03  0.13092785654E+03  0.41800000000E+01 0. -1.
         -5    1    3    3    0  502 -0.43161278978E+02  0.35582612005E+02 -0.44123426525E+02  0.71367832028E+02  0.41800000000E+01 0. -1.
        -11    1    4    4    0    0 -0.23804991493E+02 -0.23516681335E+02 -0.93825112126E+02  0.99613571297E+02  0.00000000000E+00 0.  1.
         11    1    4    4    0    0  0.89217713249E+01  0.15630843938E+02  0.14913801715E+02  0.23373976286E+02  0.00000000000E+00 0. -1.
</event>
<event>
 8    1  0.5951278E-006  0.8952526E+02  0.7561462E-02  0.1304005E+00
         -1   -1    0    0    0  501 -0.00000000000E+00  0.00000000000E+00  0.75771986786E+02  0.75771986786E+02  0.00000000000E+00 0.  1.
          1   -1    0    0  501    0  0.00000000000E+00 -0.00000000000E+00 -0.21359919044E+03  0.21359919044E+03  0.00000000000E+00 0. -1.
         23    2    1    2    0    0  0.14531255447E+02 -0.34063840295E+02 -0.14481401666E+02  0.13125901529E+03  0.12509082900E+03 0.  0.
         23    2    1    2    0    0 -0.14531255447E+02  0.34063840295E+02 -0.12334580198E+03  0.15811216193E+03  0.91726584390E+02 0.  0.
          5    1    3    3  502    0 -0.21081604071E+02 -0.38591342296E+02  0.44104927982E+02  0.62421493115E+02  0.41800000000E+01 0.  1.
         -5    1    3    3    0  502  0.35612859518E+02  0.45275020013E+01 -0.58586329648E+02  0.68837522174E+02  0.41800000000E+01 0.  1.
        -11    1    4    4    0    0 -0.92404854483E+01 -0.31567356197E+02 -0.36617629532E+02  0.49221289511E+02  0.00000000000E+00 0.  1.
         11    1    4    4    0    0 -0.52907699985E+01  0.65631196492E+02 -0.86728172452E+02  0.10889087242E+03  0.00000000000E+00 0. -1.
</event>
<event>
 8    1  0.5951278E-006  0.2546829E+03  0.7561462E-02  0.1110381E+00
         -2   -1    0    0    0  501 -0.00000000000E+00  0.00000000000E+00  0.86330603820E+02  0.86330603820E+02  0.00000000000E+00 0.  1.
          2   -1    0    0  501    0  0.00000000000E+00 -0.00000000000E+00 -0.10123863312E+04  0.10123863312E+04  0.00000000000E+00 0. -1.
         23    2    1    2    0    0 -0.87160048768E+02  0.23236691146E+03 -0.25325551924E+03  0.37600409566E+03  0.12509782687E+03 0.  0.
         23    2    1    2    0    0  0.87160048768E+02 -0.23236691146E+03 -0.67280020812E+03  0.72271283934E+03  0.89791271582E+02 0.  0.
          5    1    3    3  502    0 -0.59879401742E+02  0.17622489170E+03 -0.10190258216E+03  0.21223186344E+03  0.41800000000E+01 0. -1.
         -5    1    3    3    0  502 -0.27280647027E+02  0.56142019757E+02 -0.15135293708E+03  0.16377223223E+03  0.41800000000E+01 0. -1.
        -11    1    4    4    0    0  0.31752914726E+02 -0.18511911271E+03 -0.43004703757E+03  0.46927368134E+03  0.00000000000E+00 0.  1.
         11    1    4    4    0    0  0.55407134042E+02 -0.47247798754E+02 -0.24275317056E+03  0.25343915799E+03  0.00000000000E+00 0. -1.
</event>
<event>
 8    1  0.5951278E-006  0.1106031E+03  0.7561462E-02  0.1259457E+00
         -3   -1    0    0    0  501 -0.00000000000E+00  0.00000000000E+00  0.59601153897E+03  0.59601153897E+03  0.00000000000E+00 0.  1.
          3   -1    0    0  501    0  0.00000000000E+00 -0.00000000000E+00 -0.27435966328E+02  0.27435966328E+02  0.00000000000E+00 0. -1.
         23    2    1    2    0    0  0.59860491558E+02 -0.16916421828E+02  0.38082344130E+03  0.40563866529E+03  0.12508712784E+03 0.  0.
         23    2    1    2    0    0 -0.59860491558E+02  0.16916421828E+02  0.18775213133E+03  0.21780884001E+03  0.91216139958E+02 0.  0.
          5    1    3    3  502    0  0.84797786973E+01  0.37938608760E+02  0.26252650426E+03  0.26542208371E+03  0.41800000000E+01 0. -1.
         -5    1    3    3    0  502  0.51380712861E+02 -0.54855030588E+02  0.11829693705E+03  0.14021658158E+03  0.41800000000E+01 0. -1.
        -11    1    4    4    0    0 -0.13892418708E+02  0.48897250652E+02  0.62161389507E+02  0.80299307371E+02  0.00000000000E+00 0. -1.
         11    1    4    4    0    0 -0.45968072850E+02 -0.31980828824E+02  0.12559074183E+03  0.13750953264E+03  0.00000000000E+00 0.  1.
</event>
<event>
 8    1  0.5951278E-006  0.1058854E+03  0.7561462E-02  0.1268385E+00
          3   -1    0    0  501    0  0.00000000000E+00  0.00000000000E+00  0.48588795174E+03  0.48588795174E+03  0.00000000000E+00 0. -1.
         -3   -1    0    0    0  501 -0.00000000000E+00 -0.00000000000E+00 -0.33853422396E+02  0.33853422396E+02  0.00000000000E+00 0.  1.
         23    2    1    2    0    0 -0.33317028877E+02 -0.40498901209E+02  0.16437813153E+03  0.21311300549E+03  0.12508715990E+03 0.  0.
         23    2    1    2    0    0  0.33317028877E+02  0.40498901209E+02  0.28765639781E+03  0.30662836864E+03  0.92328586259E+02 0.  0.
          5    1    3    3  502    0 -0.71348065057E+02 -0.56026546847E+02  0.88926281290E+02  0.12710183414E+03  0.41800000000E+01 0. -1.
         -5    1    3    3    0  502  0.38031036180E+02  0.15527645638E+02  0.75451850236E+02  0.86011171344E+02  0.41800000000E+01 0. -1.
        -11    1    4    4    0    0 -0.90818444033E+01  0.35886680617E+02  0.36889540276E+02  0.52260615431E+02  0.00000000000E+00 0.  1.
         11    1    4    4    0    0  0.42398873281E+02  0.46122205917E+01  0.25076685754E+03  0.25436775321E+03  0.00000000000E+00 0. -1.
</event>
<event>
 8    1  0.5951278E-006  0.1084668E+03  0.7561462E-02  0.1263436E+00
         -1   -1    0    0    0  501 -0.00000000000E+00  0.00000000000E+00  0.71807379887E+02  0.71807379887E+02  0.00000000000E+00 0.  1.
          1   -1    0    0  501    0  0.00000000000E+00 -0.00000000000E+00 -0.20502092641E+03  0.20502092641E+03  0.00000000000E+00 0. -1.
         23    2    1    2    0    0  0.20878426999E+02 -0.53418453221E+02 -0.32902024896E+02  0.12981846096E+03  0.11171772333E+03 0.  0.
         23    2    1    2    0    0 -0.20878426999E+02  0.53418453221E+02 -0.10031152162E+03  0.14700984533E+03  0.90884835890E+02 0.  0.
          5    1    3    3  502    0 -0.45972866867E+02 -0.17475633359E+02 -0.16578883935E+02  0.52069511634E+02  0.41800000000E+01 0. -1.
         -5    1    3    3    0  502  0.66851293866E+02 -0.35942819862E+02 -0.16323140961E+02  0.77748949331E+02  0.41800000000E+01 0.  1.
        -11    1    4    4    0    0 -0.36004589803E+01  0.68517479140E+02 -0.33471677679E+02  0.76341086312E+02  0.00000000000E+00 0.  1.
         11    1    4    4    0    0 -0.17277968019E+02 -0.15099025919E+02 -0.66839843943E+02  0.70668759016E+02  0.00000000000E+00 0. -1.
</event>
<event>
 8    1  0.5951278E-006  0.1510395E+03  0.7561462E-02  0.1199202E+00
         -3   -1    0    0    0  501 -0.00000000000E+00  0.00000000000E+00  0.32593417491E+03  0.32593417491E+03  0.00000000000E+00 0.  1.
          3   -1    0    0  501    0  0.00000000000E+00 -0.00000000000E+00 -0.91376452633E+02  0.91376452633E+02  0.00000000000E+00 0. -1.
         23    2    1    2    0    0  0.10300651183E+03 -0.68064894302E+02  0.18735867907E+03  0.25689234088E+03  0.12508888385E+03 0.  0.
         23    2    1    2    0    0 -0.10300651183E+03  0.68064894302E+02  0.47199043212E+02  0.16041828667E+03  0.90901626513E+02 0.  0.
          5    1    3    3  502    0  0.62708473656E+02  0.14093977606E+02  0.22376911205E+02  0.68184979490E+02  0.41800000000E+01 0. -1.
         -5    1    3    3    0  502  0.40298038174E+02 -0.82158871908E+02  0.16498176786E+03  0.18870736139E+03  0.41800000000E+01 0. -1.
        -11    1    4    4    0    0 -0.10757382923E+03  0.35645537076E+02  0.56155230096E+02  0.12647585902E+03  0.00000000000E+00 0.  1.
         11    1    4    4    0    0  0.45673173982E+01  0.32419357227E+02 -0.89561868844E+01  0.33942427649E+02  0.00000000000E+00 0. -1.
</event>
<event>
 8    1  0.5951278E-006  0.1310956E+03  0.7561462E-02  0.1225839E+00
         -2   -1    0    0    0  501 -0.00000000000E+00  0.00000000000E+00  0.17329804371E+02  0.17329804371E+02  0.00000000000E+00 0.  1.
          2   -1    0    0  501    0  0.00000000000E+00 -0.00000000000E+00 -0.10503125758E+04  0.10503125758E+04  0.00000000000E+00 0. -1.
         23    2    1    2    0    0  0.47493305062E+02  0.59169679315E+02 -0.46436319068E+03  0.48686597097E+03  0.12509450769E+03 0.  0.
         23    2    1    2    0    0 -0.47493305062E+02 -0.59169679315E+02 -0.56861958075E+03  0.58077640920E+03  0.90644056045E+02 0.  0.
          5    1    3    3  502    0  0.84001552550E+02  0.66325465678E+02 -0.30834640781E+03  0.32642044642E+03  0.41800000000E+01 0.  1.
         -5    1    3    3    0  502 -0.36508247489E+02 -0.71557863633E+01 -0.15601678286E+03  0.16044552455E+03  0.41800000000E+01 0.  1.
        -11    1    4    4    0    0  0.27078293914E+02 -0.17037635064E+02 -0.13061340433E+03  0.13447444515E+03  0.00000000000E+00 0.  1.
         11    1    4    4    0    0 -0.74571598976E+02 -0.42132044251E+02 -0.43800617643E+03  0.44630196405E+03  0.00000000000E+00 0. -1.
</event>
<event>
 8    1  0.5951278E-006  0.3614188E+02  0.7561462E-02  0.1538688E+00
          1   -1    0    0  501    0  0.00000000000E+00  0.00000000000E+00  0.27669020281E+03  0.27669020281E+03  0.00000000000E+00 0. -1.
         -1   -1    0    0    0  501 -0.00000000000E+00 -0.00000000000E+00 -0.43208776354E+02  0.43208776354E+02  0.00000000000E+00 0.  1.
         23    2    1    2    0    0 -0.44478326237E+01 -0.13031049527E+02  0.11125116429E+03  0.16799034240E+03  0.12511731342E+03 0.  0.
         23    2    1    2    0    0  0.44478326237E+01  0.13031049527E+02  0.12223026217E+03  0.15190863676E+03  0.89142613083E+02 0.  0.
          5    1    3    3  502    0  0.44194895793E+00  0.71516614141E+01  0.13552190177E+03  0.13577554949E+03  0.41800000000E+01 0.  1.
         -5    1    3    3    0  502 -0.48897815816E+01 -0.20182710941E+02 -0.24270737477E+02  0.32214792914E+02  0.41800000000E+01 0.  1.
        -11    1    4    4    0    0  0.20824136246E+02  0.15873325012E+02  0.13066994080E+03  0.13326755241E+03  0.00000000000E+00 0. -1.
         11    1    4    4    0    0 -0.16376303622E+02 -0.28422754848E+01 -0.84396786352E+01  0.18641084349E+02  0.00000000000E+00 0.  1.
</event>
<event>
 8    1  0.5951278E-006  0.1386652E+03  0.7561462E-02  0.1215136E+00
         -1   -1    0    0    0  501 -0.00000000000E+00  0.00000000000E+00  0.19013675550E+02  0.19013675550E+02  0.00000000000E+00 0.  1.
          1   -1    0    0  501    0  0.00000000000E+00 -0.00000000000E+00 -0.11523563387E+04  0.11523563387E+04  0.00000000000E+00 0. -1.
         23    2    1    2    0    0 -0.52626819201E+02  0.84196245451E+02 -0.58045826309E+03  0.60202816903E+03  0.12509009263E+03 0.  0.
         23    2    1    2    0    0  0.52626819201E+02 -0.84196245451E+02 -0.55288440004E+03  0.56934184520E+03  0.92792171197E+02 0.  0.
          5    1    3    3  502    0 -0.75853612065E+02  0.10016993718E+03 -0.52290919117E+03  0.53780970741E+03  0.41800000000E+01 0.  1.
         -5    1    3    3    0  502  0.23226792864E+02 -0.15973691727E+02 -0.57549071917E+02  0.64218461618E+02  0.41800000000E+01 0.  1.
        -11    1    4    4    0    0  0.22942517532E+02 -0.89990784265E+02 -0.49883144359E+03  0.50740270937E+03  0.00000000000E+00 0. -1.
         11    1    4    4    0    0  0.29684301669E+02  0.57945388132E+01 -0.54052956451E+02  0.61939135825E+02  0.00000000000E+00 0.  1.
</event>
<event>
 8    1  0.5951278E-006  0.9841884E+02  0.7561462E-02  0.1283656E+00
         -1   -1    0    0    0  501 -0.00000000000E+00  0.00000000000E+00  0.77500519144E+03  0.77500519144E+03  0.00000000000E+00 0. -1.
          1   -1    0    0  501    0  0.00000000000E+00 -0.00000000000E+00 -0.24905508078E+02  0.24905508078E+02  0.00000000000E+00 0.  1.
         23    2    1    2    0    0 -0.16954938643E+02 -0.71213937693E+02  0.53949902302E+03  0.55862763497E+03  0.12508694516E+03 0.  0.
         23    2    1    2    0    0  0.16954938643E+02  0.71213937693E+02  0.21060066034E+03  0.24128306455E+03  0.92227892926E+02 0.  0.
          5    1    3    3  502    0 -0.35711646737E+02 -0.35845945090E+02  0.65261008130E+02  0.82684491135E+02  0.41800000000E+01 0.  1.
         -5    1    3    3    0  502  0.18756708094E+02 -0.35367992603E+02  0.47423801489E+03  0.47594314384E+03  0.41800000000E+01 0.  1.
        -11    1    4    4    0    0  0.45267211077E+02  0.60461584931E+02  0.92800841726E+02  0.11965249632E+03  0.00000000000E+00 0. -1.
         11    1    4    4    0    0 -0.28312272434E+02  0.10752352763E+02  0.11779981862E+03  0.12163056822E+03  0.00000000000E+00 0.  1.
</event>
<event>
 8    1  0.5951278E-006  0.8293258E+02  0.7561462E-02  0.1320929E+00
         -1   -1    0    0    0  501 -0.00000000000E+00  0.00000000000E+00  0.49690251346E+03  0.49690251346E+03  0.00000000000E+00 0.  1.
          1   -1    0    0  501    0  0.00000000000E+00 -0.00000000000E+00 -0.27849298394E+02  0.27849298394E+02  0.00000000000E+00 0. -1.
         23    2    1    2    0    0 -0.35790662762E+02 -0.45071918806E+00  0.33000692957E+03  0.35473318393E+03  0.12509949452E+03 0.  0.
         23    2    1    2    0    0  0.35790662762E+02  0.45071918806E+00  0.13904628550E+03  0.17001862792E+03  0.91056518943E+02 0.  0.
          5    1    3    3  502    0  0.20858351635E+02 -0.19951669857E+01  0.15778788113E+01  0.21424603282E+02  0.41800000000E+01 0.  1.
         -5    1    3    3    0  502 -0.56649014397E+02  0.15444477976E+01  0.32842905076E+03  0.33330858065E+03  0.41800000000E+01 0.  1.
        -11    1    4    4    0    0  0.61633910300E+02  0.29943607922E+01  0.57157953336E+02  0.84111454184E+02  0.00000000000E+00 0. -1.
         11    1    4    4    0    0 -0.25843247538E+02 -0.25436416041E+01  0.81888332159E+02  0.85907173739E+02  0.00000000000E+00 0.  1.
</event>
<event>
 8    1  0.5951278E-006  0.1169642E+03  0.7561462E-02  0.1248191E+00
          1   -1    0    0  501    0  0.00000000000E+00  0.00000000000E+00  0.56776319158E+03  0.56776319158E+03  0.00000000000E+00 0. -1.
         -1   -1    0    0    0  501 -0.00000000000E+00 -0.00000000000E+00 -0.24201962244E+02  0.24201962244E+02  0.00000000000E+00 0.  1.
         23    2    1    2    0    0  0.63867477215E+01  0.57861143841E+02  0.28161740811E+03  0.30862025457E+03  0.11202407986E+03 0.  0.
         23    2    1    2    0    0 -0.63867477215E+01 -0.57861143841E+02  0.26194382123E+03  0.28334489925E+03  0.91000351316E+02 0.  0.
          5    1    3    3  502    0  0.28404603791E+02 -0.26428304691E+02  0.88425075880E+02  0.96652693960E+02  0.41800000000E+01 0. -1.
         -5    1    3    3    0  502 -0.22017856070E+02  0.84289448532E+02  0.19319233223E+03  0.21196756061E+03  0.41800000000E+01 0.  1.
        -11    1    4    4    0    0 -0.40068688374E+02  0.76409157579E+00  0.10853060955E+03  0.11569346063E+03  0.00000000000E+00 0.  1.
         11    1    4    4    0    0  0.33681940652E+02 -0.58625235416E+02  0.15341321168E+03  0.16765143862E+03  0.00000000000E+00 0. -1.
</event>
<event>
 8    1  0.5951278E-006  0.1283725E+03  0.7561462E-02  0.1229891E+00
         -2   -1    0    0    0  501 -0.00000000000E+00  0.00000000000E+00  0.49683934639E+02  0.49683934639E+02  0.00000000000E+00 0.  1.
          2   -1    0    0  501    0  0.00000000000E+00 -0.00000000000E+00 -0.65470382129E+03  0.65470382129E+03  0.00000000000E+00 0. -1.
         23    2    1    2    0    0 -0.13504660084E+02 -0.49250206857E+02 -0.61440081077E+02  0.14699032298E+03  0.12338278959E+03 0.  0.
         23    2    1    2    0    0  0.13504660084E+02  0.49250206857E+02 -0.54357980557E+03  0.55739743295E+03  0.11227169951E+03 0.  0.
          5    1    3    3  502    0  0.36324798480E+02 -0.70311655459E+02 -0.35098876531E+02  0.86675391039E+02  0.41800000000E+01 0. -1.
         -5    1    3    3    0  502 -0.49829458565E+02  0.21061448602E+02 -0.26341204546E+02  0.60314931941E+02  0.41800000000E+01 0.  1.
        -11    1    4    4    0    0 -0.87359154132E+01  0.82648759498E+02 -0.35563544107E+03  0.36521733339E+03  0.00000000000E+00 0.  1.
         11    1    4    4    0    0  0.22240575497E+02 -0.33398552641E+02 -0.18794436450E+03  0.19218009955E+03  0.00000000000E+00 0. -1.
</event>
<event>
 8    1  0.5951278E-006  0.9252437E+02  0.7561462E-02  0.1296851E+00
          4   -1    0    0  501    0  0.00000000000E+00  0.00000000000E+00  0.98500372266E+02  0.98500372266E+02  0.00000000000E+00 0. -1.
         -4   -1    0    0    0  501 -0.00000000000E+00 -0.00000000000E+00 -0.11705124318E+03  0.11705124318E+03  0.00000000000E+00 0.  1.
         23    2    1    2    0    0 -0.11426920463E+02 -0.77796004306E+01 -0.45004130440E+01  0.12593465478E+03  0.12509271307E+03 0.  0.
         23    2    1    2    0    0  0.11426920463E+02  0.77796004306E+01 -0.14050457866E+02  0.89616960660E+02  0.87422466092E+02 0.  0.
          5    1    3    3  502    0 -0.29081193303E+02 -0.47993726533E+02  0.35374505392E+02  0.66467598288E+02  0.41800000000E+01 0.  1.
         -5    1    3    3    0  502  0.17654272840E+02  0.40214126103E+02 -0.39874918436E+02  0.59467056493E+02  0.41800000000E+01 0.  1.
        -11    1    4    4    0    0  0.30471634115E+02 -0.29742259322E+02 -0.20134200996E+02  0.47101045901E+02  0.00000000000E+00 0.  1.
         11    1    4    4    0    0 -0.19044713652E+02  0.37521859752E+02  0.60837431304E+01  0.42515914759E+02  0.00000000000E+00 0. -1.
</event>
<event>
 8    1  0.5951278E-006  0.1279991E+03  0.7561462E-02  0.1230455E+00
          1   -1    0    0  501    0  0.00000000000E+00  0.00000000000E+00  0.51040089208E+03  0.51040089208E+03  0.00000000000E+00 0. -1.
         -1   -1    0    0    0  501 -0.00000000000E+00 -0.00000000000E+00 -0.50070977231E+02  0.50070977231E+02  0.00000000000E+00 0.  1.
         23    2    1    2    0    0  0.44452416553E+02 -0.93593628253E+02  0.17216680463E+03  0.23667057917E+03  0.12504307195E+03 0.  0.
         23    2    1    2    0    0 -0.44452416553E+02  0.93593628253E+02  0.28816311022E+03  0.32380129014E+03  0.10523075985E+03 0.  0.
          5    1    3    3  502    0 -0.30365913178E+02 -0.24770322509E+02  0.33343608680E+01  0.39550574240E+02  0.41800000000E+01 0.  1.
         -5    1    3    3    0  502  0.74818329731E+02 -0.68823305744E+02  0.16883244376E+03  0.19712000493E+03  0.41800000000E+01 0.  1.
        -11    1    4    4    0    0 -0.39256381059E+02  0.26077711716E+02  0.27670873432E+02  0.54651511769E+02  0.00000000000E+00 0.  1.
         11    1    4    4    0    0 -0.51960354935E+01  0.67515916537E+02  0.26049223678E+03  0.26914977837E+03  0.00000000000E+00 0. -1.
</event>
<event>
 8    1  0.5951278E-006  0.1346159E+03  0.7561462E-02  0.1220763E+00
         -2   -1    0    0    0  501 -0.00000000000E+00  0.00000000000E+00  0.39808985297E+02  0.39808985297E+02  0.00000000000E+00 0.  1.
          2   -1    0    0  501    0  0.00000000000E+00 -0.00000000000E+00 -0.58448636584E+03  0.58448636584E+03  0.00000000000E+00 0. -1.
         23    2    1    2    0    0  0.33284709157E+02 -0.10386373959E+03 -0.22144358687E+03  0.27141354131E+03  0.11283837988E+03 0.  0.
         23    2    1    2    0    0 -0.33284709157E+02  0.10386373959E+03 -0.32323379368E+03  0.35288180983E+03  0.90277007429E+02 0.  0.
          5    1    3    3  502    0 -0.18372967249E+02 -0.11971009591E+02 -0.12968575724E+03  0.13159308122E+03  0.41800000000E+01 0. -1.
         -5    1    3    3    0  502  0.51657676406E+02 -0.91892730002E+02 -0.91757829632E+02  0.13982046008E+03  0.41800000000E+01 0.  1.
        -11    1    4    4    0    0 -0.37529365988E+02  0.11947471163E+03 -0.29152387457E+03  0.31728351592E+03  0.00000000000E+00 0. -1.
         11    1    4    4    0    0  0.42446568319E+01 -0.15610972040E+02 -0.31709919112E+02  0.35598293916E+02  0.00000000000E+00 0.  1.
</event>
<event>
 8    1  0.5951278E-006  0.1474999E+03  0.7561462E-02  0.1203579E+00
          4   -1    0    0  501    0  0.00000000000E+00  0.00000000000E+00  0.18400984494E+03  0.18400984494E+03  0.00000000000E+00 0. -1.
         -4   -1    0    0    0  501 -0.00000000000E+00 -0.00000000000E+00 -0.17879134595E+03  0.17879134595E+03  0.00000000000E+00 0.  1.
         23    2    1    2    0    0 -0.10790589312E+03 -0.83144696846E+02 -0.39508771930E+02  0.18911995920E+03  0.12509473821E+03 0.  0.
         23    2    1    2    0    0  0.10790589312E+03  0.83144696846E+02  0.44727270915E+02  0.17368123168E+03  0.98019993332E+02 0.  0.
          5    1    3    3  502    0 -0.53317929097E+02 -0.38034756117E+02 -0.83076749733E+02  0.10587097327E+03  0.41800000000E+01 0.  1.
         -5    1    3    3    0  502 -0.54587964019E+02 -0.45109940729E+02  0.43567977803E+02  0.83248985928E+02  0.41800000000E+01 0.  1.
        -11    1    4    4    0    0  0.60193323376E+02 -0.26647888584E+01  0.45489666483E+02  0.75496006751E+02  0.00000000000E+00 0. -1.
         11    1    4    4    0    0  0.47712569739E+02  0.85809485704E+02 -0.76239556752E+00  0.98185224932E+02  0.00000000000E+00 0.  1.
</event>
<event>
 8    1  0.5951278E-006  0.1185388E+03  0.7561462E-02  0.1245527E+00
         -1   -1    0    0    0  501 -0.00000000000E+00  0.00000000000E+00  0.14121410771E+03  0.14121410771E+03  0.00000000000E+00 0.  1.
          1   -1    0    0  501    0  0.00000000000E+00 -0.00000000000E+00 -0.12303280050E+03  0.12303280050E+03  0.00000000000E+00 0. -1.
         23    2    1    2    0    0 -0.48065057378E+02 -0.32705867000E+02  0.55279221381E+02  0.14859917397E+03  0.12508396664E+03 0.  0.
         23    2    1    2    0    0  0.48065057378E+02  0.32705867000E+02 -0.37097914170E+02  0.11564773425E+03  0.92834367146E+02 0.  0.
          5    1    3    3  502    0 -0.40709537713E+02 -0.78834499577E+02  0.48534377345E+02  0.10121859003E+03  0.41800000000E+01 0.  1.
         -5    1    3    3    0  502 -0.73555196649E+01  0.46128632578E+02  0.67448440367E+01  0.47380583936E+02  0.41800000000E+01 0.  1.
        -11    1    4    4    0    0  0.70216979928E+02  0.12395934627E+02 -0.45324259526E+02  0.84488886648E+02  0.00000000000E+00 0. -1.
         11    1    4    4    0    0 -0.22151922550E+02  0.20309932372E+02  0.82263453558E+01  0.31158847597E+02  0.00000000000E+00 0.  1.
</event>
<event>
 8    1  0.5951278E-006  0.1233282E+03  0.7561462E-02  0.1237705E+00
         -2   -1    0    0    0  501 -0.00000000000E+00  0.00000000000E+00  0.34866791386E+02  0.34866791386E+02  0.00000000000E+00 0.  1.
          2   -1    0    0  501    0  0.00000000000E+00 -0.00000000000E+00 -0.46023527700E+03  0.46023527700E+03  0.00000000000E+00 0. -1.
         23    2    1    2    0    0  0.42208949698E+02 -0.49594656224E+02 -0.22154791253E+03  0.26262614017E+03  0.12509111318E+03 0.  0.
         23    2    1    2    0    0 -0.42208949698E+02  0.49594656224E+02 -0.20382057308E+03  0.23247592821E+03  0.90890075504E+02 0.  0.
          5    1    3    3  502    0  0.21672367206E+02  0.41709707629E+02 -0.68395901441E+02  0.83095504961E+02  0.41800000000E+01 0. -1.
         -5    1    3    3    0  502  0.20536582492E+02 -0.91304363853E+02 -0.15315201109E+03  0.17953063521E+03  0.41800000000E+01 0. -1.
        -11    1    4    4    0    0 -0.67525098614E+02  0.30582215353E+02 -0.17335211268E+03  0.18853611275E+03  0.00000000000E+00 0. -1.
         11    1    4    4    0    0  0.25316148916E+02  0.19012440871E+02 -0.30468460404E+02  0.43939815466E+02  0.00000000000E+00 0.  1.
</event>
<event>
 8    1  0.5951278E-006  0.1457939E+03  0.7561462E-02  0.1205739E+00
         -3   -1    0    0    0  501 -0.00000000000E+00  0.00000000000E+00  0.51081204683E+03  0.51081204683E+03  0.00000000000E+00 0.  1.
          3   -1    0    0  501    0  0.00000000000E+00 -0.00000000000E+00 -0.54103231096E+02  0.54103231096E+02  0.00000000000E+00 0. -1.
         23    2    1    2    0    0 -0.24140389749E+02 -0.10377249420E+03  0.36103101860E+03  0.39666474283E+03  0.12509209745E+03 0.  0.
         23    2    1    2    0    0  0.24140389749E+02  0.10377249420E+03  0.95677797131E+02  0.16825053509E+03  0.88331833027E+02 0.  0.
          5    1    3    3  502    0  0.48326700065E+02 -0.21584891418E+02  0.14464929231E+03  0.15408526095E+03  0.41800000000E+01 0. -1.
         -5    1    3    3    0  502 -0.72467089814E+02 -0.82187602778E+02  0.21638172629E+03  0.24257948188E+03  0.41800000000E+01 0. -1.
        -11    1    4    4    0    0 -0.25690914388E+02  0.26612199043E+02  0.19835726424E+01  0.37042769610E+02  0.00000000000E+00 0. -1.
         11    1    4    4    0    0  0.49831304137E+02  0.77160295153E+02  0.93694224489E+02  0.13120776548E+03  0.00000000000E+00 0.  1.
</event>
<event>
 8    1  0.5951278E-006  0.9460973E+02  0.7561462E-02  0.1292058E+00
         -1   -1    0    0    0  501 -0.00000000000E+00  0.00000000000E+00  0.13078437908E+03  0.13078437908E+03  0.00000000000E+00 0.  1.
          1   -1    0    0  501    0  0.00000000000E+00 -0.00000000000E+00 -0.10746408860E+03  0.10746408860E+03  0.00000000000E+00 0. -1.
         23    2    1    2    0    0  0.80308317880E+01  0.27188113721E+02  0.52626442213E+02  0.13863390125E+03  0.12508448493E+03 0.  0.
         23    2    1    2    0    0 -0.80308317880E+01 -0.27188113721E+02 -0.29306151739E+02  0.99614566426E+02  0.90887422274E+02 0.  0.
          5    1    3    3  502    0 -0.34513011631E+02  0.63239435700E+02  0.33185832754E+02  0.79430133420E+02  0.41800000000E+01 0.  1.
         -5    1    3    3    0  502  0.42543843419E+02 -0.36051321979E+02  0.19440609458E+02  0.59203767831E+02  0.41800000000E+01 0.  1.
        -11    1    4    4    0    0 -0.28713645101E+02 -0.28437729394E+02 -0.53956258268E+02  0.67412578013E+02  0.00000000000E+00 0. -1.
         11    1    4    4    0    0  0.20682813313E+02  0.12496156734E+01  0.24650106529E+02  0.32201988413E+02  0.00000000000E+00 0.  1.
</event>
<event>
 8    1  0.5951278E-006  0.1731041E+03  0.7561462E-02  0.1174649E+00
          2   -1    0    0  501    0  0.00000000000E+00  0.00000000000E+00  0.22415372139E+03  0.22415372139E+03  0.00000000000E+00 0. -1.
         -2   -1    0    0    0  501 -0.00000000000E+00 -0.00000000000E+00 -0.18139689004E+03  0.18139689004E+03  0.00000000000E+00 0.  1.
         23    2    1    2    0    0  0.12176840727E+03 -0.10858647554E+03 -0.26249911643E+02  0.20726013972E+03  0.12509652264E+03 0.  0.
         23    2    1    2    0    0 -0.12176840727E+03  0.10858647554E+03  0.69006742986E+02  0.19829047171E+03  0.89098894004E+02 0.  0.
          5    1    3    3  502    0  0.59296180535E+02 -0.57110882113E+02 -0.76027830191E+02  0.11214006084E+03  0.41800000000E+01 0. -1.
         -5    1    3    3    0  502  0.62472226737E+02 -0.51475593426E+02  0.49777918547E+02  0.95120078884E+02  0.41800000000E+01 0. -1.
        -11    1    4    4    0    0 -0.30719002387E+00  0.46149500634E+02  0.33951490192E+02  0.57293755862E+02  0.00000000000E+00 0.  1.
         11    1    4    4    0    0 -0.12146121725E+03  0.62436974905E+02  0.35055252794E+02  0.14099671585E+03  0.00000000000E+00 0. -1.
</event>
<event>
 7    1  0.5951278E-006  0.8783430E+02  0.7561462E-02  0.1308183E+00
         -1   -1    0    0    0  501 -0.00000000000E+00  0.00000000000E+00  0.84495743106E+02  0.84495743106E+02  0.00000000000E+00 0.  1.
          1   -1    0    0  501    0  0.00000000000E+00 -0.00000000000E+00 -0.20324035757E+03  0.20324035757E+03  0.00000000000E+00 0. -1.
         23    2    1    2    0    0 -0.10453429803E+02 -0.14689601022E+02 -0.11622404007E+03  0.14916995074E+03  0.91752864491E+02 0.  0.
          5    1    1    2  502    0 -0.12787067635E+02 -0.31747643072E+02 -0.54810417234E+02  0.64753966494E+02  0.41800000000E+01 0. -1.
         -5    1    1    2    0  502  0.23240497438E+02  0.46437244094E+02  0.52289842837E+02  0.73812183440E+02  0.41800000000E+01 0.  1.
        -11    1    3    3    0    0 -0.41380396518E+02  0.17069195355E+02 -0.35720281220E+02  0.57268081306E+02  0.00000000000E+00 0.  1.
         11    1    3    3    0    0  0.30926966715E+02 -0.31758796377E+02 -0.80503758845E+02  0.91901869435E+02  0.00000000000E+00 0. -1.
</event>
<event>
 8    1  0.5951278E-006  0.1407217E+03  0.7561462E-02  0.1212361E+00
         -3   -1    0    0    0  501 -0.00000000000E+00  0.00000000000E+00  0.93224021268E+02  0.93224021268E+02  0.00000000000E+00 0.  1.
          3   -1    0    0  501    0  0.00000000000E+00 -0.00000000000E+00 -0.23059034449E+03  0.23059034449E+03  0.00000000000E+00 0. -1.
         23    2    1    2    0    0  0.16328769028E+02 -0.91300637644E+02 -0.56882741094E+02  0.16578995685E+03  0.12509287920E+03 0.  0.
         23    2    1    2    0    0 -0.16328769028E+02  0.91300637644E+02 -0.80483582124E+02  0.15802440890E+03  0.99456883547E+02 0.  0.
          5    1    3    3  502    0 -0.42981674761E+02 -0.83221096575E+02 -0.47339551102E+02  0.10503180842E+03  0.41800000000E+01 0.  1.
         -5    1    3    3    0  502  0.59310443789E+02 -0.80795410685E+01 -0.95431899923E+01  0.60758148437E+02  0.41800000000E+01 0.  1.
        -11    1    4    4    0    0  0.62031990360E+01  0.10238325496E+03 -0.39406217277E+02  0.10988020993E+03  0.00000000000E+00 0. -1.
         11    1    4    4    0    0 -0.22531968064E+02 -0.11082617318E+02 -0.41077364847E+02  0.48144198968E+02  0.00000000000E+00 0.  1.
</event>
<event>
 8    1  0.5951278E-006  0.9918472E+02  0.7561462E-02  0.1282020E+00
         -1   -1    0    0    0  501 -0.00000000000E+00  0.00000000000E+00  0.25679591777E+02  0.25679591777E+02  0.00000000000E+00 0.  1.
          1   -1    0    0  501    0  0.00000000000E+00 -0.00000000000E+00 -0.65910476595E+03  0.65910476595E+03  0.00000000000E+00 0. -1.
         23    2    1    2    0    0  0.32485434110E+02 -0.64054652560E+02 -0.37480079737E+03  0.40159851943E+03  0.12508969243E+03 0.  0.
         23    2    1    2    0    0 -0.32485434110E+02  0.64054652560E+02 -0.25862437680E+03  0.28318583830E+03  0.90273743655E+02 0.  0.
          5    1    3    3  502    0  0.54531515668E+02  0.25540953833E+01 -0.26942935753E+03  0.27493610294E+03  0.41800000000E+01 0.  1.
         -5    1    3    3    0  502 -0.22046081558E+02 -0.66608747944E+02 -0.10537143985E+03  0.12666241649E+03  0.41800000000E+01 0.  1.
        -11    1    4    4    0    0 -0.30800319977E+02  0.46994705885E+02 -0.25998635844E+03  0.26598885065E+03  0.00000000000E+00 0. -1.
         11    1    4    4    0    0 -0.16851141332E+01  0.17059946675E+02  0.13619816454E+01  0.17196987649E+02  0.00000000000E+00 0.  1.
</event>
<event>
 8    1  0.5951278E-006  0.1136689E+03  0.7561462E-02  0.1253923E+00
          1   -1    0    0  501    0  0.00000000000E+00  0.00000000000E+00  0.57099142154E+02  0.57099142154E+02  0.00000000000E+00 0. -1.
         -1   -1    0    0    0  501 -0.00000000000E+00 -0.00000000000E+00 -0.90994962258E+03  0.90994962258E+03  0.00000000000E+00 0.  1.
         23    2    1    2    0    0 -0.42598947230E+02 -0.64611817078E+02 -0.83819721403E+03  0.85100566548E+03  0.12508683330E+03 0.  0.
         23    2    1    2    0    0  0.42598947230E+02  0.64611817078E+02 -0.14653266395E+02  0.11604309925E+03  0.85216931744E+02 0.  0.
          5    1    3    3  502    0  0.36206437470E+02 -0.99815982428E+01 -0.10579969771E+03  0.11234583594E+03  0.41800000000E+01 0.  1.
         -5    1    3    3    0  502 -0.78805384701E+02 -0.54630218835E+02 -0.73239751632E+03  0.73865982954E+03  0.41800000000E+01 0.  1.
        -11    1    4    4    0    0  0.47998288190E+02  0.26013561022E+02  0.25350199138E+02  0.60192803744E+02  0.00000000000E+00 0. -1.
         11    1    4    4    0    0 -0.53993409593E+01  0.38598256056E+02 -0.40003465533E+02  0.55850295505E+02  0.00000000000E+00 0.  1.
</event>
<event>
 8    1  0.5951278E-006  0.1217891E+03  0.7561462E-02  0.1240174E+00
          2   -1    0    0  501    0  0.00000000000E+00  0.00000000000E+00  0.37276134491E+03  0.37276134491E+03  0.00000000000E+00 0. -1.
         -2   -1    0    0    0  501 -0.00000000000E+00 -0.00000000000E+00 -0.44090916910E+02  0.44090916910E+02  0.00000000000E+00 0.  1.
         23    2    1    2    0    0  0.34404396106E+02 -0.52671562214E+02  0.14894348665E+03  0.20442659922E+03  0.12509243109E+03 0.  0.
         23    2    1    2    0    0 -0.34404396106E+02  0.52671562214E+02  0.17972694135E+03  0.21242566260E+03  0.94153771805E+02 0.  0.
          5    1    3    3  502    0  0.95311210962E+01 -0.92363752413E+02  0.96424261996E+02  0.13392914444E+03  0.41800000000E+01 0.  1.
         -5    1    3    3    0  502  0.24873275010E+02  0.39692190199E+02  0.52519224654E+02  0.70497454782E+02  0.41800000000E+01 0.  1.
        -11    1    4    4    0    0 -0.32759815142E+02 -0.14915170499E+02  0.25741573947E+02  0.44252643180E+02  0.00000000000E+00 0.  1.
         11    1    4    4    0    0 -0.16445809647E+01  0.67586732714E+02  0.15398536741E+03  0.16817301942E+03  0.00000000000E+00 0. -1.
</event>
<event>
 8    1  0.5951278E-006  0.8927073E+02  0.7561462E-02  0.1304627E+00
         -1   -1    0    0    0  501 -0.00000000000E+00  0.00000000000E+00  0.83568937759E+02  0.83568937759E+02  0.00000000000E+00 0.  1.
          1   -1    0    0  501    0  0.00000000000E+00 -0.00000000000E+00 -0.22104943835E+03  0.22104943835E+03  0.00000000000E+00 0. -1.
         23    2    1    2    0    0 -0.81822456558E+02 -0.37048526047E+01 -0.68426329256E+02  0.16443313553E+03  0.12508978053E+03 0.  0.
         23    2    1    2    0    0  0.81822456558E+02  0.37048526047E+01 -0.69054171333E+02  0.14018524058E+03  0.90414505298E+02 0.  0.
          5    1    3    3  502    0 -0.84569907075E+02  0.68443827808E+01 -0.99740350947E+02  0.13101345261E+03  0.41800000000E+01 0.  1.
         -5    1    3    3    0  502  0.27474505166E+01 -0.10549235385E+02  0.31314021691E+02  0.33419682914E+02  0.41800000000E+01 0.  1.
        -11    1    4    4    0    0  0.22005237888E+02  0.40665760442E+00 -0.76696282276E+02  0.79791701197E+02  0.00000000000E+00 0. -1.
         11    1    4    4    0    0  0.59817218671E+02  0.32981950003E+01  0.76421109428E+01  0.60393539385E+02  0.00000000000E+00 0.  1.
</event>
<event>
 8    1  0.5951278E-006  0.1178483E+03  0.7561462E-02  0.1246689E+00
         -2   -1    0    0    0  501 -0.00000000000E+00  0.00000000000E+00  0.45757682523E+02  0.45757682523E+02  0.00000000000E+00 0.  1.
          2   -1    0    0  501    0  0.00000000000E+00 -0.00000000000E+00 -0.58060671759E+03  0.58060671759E+03  0.00000000000E+00 0. -1.
         23    2    1    2    0    0 -0.30617161362E+02  0.41311797084E+02 -0.75353116182E+02  0.15482548178E+03  0.12509501406E+03 0.  0.
         23    2    1    2    0    0  0.30617161362E+02 -0.41311797084E+02 -0.45949591889E+03  0.47153891833E+03  0.92565527493E+02 0.  0.
          5    1    3    3  502    0  0.39663974489E+02 -0.15418408828E+02 -0.11966033445E+02  0.44402889089E+02  0.41800000000E+01 0. -1.
         -5    1    3    3    0  502 -0.70281135851E+02  0.56730205912E+02 -0.63387082738E+02  0.11042259269E+03  0.41800000000E+01 0. -1.
        -11    1    4    4    0    0  0.89356212440E+01 -0.67744985408E+02 -0.35732387888E+03  0.36379882187E+03  0.00000000000E+00 0.  1.
         11    1    4    4    0    0  0.21681540118E+02  0.26433188324E+02 -0.10217204000E+03  0.10774009646E+03  0.00000000000E+00 0. -1.
</event>
<event>
 7    1  0.5951278E-006  0.9943413E+02  0.7561462E-02  0.1281490E+00
         -2   -1    0    0    0  501 -0.00000000000E+00  0.00000000000E+00  0.87865742267E+03  0.87865742267E+03  0.00000000000E+00 0.  1.
          2   -1    0    0  501    0  0.00000000000E+00 -0.00000000000E+00 -0.67645386887E+02  0.67645386887E+02  0.00000000000E+00 0. -1.
         23    2    1    2    0    0  0.57120806486E+02  0.17997427118E+02  0.83397895032E+02  0.13755263301E+03  0.91535916641E+02 0.  0.
          5    1    1    2  502    0 -0.10117241219E+02  0.41135647529E+02 -0.26964129256E+02  0.50388855257E+02  0.41800000000E+01 0. -1.
         -5    1    1    2    0  502 -0.47003565267E+02 -0.59133074647E+02  0.75457827001E+03  0.75836132129E+03  0.41800000000E+01 0.  1.
        -11    1    3    3    0    0  0.10506950929E+02  0.30604932273E+02  0.83192003635E+02  0.89263471623E+02  0.00000000000E+00 0.  1.
         11    1    3    3    0    0  0.46613855557E+02 -0.12607505155E+02  0.20589139665E+00  0.48289161386E+02  0.00000000000E+00 0. -1.
</event>
<event>
 8    1  0.5951278E-006  0.1421655E+03  0.7561462E-02  0.1210444E+00
         -1   -1    0    0    0  501 -0.00000000000E+00  0.00000000000E+00  0.46592976650E+02  0.46592976650E+02  0.00000000000E+00 0.  1.
          1   -1    0    0  501    0  0.00000000000E+00 -0.00000000000E+00 -0.55388733205E+03  0.55388733205E+03  0.00000000000E+00 0. -1.
         23    2    1    2    0    0  0.10707390318E+03 -0.45266206040E+02 -0.30815750563E+03  0.35231054880E+03  0.12509126413E+03 0.  0.
         23    2    1    2    0    0 -0.10707390318E+03  0.45266206040E+02 -0.19913684977E+03  0.24816975991E+03  0.91754534737E+02 0.  0.
          5    1    3    3  502    0  0.12889536027E+02  0.21446339588E+02 -0.17158804228E+03  0.17345320485E+03  0.41800000000E+01 0.  1.
         -5    1    3    3    0  502  0.94184367158E+02 -0.66712545628E+02 -0.13656946336E+03  0.17885734394E+03  0.41800000000E+01 0.  1.
        -11    1    4    4    0    0 -0.50563709050E+02  0.66116543512E+02 -0.84145166123E+02  0.11835748806E+03  0.00000000000E+00 0.  1.
         11    1    4    4    0    0 -0.56510194134E+02 -0.20850337472E+02 -0.11499168364E+03  0.12981227184E+03  0.00000000000E+00 0. -1.
</event>
<event>
 8    1  0.5951278E-006  0.2837394E+03  0.7561462E-02  0.1093664E+00
          1   -1    0    0  501    0  0.00000000000E+00  0.00000000000E+00  0.94280111779E+03  0.94280111779E+03  0.00000000000E+00 0. -1.
         -1   -1    0    0    0  501 -0.00000000000E+00 -0.00000000000E+00 -0.86901802651E+02  0.86901802651E+02  0.00000000000E+00 0.  1.
         23    2    1    2    0    0 -0.21764910630E+03  0.14922733809E+03  0.46828046195E+03  0.55188211589E+03  0.12508935559E+03 0.  0.
         23    2    1    2    0    0  0.21764910630E+03 -0.14922733809E+03  0.38761885319E+03  0.47782080456E+03  0.91784606619E+02 0.  0.
          5    1    3    3  502    0  0.19407349934E+01 -0.15524191754E+02  0.40002755083E+02  0.43156225463E+02  0.41800000000E+01 0. -1.
         -5    1    3    3    0  502 -0.21958984129E+03  0.16475152985E+03  0.42827770687E+03  0.50872589042E+03  0.41800000000E+01 0. -1.
        -11    1    4    4    0    0  0.13225198894E+03 -0.40173703174E+02  0.16066107393E+03  0.21193512140E+03  0.00000000000E+00 0.  1.
         11    1    4    4    0    0  0.85397117357E+02 -0.10905363492E+03  0.22695777926E+03  0.26588568316E+03  0.00000000000E+00 0. -1.
</event>
<event>
 8    1  0.5951278E-006  0.1101345E+03  0.7561462E-02  0.1260321E+00
         -1   -1    0    0    0  501 -0.00000000000E+00  0.00000000000E+00  0.20772641772E+03  0.20772641772E+03  0.00000000000E+00 0.  1.
          1   -1    0    0  501    0  0.00000000000E+00 -0.00000000000E+00 -0.72398105282E+02  0.72398105282E+02  0.00000000000E+00 0. -1.
         23    2    1    2    0    0  0.14446110751E+02  0.15673892436E+02  0.13650145870E+03  0.18637381659E+03  0.12509272666E+03 0.  0.
         23    2    1    2    0    0 -0.14446110751E+02 -0.15673892436E+02 -0.11731462603E+01  0.93750706418E+02  0.91287773890E+02 0.  0.
          5    1    3    3  502    0  0.69482502199E+02  0.16350261165E+02  0.82116812320E+02  0.10888430749E+03  0.41800000000E+01 0. -1.
         -5    1    3    3    0  502 -0.55036391447E+02 -0.67636872853E+00  0.54384646381E+02  0.77489509097E+02  0.41800000000E+01 0. -1.
        -11    1    4    4    0    0 -0.51808654022E+02  0.28057591469E+01  0.22035291923E+01  0.51931343685E+02  0.00000000000E+00 0. -1.
         11    1    4    4    0    0  0.37362543271E+02 -0.18479651583E+02 -0.33766754525E+01  0.41819362733E+02  0.00000000000E+00 0.  1.
</event>
<event>
 7    1  0.5951278E-006  0.3176095E+03  0.7561462E-02  0.1076755E+00
          1   -1    0    0  501    0  0.00000000000E+00  0.00000000000E+00  0.11498966514E+04  0.11498966514E+04  0.00000000000E+00 0. -1.
         -1   -1    0    0    0  501 -0.00000000000E+00 -0.00000000000E+00 -0.39195246341E+03  0.39195246341E+03  0.00000000000E+00 0.  1.
         23    2    1    2    0    0 -0.16761069178E+03  0.98656413906E+02  0.98039488126E+03  0.10037129664E+04  0.91864920812E+02 0.  0.
          5    1    1    2  502    0  0.14620046849E+03  0.12851469531E+03 -0.24023713236E+03  0.30922800012E+03  0.41800000000E+01 0. -1.
         -5    1    1    2    0  502  0.21410223297E+02 -0.22717110922E+03  0.17786439038E+02  0.22890814826E+03  0.41800000000E+01 0.  1.
        -11    1    3    3    0    0 -0.14181910789E+03  0.11429292580E+03  0.88909271874E+03  0.90755792915E+03  0.00000000000E+00 0. -1.
         11    1    3    3    0    0 -0.25791583895E+02 -0.15636511889E+02  0.91302162528E+02  0.96155037237E+02  0.00000000000E+00 0.  1.
</event>
<event>
 8    1  0.5951278E-006  0.8186104E+02  0.7561462E-02  0.1323852E+00
         -1   -1    0    0    0  501 -0.00000000000E+00  0.00000000000E+00  0.15190302020E+03  0.15190302020E+03  0.00000000000E+00 0.  1.
          1   -1    0    0  501    0  0.00000000000E+00 -0.00000000000E+00 -0.83314245732E+02  0.83314245732E+02  0.00000000000E+00 0. -1.
         23    2    1    2    0    0  0.20862254065E+02 -0.10367798989E+02  0.49244975336E+02  0.13644148008E+03  0.12509390469E+03 0.  0.
         23    2    1    2    0    0 -0.20862254065E+02  0.10367798989E+02  0.19343799133E+02  0.98775785855E+02  0.94019936215E+02 0.  0.
          5    1    3    3  502    0  0.33184347938E+02 -0.43008460224E+02 -0.20606525478E+02  0.58249720096E+02  0.41800000000E+01 0.  1.
         -5    1    3    3    0  502 -0.12322093873E+02  0.32640661235E+02  0.69851500814E+02  0.78191759983E+02  0.41800000000E+01 0.  1.
        -11    1    4    4    0    0 -0.46554037652E+02  0.12833772015E+02 -0.19549581050E+02  0.52097699038E+02  0.00000000000E+00 0. -1.
         11    1    4    4    0    0  0.25691783587E+02 -0.24659730258E+01  0.38893380183E+02  0.46678086817E+02  0.00000000000E+00 0.  1.
</event>
<event>
 8    1  0.5951278E-006  0.9233496E+02  0.7561462E-02  0.1297294E+00
          2   -1    0    0  501    0  0.00000000000E+00  0.00000000000E+00  0.18293514184E+03  0.18293514184E+03  0.00000000000E+00 0.  1.
         -2   -1    0    0    0  501 -0.00000000000E+00 -0.00000000000E+00 -0.86978542021E+02  0.86978542021E+02  0.00000000000E+00 0. -1.
         23    2    1    2    0    0 -0.44471009063E+02 -0.23991536082E+02  0.19545009640E+02  0.13631944631E+03  0.12509084535E+03 0.  0.
         23    2    1    2    0    0  0.44471009063E+02  0.23991536082E+02  0.76411590179E+02  0.13359423755E+03  0.97239008334E+02 0.  0.
          5    1    3    3  502    0 -0.13324256437E+02 -0.38157088417E+02  0.66583670388E+02  0.78002286944E+02  0.41800000000E+01 0.  1.
         -5    1    3    3    0  502 -0.31146752626E+02  0.14165552335E+02 -0.47038660748E+02  0.58317159370E+02  0.41800000000E+01 0.  1.
        -11    1    4    4    0    0  0.59585753177E+02 -0.20156713770E+02  0.45046305806E+02  0.77368758284E+02  0.00000000000E+00 0.  1.
         11    1    4    4    0    0 -0.15114744114E+02  0.44148249852E+02  0.31365284373E+02  0.56225479264E+02  0.00000000000E+00 0. -1.
</event>
<event>
 8    1  0.5951278E-006  0.1021240E+03  0.7561462E-02  0.1275892E+00
         -1   -1    0    0    0  501 -0.00000000000E+00  0.00000000000E+00  0.49587666851E+02  0.49587666851E+02  0.00000000000E+00 0.  1.
          1   -1    0    0  501    0  0.00000000000E+00 -0.00000000000E+00 -0.29772830724E+03  0.29772830724E+03  0.00000000000E+00 0. -1.
         23    2    1    2    0    0  0.11346305611E+02  0.52233078810E+02 -0.11367631241E+03  0.17727699408E+03  0.12509114858E+03 0.  0.
         23    2    1    2    0    0 -0.11346305611E+02 -0.52233078810E+02 -0.13446432797E+03  0.17003898000E+03  0.89306024718E+02 0.  0.
          5    1    3    3  502    0 -0.68457391598E+01  0.73712909619E+02 -0.12605379696E+03  0.14624462150E+03  0.41800000000E+01 0. -1.
         -5    1    3    3    0  502  0.18192044771E+02 -0.21479830809E+02  0.12377484546E+02  0.31032372584E+02  0.41800000000E+01 0. -1.
        -11    1    4    4    0    0  0.19731553493E+02 -0.65086702432E+02 -0.10618408474E+03  0.12609787028E+03  0.00000000000E+00 0. -1.
         11    1    4    4    0    0 -0.31077859104E+02  0.12853623621E+02 -0.28280243232E+02  0.43941109726E+02  0.00000000000E+00 0.  1.
</event>
<event>
 8    1  0.5951278E-006  0.1316772E+03  0.7561462E-02  0.1224988E+00
          2   -1    0    0  501    0  0.00000000000E+00  0.00000000000E+00  0.59630811782E+03  0.59630811782E+03  0.00000000000E+00 0. -1.
         -2   -1    0    0    0  501 -0.00000000000E+00 -0.00000000000E+00 -0.34985921940E+02  0.34985921940E+02  0.00000000000E+00 0.  1.
         23    2    1    2    0    0  0.79027065942E+02 -0.37222351528E+02  0.22384403136E+03  0.27089586708E+03  0.12509052648E+03 0.  0.
         23    2    1    2    0    0 -0.79027065942E+02  0.37222351528E+02  0.33747816451E+03  0.36039817268E+03  0.91457917892E+02 0.  0.
          5    1    3    3  502    0  0.98097062994E+02  0.64337915712E+01  0.18396964242E+03  0.20863060460E+03  0.41800000000E+01 0.  1.
         -5    1    3    3    0  502 -0.19069997052E+02 -0.43656143099E+02  0.39874388944E+02  0.62265262479E+02  0.41800000000E+01 0.  1.
        -11    1    4    4    0    0 -0.85546136494E+02  0.65708869716E+01  0.29736721667E+03  0.30949730140E+03  0.00000000000E+00 0. -1.
         11    1    4    4    0    0  0.65190705520E+01  0.30651464556E+02  0.40110947842E+02  0.50900871281E+02  0.00000000000E+00 0.  1.
</event>
<event>
 7    1  0.5951278E-006  0.1240894E+03  0.7561462E-02  0.1236499E+00
          2   -1    0    0  501    0  0.00000000000E+00  0.00000000000E+00  0.45037940365E+03  0.45037940365E+03  0.00000000000E+00 0. -1.
         -2   -1    0    0    0  501 -0.00000000000E+00 -0.00000000000E+00 -0.41042267335E+02  0.41042267335E+02  0.00000000000E+00 0.  1.
         23    2    1    2    0    0 -0.30581430243E+02  0.16727517952E+02  0.26595024116E+03  0.28316050664E+03  0.90748597888E+02 0.  0.
          5    1    1    2  502    0  0.57634499916E+02  0.51549600029E+02  0.71087514804E+02  0.10511899926E+03  0.41800000000E+01 0. -1.
         -5    1    1    2    0  502 -0.27053069673E+02 -0.68277117981E+02  0.72299380353E+02  0.10314216508E+03  0.41800000000E+01 0.  1.
        -11    1    3    3    0    0  0.95592789174E+01 -0.32376399672E+02  0.95858215660E+02  0.10162877830E+03  0.00000000000E+00 0.  1.
         11    1    3    3    0    0 -0.40140709160E+02  0.49103917624E+02  0.17009202550E+03  0.18153172834E+03  0.00000000000E+00 0. -1.
</event>
<event>
 8    1  0.5951278E-006  0.1225732E+03  0.7561462E-02  0.1238911E+00
         -1   -1    0    0    0  501 -0.00000000000E+00  0.00000000000E+00  0.10373769498E+03  0.10373769498E+03  0.00000000000E+00 0.  1.
          1   -1    0    0  501    0  0.00000000000E+00 -0.00000000000E+00 -0.20288530407E+03  0.20288530407E+03  0.00000000000E+00 0. -1.
         23    2    1    2    0    0  0.56763251568E+02 -0.32172995549E+02  0.91626129818E+01  0.14138099398E+03  0.12508982217E+03 0.  0.
         23    2    1    2    0    0 -0.56763251568E+02  0.32172995549E+02 -0.10831022207E+03  0.16524200507E+03  0.10637973334E+03 0.  0.
          5    1    3    3  502    0  0.86296738036E+02 -0.52603504014E+02  0.21057509448E+02  0.10332060169E+03  0.41800000000E+01 0.  1.
         -5    1    3    3    0  502 -0.29533486469E+02  0.20430508465E+02 -0.11894896466E+02  0.38060392287E+02  0.41800000000E+01 0.  1.
        -11    1    4    4    0    0  0.17485653143E+02 -0.12219930291E+02  0.57435041480E+01  0.22092138920E+02  0.00000000000E+00 0.  1.
         11    1    4    4    0    0 -0.74248904710E+02  0.44392925840E+02 -0.11405372622E+03  0.14314986615E+03  0.00000000000E+00 0. -1.
</event>
<event>
 8    1  0.5951278E-006  0.1067393E+03  0.7561462E-02  0.1266730E+00
         -1   -1    0    0    0  501 -0.00000000000E+00  0.00000000000E+00  0.59463989593E+03  0.59463989593E+03  0.00000000000E+00 0.  1.
          1   -1    0    0  501    0  0.00000000000E+00 -0.00000000000E+00 -0.25319065408E+02  0.25319065408E+02  0.00000000000E+00 0. -1.
         23    2    1    2    0    0  0.17935383115E+02  0.37513311448E+02  0.42212566913E+03  0.44222910508E+03  0.12509026475E+03 0.  0.
         23    2    1    2    0    0 -0.17935383115E+02 -0.37513311448E+02  0.14719516140E+03  0.17772985627E+03  0.90512760241E+02 0.  0.
          5    1    3    3  502    0  0.30988612537E+02 -0.36191418398E+02  0.24926000261E+03  0.25380727762E+03  0.41800000000E+01 0. -1.
         -5    1    3    3    0  502 -0.13053229422E+02  0.73704729846E+02  0.17286566652E+03  0.18842182745E+03  0.41800000000E+01 0. -1.
        -11    1    4    4    0    0  0.23791333089E+02 -0.42451498087E+02  0.11475269205E+03  0.12464484567E+03  0.00000000000E+00 0.  1.
         11    1    4    4    0    0 -0.41726716204E+02  0.49381866390E+01  0.32442469349E+02  0.53085010595E+02  0.00000000000E+00 0. -1.
</event>
<event>
 8    1  0.5951278E-006  0.1850360E+03  0.7561462E-02  0.1163016E+00
         -1   -1    0    0    0  501 -0.00000000000E+00  0.00000000000E+00  0.44571920236E+02  0.44571920236E+02  0.00000000000E+00 0.  1.
          1   -1    0    0  501    0  0.00000000000E+00 -0.00000000000E+00 -0.94113066462E+03  0.94113066462E+03  0.00000000000E+00 0. -1.
         23    2    1    2    0    0  0.11017176523E+03 -0.12083617206E+03 -0.33202295766E+03  0.39067607426E+03  0.12509737108E+03 0.  0.
         23    2    1    2    0    0 -0.11017176523E+03  0.12083617206E+03 -0.56453578673E+03  0.59502651060E+03  0.92826157350E+02 0.  0.
          5    1    3    3  502    0 -0.19029468790E+02 -0.33453965675E+02 -0.12861508982E+03  0.13431530899E+03  0.41800000000E+01 0. -1.
         -5    1    3    3    0  502  0.12920123402E+03 -0.87382206390E+02 -0.20340786784E+03  0.25636076527E+03  0.41800000000E+01 0. -1.
        -11    1    4    4    0    0 -0.62908557587E+02  0.23559898750E+02 -0.11998919978E+03  0.13751350302E+03  0.00000000000E+00 0.  1.
         11    1    4    4    0    0 -0.47263207645E+02  0.97276273315E+02 -0.44454658694E+03  0.45751300759E+03  0.00000000000E+00 0. -1.
</event>
<event>
 8    1  0.5951278E-006  0.8975372E+02  0.7561462E-02  0.1303449E+00
          2   -1    0    0  501    0  0.00000000000E+00  0.00000000000E+00  0.44518669096E+02  0.44518669096E+02  0.00000000000E+00 0. -1.
         -2   -1    0    0    0  501 -0.00000000000E+00 -0.00000000000E+00 -0.33063107468E+03  0.33063107468E+03  0.00000000000E+00 0.  1.
         23    2    1    2    0    0 -0.26132098970E+02 -0.46826019049E+02 -0.18801449801E+03  0.23210314749E+03  0.12508739726E+03 0.  0.
         23    2    1    2    0    0  0.26132098970E+02  0.46826019049E+02 -0.98097907576E+02  0.14304659629E+03  0.89238817695E+02 0.  0.
          5    1    3    3  502    0 -0.45379439493E+02 -0.20358996450E+02 -0.19244793316E+03  0.19881514440E+03  0.41800000000E+01 0. -1.
         -5    1    3    3    0  502  0.19247340523E+02 -0.26467022600E+02  0.44334351449E+01  0.33288003090E+02  0.41800000000E+01 0. -1.
        -11    1    4    4    0    0  0.46098144595E+02  0.43700209174E+00 -0.20479982155E+02  0.50444618890E+02  0.00000000000E+00 0.  1.
         11    1    4    4    0    0 -0.19966045625E+02  0.46389016957E+02 -0.77617925421E+02  0.92601977402E+02  0.00000000000E+00 0. -1.
</event>
<event>
 8    1  0.5951278E-006  0.1513121E+03  0.7561462E-02  0.1198870E+00
          1   -1    0    0  501    0  0.00000000000E+00  0.00000000000E+00  0.70999387209E+02  0.70999387209E+02  0.00000000000E+00 0. -1.
         -1   -1    0    0    0  501 -0.00000000000E+00 -0.00000000000E+00 -0.33122219649E+03  0.33122219649E+03  0.00000000000E+00 0.  1.
         23    2    1    2    0    0  0.69209792664E+02 -0.83118068879E+02 -0.14129187631E+03  0.21750757090E+03  0.12509012877E+03 0.  0.
         23    2    1    2    0    0 -0.69209792664E+02  0.83118068879E+02 -0.11893093298E+03  0.18471401280E+03  0.90973023094E+02 0.  0.
          5    1    3    3  502    0  0.31597827648E+02  0.30817515468E+02 -0.28002547699E+02  0.52438125914E+02  0.41800000000E+01 0.  1.
         -5    1    3    3    0  502  0.37611965016E+02 -0.11393558435E+03 -0.11328932861E+03  0.16506944499E+03  0.41800000000E+01 0.  1.
        -11    1    4    4    0    0 -0.57487837161E+02  0.33255045623E+01 -0.30997091962E+02  0.65396713313E+02  0.00000000000E+00 0.  1.
         11    1    4    4    0    0 -0.11721955503E+02  0.79792564317E+02 -0.87933841015E+02  0.11931729949E+03  0.00000000000E+00 0. -1.
</event>
<event>
 8    1  0.5951278E-006  0.1828186E+03  0.7561462E-02  0.1165103E+00
          2   -1    0    0  501    0  0.00000000000E+00  0.00000000000E+00  0.37369505245E+03  0.37369505245E+03  0.00000000000E+00 0.  1.
         -2   -1    0    0    0  501 -0.00000000000E+00 -0.00000000000E+00 -0.97568632540E+02  0.97568632540E+02  0.00000000000E+00 0. -1.
         23    2    1    2    0    0 -0.64466991412E+02 -0.13611508005E+03  0.96777242240E+02  0.21839784774E+03  0.12509387388E+03 0.  0.
         23    2    1    2    0    0  0.64466991412E+02  0.13611508005E+03  0.17934917767E+03  0.25286583725E+03  0.95350386029E+02 0.  0.
          5    1    3    3  502    0  0.33331441280E+02 -0.15199345710E+02  0.35529166903E+02  0.51203507581E+02  0.41800000000E+01 0. -1.
         -5    1    3    3    0  502 -0.97798432692E+02 -0.12091573435E+03  0.61248075337E+02  0.16719434016E+03  0.41800000000E+01 0. -1.
        -11    1    4    4    0    0  0.85391763278E+02  0.10041675053E+03  0.10810017782E+03  0.17047265314E+03  0.00000000000E+00 0. -1.
         11    1    4    4    0    0 -0.20924771865E+02  0.35698329526E+02  0.71248999846E+02  0.82393184109E+02  0.00000000000E+00 0.  1.
</event>
<event>
 8    1  0.5951278E-006  0.9711726E+02  0.7561462E-02  0.1286477E+00
         -1   -1    0    0    0  501 -0.00000000000E+00  0.00000000000E+00  0.30112240508E+03  0.30112240508E+03  0.00000000000E+00 0.  1.
          1   -1    0    0  501    0  0.00000000000E+00 -0.00000000000E+00 -0.56898808736E+02  0.56898808736E+02  0.00000000000E+00 0. -1.
         23    2    1    2    0    0 -0.64832787956E+02 -0.33574277042E+02  0.17486802899E+03  0.22706139805E+03  0.12509008134E+03 0.  0.
         23    2    1    2    0    0  0.64832787956E+02  0.33574277042E+02  0.69355567354E+02  0.13095981576E+03  0.83724286493E+02 0.  0.
          5    1    3    3  502    0 -0.51346075282E+02  0.22877611052E+01  0.38012388809E+01  0.51706625444E+02  0.41800000000E+01 0.  1.
         -5    1    3    3    0  502 -0.13486712673E+02 -0.35862038147E+02  0.17106679011E+03  0.17535477261E+03  0.41800000000E+01 0.  1.
        -11    1    4    4    0    0  0.43797504212E+01  0.42756191031E+02  0.68552949467E+01  0.43523202479E+02  0.00000000000E+00 0.  1.
         11    1    4    4    0    0  0.60453037534E+02 -0.91819139885E+01  0.62500272407E+02  0.87436613284E+02  0.00000000000E+00 0. -1.
</event>
<event>
 8    1  0.5951278E-006  0.9559079E+02  0.7561462E-02  0.1289851E+00
          1   -1    0    0  501    0  0.00000000000E+00  0.00000000000E+00  0.12610787259E+03  0.12610787259E+03  0.00000000000E+00 0. -1.
         -1   -1    0    0    0  501 -0.00000000000E+00 -0.00000000000E+00 -0.12460127978E+03  0.12460127978E+03  0.00000000000E+00 0.  1.
         23    2    1    2    0    0 -0.35122379346E+02  0.50943719525E+02 -0.66080699064E+01  0.13971792965E+03  0.12509432117E+03 0.  0.
         23    2    1    2    0    0  0.35122379346E+02 -0.50943719525E+02  0.81146627146E+01  0.11099122272E+03  0.91784310637E+02 0.  0.
          5    1    3    3  502    0 -0.51319667116E+02  0.51280505577E+02  0.44993956328E+02  0.85471205626E+02  0.41800000000E+01 0. -1.
         -5    1    3    3    0  502  0.16197287770E+02 -0.33678605157E+00 -0.51602026234E+02  0.54246724025E+02  0.41800000000E+01 0. -1.
        -11    1    4    4    0    0  0.61438676318E+02 -0.39791258158E+02 -0.14406121539E+02  0.74602892111E+02  0.00000000000E+00 0.  1.
         11    1    4    4    0    0 -0.26316296972E+02 -0.11152461367E+02  0.22520784254E+02  0.36388330606E+02  0.00000000000E+00 0. -1.
</event>
<event>
 8    1  0.5951278E-006  0.9042346E+02  0.7561462E-02  0.1301829E+00
          1   -1    0    0  501    0  0.00000000000E+00  0.00000000000E+00  0.21649823615E+03  0.21649823615E+03  0.00000000000E+00 0. -1.
         -1   -1    0    0    0  501 -0.00000000000E+00 -0.00000000000E+00 -0.79510324877E+02  0.79510324877E+02  0.00000000000E+00 0.  1.
         23    2    1    2    0    0  0.15477751374E+02 -0.39404346830E+01 -0.64886174343E+01  0.12627433140E+03  0.12509203333E+03 0.  0.
         23    2    1    2    0    0 -0.15477751374E+02  0.39404346830E+01  0.14347652870E+03  0.16973422962E+03  0.89269852710E+02 0.  0.
          5    1    3    3  502    0  0.16946882480E+02 -0.47597428675E+02 -0.45077445912E+02  0.67839225911E+02  0.41800000000E+01 0. -1.
         -5    1    3    3    0  502 -0.14691311067E+01  0.43656993992E+02  0.38588828478E+02  0.58435105493E+02  0.41800000000E+01 0. -1.
        -11    1    4    4    0    0 -0.23203041725E+02 -0.37508918866E+02  0.99361977896E+02  0.10871109783E+03  0.00000000000E+00 0. -1.
         11    1    4    4    0    0  0.77252903517E+01  0.41449353549E+02  0.44114550807E+02  0.61023131791E+02  0.00000000000E+00 0.  1.
</event>
<event>
 8    1  0.5951278E-006  0.1607962E+03  0.7561462E-02  0.1187801E+00
          2   -1    0    0  501    0  0.00000000000E+00  0.00000000000E+00  0.12927219353E+04  0.12927219353E+04  0.00000000000E+00 0. -1.
         -2   -1    0    0    0  501 -0.00000000000E+00 -0.00000000000E+00 -0.24023681450E+02  0.24023681450E+02  0.00000000000E+00 0.  1.
         23    2    1    2    0    0  0.83164563658E+02  0.10889950401E+03  0.65420320882E+03  0.68000525433E+03  0.12509940397E+03 0.  0.
         23    2    1    2    0    0 -0.83164563658E+02 -0.10889950401E+03  0.61449504500E+03  0.63674036239E+03  0.95177109317E+02 0.  0.
          5    1    3    3  502    0 -0.11340846513E+02  0.33886581215E+02  0.36284179124E+03  0.36462110890E+03  0.41800000000E+01 0. -1.
         -5    1    3    3    0  502  0.94505410171E+02  0.75012922792E+02  0.29136141758E+03  0.31538414543E+03  0.41800000000E+01 0. -1.
        -11    1    4    4    0    0 -0.97249596945E+02 -0.11405438823E+03  0.58132116694E+03  0.60033339630E+03  0.00000000000E+00 0. -1.
         11    1    4    4    0    0  0.14085033287E+02  0.51548842177E+01  0.33173878068E+02  0.36406966093E+02  0.00000000000E+00 0.  1.
</event>
<event>
 8    1  0.5951278E-006  0.1031164E+03  0.7561462E-02  0.1273876E+00
         -1   -1    0    0    0  501 -0.00000000000E+00  0.00000000000E+00  0.12221479471E+03  0.12221479471E+03  0.00000000000E+00 0.  1.
          1   -1    0    0  501    0  0.00000000000E+00 -0.00000000000E+00 -0.10138066717E+03  0.10138066717E+03  0.00000000000E+00 0. -1.
         23    2    1    2    0    0 -0.16744062224E+02 -0.45435758220E+01  0.53478525787E+02  0.13714573679E+03  0.12509193699E+03 0.  0.
         23    2    1    2    0    0  0.16744062224E+02  0.45435758220E+01 -0.32644398247E+02  0.86449725080E+02  0.78146596397E+02 0.  0.
          5    1    3    3  502    0 -0.68659219763E+02  0.15408565846E+02  0.31190174287E+02  0.77083148171E+02  0.41800000000E+01 0. -1.
         -5    1    3    3    0  502  0.51915157539E+02 -0.19952141668E+02  0.22288351500E+02  0.60062588622E+02  0.41800000000E+01 0. -1.
        -11    1    4    4    0    0  0.18967557999E+02  0.40090657477E+02 -0.20040867747E+02  0.48668937254E+02  0.00000000000E+00 0. -1.
         11    1    4    4    0    0 -0.22234957744E+01 -0.35547081655E+02 -0.12603530500E+02  0.37780787826E+02  0.00000000000E+00 0.  1.
</event>
<event>
 8    1  0.5951278E-006  0.8823256E+02  0.7561462E-02  0.1307189E+00
          2   -1    0    0  501    0  0.00000000000E+00  0.00000000000E+00  0.57973699506E+02  0.57973699506E+02  0.00000000000E+00 0. -1.
         -2   -1    0    0    0  501 -0.00000000000E+00 -0.00000000000E+00 -0.30601089310E+03  0.30601089310E+03  0.00000000000E+00 0.  1.
         23    2    1    2    0    0  0.41093130605E+02  0.22513043299E+02 -0.22297426061E+03  0.25992497903E+03  0.12509193151E+03 0.  0.
         23    2    1    2    0    0 -0.41093130605E+02 -0.22513043299E+02 -0.25062932986E+02  0.10405961358E+03  0.89469380608E+02 0.  0.
          5    1    3    3  502    0 -0.34380456735E+02  0.38821454334E+02 -0.12288085283E+03  0.13344023948E+03  0.41800000000E+01 0.  1.
         -5    1    3    3    0  502  0.75473587340E+02 -0.16308411036E+02 -0.10009340778E+03  0.12648473954E+03  0.41800000000E+01 0.  1.
        -11    1    4    4    0    0 -0.16592397922E+02 -0.11859236625E+02  0.33766500338E+02  0.39447759217E+02  0.00000000000E+00 0. -1.
         11    1    4    4    0    0 -0.24500732683E+02 -0.10653806673E+02 -0.58829433324E+02  0.64611854360E+02  0.00000000000E+00 0.  1.
</event>
<event>
 8    1  0.5951278E-006  0.1169046E+03  0.7561462E-02  0.1248293E+00
          1   -1    0    0  501    0  0.00000000000E+00  0.00000000000E+00  0.22841140018E+03  0.22841140018E+03  0.00000000000E+00 0. -1.
         -1   -1    0    0    0  501 -0.00000000000E+00 -0.00000000000E+00 -0.12579138226E+03  0.12579138226E+03  0.00000000000E+00 0.  1.
         23    2    1    2    0    0 -0.40327949619E+02 -0.63180267388E+02 -0.55031603859E+02  0.15586441660E+03  0.12508856554E+03 0.  0.
         23    2    1    2    0    0  0.40327949619E+02  0.63180267388E+02  0.15765162179E+03  0.19833836584E+03  0.94159353253E+02 0.  0.
          5    1    3    3  502    0 -0.72584039829E+02 -0.37313557959E+02  0.60969414195E+01  0.81947480377E+02  0.41800000000E+01 0. -1.
         -5    1    3    3    0  502  0.32256090209E+02 -0.25866709429E+02 -0.61128545279E+02  0.73916936220E+02  0.41800000000E+01 0. -1.
        -11    1    4    4    0    0  0.28303856423E+02  0.82809066475E+02  0.84497700663E+02  0.12164830947E+03  0.00000000000E+00 0.  1.
         11    1    4    4    0    0  0.12024093196E+02 -0.19628799088E+02  0.73153921126E+02  0.76690056376E+02  0.00000000000E+00 0. -1.
</event>
<event>
 8    1  0.5951278E-006  0.7356207E+02  0.7561462E-02  0.1348383E+00
         -1   -1    0    0    0  501 -0.00000000000E+00  0.00000000000E+00  0.20388757925E+02  0.20388757925E+02  0.00000000000E+00 0.  1.
          1   -1    0    0  501    0  0.00000000000E+00 -0.00000000000E+00 -0.58683837550E+03  0.58683837550E+03  0.00000000000E+00 0. -1.
         23    2    1    2    0    0 -0.48089428080E+01 -0.46080942731E+01 -0.28676226745E+03  0.31292813603E+03  0.12508820817E+03 0.  0.
         23    2    1    2    0    0  0.48089428080E+01  0.46080942731E+01 -0.27968735012E+03  0.29429899739E+03  0.91337427070E+02 0.  0.
          5    1    3    3  502    0 -0.30713460527E+02 -0.75791450485E+01 -0.79726677919E+01  0.32890666289E+02  0.41800000000E+01 0. -1.
         -5    1    3    3    0  502  0.25904517719E+02  0.29710507754E+01 -0.27878959966E+03  0.28003746974E+03  0.41800000000E+01 0. -1.
        -11    1    4    4    0    0 -0.34770375658E+02 -0.21972014061E+02 -0.16599491986E+03  0.17101480007E+03  0.00000000000E+00 0. -1.
         11    1    4    4    0    0  0.39579318466E+02  0.26580108335E+02 -0.11369243027E+03  0.12328419732E+03  0.00000000000E+00 0.  1.
</event>
<event>
 8    1  0.5951278E-006  0.7336728E+02  0.7561462E-02  0.1349003E+00
         -2   -1    0    0    0  501 -0.00000000000E+00  0.00000000000E+00  0.88858394557E+02  0.88858394557E+02  0.00000000000E+00 0.  1.
          2   -1    0    0  501    0  0.00000000000E+00 -0.00000000000E+00 -0.19945706384E+03  0.19945706384E+03  0.00000000000E+00 0. -1.
         23    2    1    2    0    0  0.57007848997E+02  0.12460699891E+02 -0.61161307409E+01  0.13816933666E+03  0.12509274419E+03 0.  0.
         23    2    1    2    0    0 -0.57007848997E+02 -0.12460699891E+02 -0.10448253854E+03  0.15014612173E+03  0.90675758184E+02 0.  0.
          5    1    3    3  502    0  0.42501263773E+01  0.31557066820E+02  0.49533832149E+02  0.59033761254E+02  0.41800000000E+01 0. -1.
         -5    1    3    3    0  502  0.52757722619E+02 -0.19096366929E+02 -0.55649962890E+02  0.79135575410E+02  0.41800000000E+01 0. -1.
        -11    1    4    4    0    0 -0.43587485916E+02 -0.92858293122E+01 -0.12081357028E+03  0.12877117037E+03  0.00000000000E+00 0. -1.
         11    1    4    4    0    0 -0.13420363081E+02 -0.31748705792E+01  0.16331031735E+02  0.21374951367E+02  0.00000000000E+00 0.  1.
</event>
<event>
 8    1  0.5951278E-006  0.1171441E+03  0.7561462E-02  0.1247884E+00
         -2   -1    0    0    0  501 -0.00000000000E+00  0.00000000000E+00  0.14599908953E+03  0.14599908953E+03  0.00000000000E+00 0.  1.
          2   -1    0    0  501    0  0.00000000000E+00 -0.00000000000E+00 -0.11428872253E+03  0.11428872253E+03  0.00000000000E+00 0. -1.
         23    2    1    2    0    0  0.62486656423E+02 -0.27916429510E+02  0.15965631041E+02  0.14347568926E+03  0.12508582161E+03 0.  0.
         23    2    1    2    0    0 -0.62486656423E+02  0.27916429510E+02  0.15744735966E+02  0.11681212280E+03  0.93344876961E+02 0.  0.
          5    1    3    3  502    0 -0.35233916002E+02  0.10636126715E+02  0.89582818967E+01  0.38108781703E+02  0.41800000000E+01 0. -1.
         -5    1    3    3    0  502  0.97720572425E+02 -0.38552556225E+02  0.70073491444E+01  0.10536690756E+03  0.41800000000E+01 0. -1.
        -11    1    4    4    0    0  0.68881346835E+01  0.21344355503E+02 -0.26969989650E+02  0.35077175670E+02  0.00000000000E+00 0.  1.
         11    1    4    4    0    0 -0.69374791106E+02  0.65720740066E+01  0.42714725616E+02  0.81734947130E+02  0.00000000000E+00 0. -1.
</event>
<event>
 8    1  0.5951278E-006  0.1262465E+03  0.7561462E-02  0.1233134E+00
         -2   -1    0    0    0  501 -0.00000000000E+00  0.00000000000E+00  0.85776865994E+02  0.85776865994E+02  0.00000000000E+00 0. -1.
          2   -1    0    0  501    0  0.00000000000E+00 -0.00000000000E+00 -0.21964065856E+03  0.21964065856E+03  0.00000000000E+00 0.  1.
         23    2    1    2    0    0 -0.16004142770E+02 -0.74169977548E+02 -0.33626022170E+02  0.15010935742E+03  0.12507914159E+03 0.  0.
         23    2    1    2    0    0  0.16004142770E+02  0.74169977548E+02 -0.10023777040E+03  0.15530816714E+03  0.91190449120E+02 0.  0.
          5    1    3    3  502    0 -0.63813613257E+02 -0.24750849260E+02  0.89074529221E+01  0.69149091777E+02  0.41800000000E+01 0.  1.
         -5    1    3    3    0  502  0.47809470487E+02 -0.49419128288E+02 -0.42533475092E+02  0.80960265640E+02  0.41800000000E+01 0.  1.
        -11    1    4    4    0    0  0.51258437403E+02  0.53832182444E+02 -0.45698076005E+02  0.87256205638E+02  0.00000000000E+00 0. -1.
         11    1    4    4    0    0 -0.35254294634E+02  0.20337795105E+02 -0.54539694393E+02  0.68051961502E+02  0.00000000000E+00 0.  1.
</event>
<event>
 8    1  0.5951278E-006  0.1128688E+03  0.7561462E-02  0.1255348E+00
          1   -1    0    0  501    0  0.00000000000E+00  0.00000000000E+00  0.78114884206E+02  0.78114884206E+02  0.00000000000E+00 0. -1.
         -1   -1    0    0    0  501 -0.00000000000E+00 -0.00000000000E+00 -0.20477908001E+03  0.20477908001E+03  0.00000000000E+00 0.  1.
         23    2    1    2    0    0  0.60693632869E+02  0.35329104629E+01 -0.83167466192E+02  0.16205112735E+03  0.12509013516E+03 0.  0.
         23    2    1    2    0    0 -0.60693632869E+02 -0.35329104629E+01 -0.43496729611E+02  0.12084283687E+03  0.94946443895E+02 0.  0.
          5    1    3    3  502    0  0.62752277993E+02 -0.45287458963E+02 -0.16414494050E+02  0.79219381136E+02  0.41800000000E+01 0.  1.
         -5    1    3    3    0  502 -0.20586451241E+01  0.48820369426E+02 -0.66752972142E+02  0.82831746212E+02  0.41800000000E+01 0.  1.
        -11    1    4    4    0    0  0.18085931089E+02 -0.90479426333E+01 -0.36287446371E+02  0.41542086291E+02  0.00000000000E+00 0.  1.
         11    1    4    4    0    0 -0.78779563958E+02  0.55150321704E+01 -0.72092832398E+01  0.79300750577E+02  0.00000000000E+00 0. -1.
</event>
<event>
 7    1  0.5951278E-006  0.1099580E+03  0.7561462E-02  0.1260648E+00
         -1   -1    0    0    0  501 -0.00000000000E+00  0.00000000000E+00  0.99383396410E+02  0.99383396410E+02  0.00000000000E+00 0.  1.
          1   -1    0    0  501    0  0.00000000000E+00 -0.00000000000E+00 -0.35878645059E+03  0.35878645059E+03  0.00000000000E+00 0. -1.
         23    2    1    2    0    0  0.31120427378E+02 -0.84808898354E+02 -0.16598916752E+03  0.21184347462E+03  0.95729952284E+02 0.  0.
          5    1    1    2  502    0 -0.22420098157E+02  0.70147160828E+02 -0.16068315744E+03  0.17680450916E+03  0.41800000000E+01 0. -1.
         -5    1    1    2    0  502 -0.87003292215E+01  0.14661737525E+02  0.67269270776E+02  0.69521863227E+02  0.41800000000E+01 0.  1.
        -11    1    3    3    0    0 -0.97291677326E+01  0.16618101807E+02 -0.11036070818E+02  0.22194883905E+02  0.00000000000E+00 0.  1.
         11    1    3    3    0    0  0.40849595111E+02 -0.10142700016E+03 -0.15495309671E+03  0.18964859072E+03  0.00000000000E+00 0. -1.
</event>
<event>
 8    1  0.5951278E-006  0.9251096E+02  0.7561462E-02  0.1296882E+00
         -1   -1    0    0    0  501 -0.00000000000E+00  0.00000000000E+00  0.51796190458E+02  0.51796190458E+02  0.00000000000E+00 0.  1.
          1   -1    0    0  501    0  0.00000000000E+00 -0.00000000000E+00 -0.24927026145E+03  0.24927026145E+03  0.00000000000E+00 0. -1.
         23    2    1    2    0    0  0.33144639395E+02 -0.17578743557E+02 -0.11634623476E+03  0.17490395914E+03  0.12508944494E+03 0.  0.
         23    2    1    2    0    0 -0.33144639395E+02  0.17578743557E+02 -0.81127836229E+02  0.12616249276E+03  0.89037460789E+02 0.  0.
          5    1    3    3  502    0 -0.24672618730E+02  0.78145442476E+01  0.14208615979E+02  0.29818826013E+02  0.41800000000E+01 0. -1.
         -5    1    3    3    0  502  0.57817258125E+02 -0.25393287805E+02 -0.13055485074E+03  0.14508513313E+03  0.41800000000E+01 0. -1.
        -11    1    4    4    0    0 -0.54319268161E+02 -0.15281755165E+02 -0.38425070959E+02  0.68268594629E+02  0.00000000000E+00 0.  1.
         11    1    4    4    0    0  0.21174628766E+02  0.32860498722E+02 -0.42702765270E+02  0.57893898136E+02  0.00000000000E+00 0. -1.
</event>
<event>
 8    1  0.5951278E-006  0.1023490E+03  0.7561462E-02  0.1275432E+00
         -2   -1    0    0    0  501 -0.00000000000E+00  0.00000000000E+00  0.65993435317E+02  0.65993435317E+02  0.00000000000E+00 0.  1.
          2   -1    0    0  501    0  0.00000000000E+00 -0.00000000000E+00 -0.26868386067E+03  0.26868386067E+03  0.00000000000E+00 0. -1.
         23    2    1    2    0    0  0.75795286224E+02 -0.26042243948E+01 -0.94153638111E+02  0.17396606618E+03  0.12509027626E+03 0.  0.
         23    2    1    2    0    0 -0.75795286224E+02  0.26042243948E+01 -0.10853678724E+03  0.16071122981E+03  0.91083246552E+02 0.  0.
          5    1    3    3  502    0  0.87061289379E+02  0.13404394393E+02 -0.11511604897E+02  0.88934444084E+02  0.41800000000E+01 0. -1.
         -5    1    3    3    0  502 -0.11266003155E+02 -0.16008618788E+02 -0.82642033214E+02  0.85031622096E+02  0.41800000000E+01 0. -1.
        -11    1    4    4    0    0  0.88366962698E+01 -0.70631345045E+01  0.97572077505E+01  0.14939149008E+02  0.00000000000E+00 0.  1.
         11    1    4    4    0    0 -0.84631982493E+02  0.96673588993E+01 -0.11829399499E+03  0.14577208080E+03  0.00000000000E+00 0. -1.
</event>
<event>
 8    1  0.5951278E-006  0.6245550E+02  0.7561462E-02  0.1387807E+00
         -2   -1    0    0    0  501 -0.00000000000E+00  0.00000000000E+00  0.10148232802E+03  0.10148232802E+03  0.00000000000E+00 0.  1.
          2   -1    0    0  501    0  0.00000000000E+00 -0.00000000000E+00 -0.14927844478E+03  0.14927844478E+03  0.00000000000E+00 0. -1.
         23    2    1    2    0    0 -0.56356729310E+01 -0.15299094744E+02  0.30288258756E+02  0.12973475805E+03  0.12509158932E+03 0.  0.
         23    2    1    2    0    0  0.56356729310E+01  0.15299094744E+02 -0.78084375512E+02  0.12102601474E+03  0.91018148937E+02 0.  0.
          5    1    3    3  502    0 -0.28255352999E+02 -0.17891358595E+02  0.73418615022E+02  0.80785092172E+02  0.41800000000E+01 0.  1.
         -5    1    3    3    0  502  0.22619680068E+02  0.25922638504E+01 -0.43130356266E+02  0.48949665881E+02  0.41800000000E+01 0.  1.
        -11    1    4    4    0    0 -0.27047879914E+02  0.21794915308E+02  0.14775239293E+01  0.34767646139E+02  0.00000000000E+00 0.  1.
         11    1    4    4    0    0  0.32683552845E+02 -0.64958205633E+01 -0.79561899441E+02  0.86258368603E+02  0.00000000000E+00 0. -1.
</event>
<event>
 8    1  0.5951278E-006  0.1134755E+03  0.7561462E-02  0.1254266E+00
          2   -1    0    0  501    0  0.00000000000E+00  0.00000000000E+00  0.29058449150E+03  0.29058449150E+03  0.00000000000E+00 0. -1.
         -2   -1    0    0    0  501 -0.00000000000E+00 -0.00000000000E+00 -0.79542733981E+02  0.79542733981E+02  0.00000000000E+00 0.  1.
         23    2    1    2    0    0  0.38360607173E+02  0.66641762149E+02  0.25524480729E+02  0.14904330370E+03  0.12509894731E+03 0.  0.
         23    2    1    2    0    0 -0.38360607173E+02 -0.66641762149E+02  0.18551727679E+03  0.22108392178E+03  0.92459611919E+02 0.  0.
          5    1    3    3  502    0 -0.13763217312E+02  0.73216983976E+02  0.51125575422E+02  0.90451366797E+02  0.41800000000E+01 0. -1.
         -5    1    3    3    0  502  0.52123824484E+02 -0.65752218265E+01 -0.25601094693E+02  0.58591936906E+02  0.41800000000E+01 0. -1.
        -11    1    4    4    0    0  0.17611337473E+02 -0.21016912427E+02  0.66860484740E+01  0.28223625914E+02  0.00000000000E+00 0.  1.
         11    1    4    4    0    0 -0.55971944646E+02 -0.45624849723E+02  0.17883122832E+03  0.19286029586E+03  0.00000000000E+00 0. -1.
</event>
<event>
 8    1  0.5951278E-006  0.8088193E+02  0.7561462E-02  0.1326567E+00
          1   -1    0    0  501    0  0.00000000000E+00  0.00000000000E+00  0.74721054216E+03  0.74721054216E+03  0.00000000000E+00 0. -1.
         -1   -1    0    0    0  501 -0.00000000000E+00 -0.00000000000E+00 -0.17558808624E+02  0.17558808624E+02  0.00000000000E+00 0.  1.
         23    2    1    2    0    0 -0.35946231658E+02 -0.12239306755E+02  0.40282818443E+03  0.42350568797E+03  0.12507833294E+03 0.  0.
         23    2    1    2    0    0  0.35946231658E+02  0.12239306755E+02  0.32682354911E+03  0.34126366282E+03  0.90583238558E+02 0.  0.
          5    1    3    3  502    0 -0.48026782361E+02 -0.14980590383E+02  0.52141789269E+02  0.72575674302E+02  0.41800000000E+01 0.  1.
         -5    1    3    3    0  502  0.12080550703E+02  0.27412836285E+01  0.35068639516E+03  0.35093001367E+03  0.41800000000E+01 0.  1.
        -11    1    4    4    0    0  0.65102989390E+02 -0.32652701130E+01  0.21431357505E+03  0.22400752145E+03  0.00000000000E+00 0. -1.
         11    1    4    4    0    0 -0.29156757732E+02  0.15504576868E+02  0.11250997406E+03  0.11725614137E+03  0.00000000000E+00 0.  1.
</event>
<event>
 8    1  0.5951278E-006  0.9038418E+02  0.7561462E-02  0.1301924E+00
          1   -1    0    0  501    0  0.00000000000E+00  0.00000000000E+00  0.60932581967E+02  0.60932581967E+02  0.00000000000E+00 0. -1.
         -1   -1    0    0    0  501 -0.00000000000E+00 -0.00000000000E+00 -0.33482470313E+03  0.33482470313E+03  0.00000000000E+00 0.  1.
         23    2    1    2    0    0  0.59024722232E+02 -0.18930239483E+02 -0.24454233518E+03  0.28158605872E+03  0.12508989955E+03 0.  0.
         23    2    1    2    0    0 -0.59024722232E+02  0.18930239483E+02 -0.29349785981E+02  0.11417122637E+03  0.91276432845E+02 0.  0.
          5    1    3    3  502    0  0.66823832847E+02 -0.45783581598E+02 -0.77555377722E+02  0.11222241306E+03  0.41800000000E+01 0.  1.
         -5    1    3    3    0  502 -0.77991106151E+01  0.26853342116E+02 -0.16698695746E+03  0.16936364566E+03  0.41800000000E+01 0.  1.
        -11    1    4    4    0    0 -0.86800244320E+01  0.19164113641E+02  0.29811798322E+02  0.36487660859E+02  0.00000000000E+00 0. -1.
         11    1    4    4    0    0 -0.50344697800E+02 -0.23387415872E+00 -0.59161584303E+02  0.77683565514E+02  0.00000000000E+00 0.  1.
</event>
<event>
 8    1  0.5951278E-006  0.9582448E+02  0.7561462E-02  0.1289330E+00
         -1   -1    0    0    0  501 -0.00000000000E+00  0.00000000000E+00  0.13825091752E+02  0.13825091752E+02  0.00000000000E+00 0.  1.
          1   -1    0    0  501    0  0.00000000000E+00 -0.00000000000E+00 -0.10216055796E+04  0.10216055796E+04  0.00000000000E+00 0. -1.
         23    2    1    2    0    0  0.37444425832E+01 -0.47550017406E+02 -0.62475095552E+03  0.63893419545E+03  0.12509246452E+03 0.  0.
         23    2    1    2    0    0 -0.37444425832E+01  0.47550017406E+02 -0.38302953233E+03  0.39649647591E+03  0.90679698756E+02 0.  0.
          5    1    3    3  502    0  0.26568008360E+02 -0.58370534733E+02 -0.14624365708E+03  0.15974247409E+03  0.41800000000E+01 0.  1.
         -5    1    3    3    0  502 -0.22823565777E+02  0.10820517328E+02 -0.47850729845E+03  0.47919172136E+03  0.41800000000E+01 0.  1.
        -11    1    4    4    0    0 -0.30253822345E+02  0.63852504387E+02 -0.24387641033E+03  0.25390576913E+03  0.00000000000E+00 0.  1.
         11    1    4    4    0    0  0.26509379761E+02 -0.16302486982E+02 -0.13915312200E+03  0.14259070678E+03  0.00000000000E+00 0. -1.
</event>
<event>
 8    1  0.5951278E-006  0.7301193E+02  0.7561462E-02  0.1350140E+00
         -1   -1    0    0    0  501 -0.00000000000E+00  0.00000000000E+00  0.14940056517E+03  0.14940056517E+03  0.00000000000E+00 0.  1.
          1   -1    0    0  501    0  0.00000000000E+00 -0.00000000000E+00 -0.10899642302E+03  0.10899642302E+03  0.00000000000E+00 0. -1.
         23    2    1    2    0    0 -0.24065897506E+02  0.49008496960E+02  0.64015106035E+02  0.15074803836E+03  0.12508411998E+03 0.  0.
         23    2    1    2    0    0  0.24065897506E+02 -0.49008496960E+02 -0.23610963886E+02  0.10764894983E+03  0.89720781238E+02 0.  0.
          5    1    3    3  502    0 -0.20355468904E+02  0.33145924866E+02 -0.33676343581E+02  0.51619434000E+02  0.41800000000E+01 0. -1.
         -5    1    3    3    0  502 -0.37104286024E+01  0.15862572094E+02  0.97691449616E+02  0.99128604357E+02  0.41800000000E+01 0. -1.
        -11    1    4    4    0    0 -0.23990250899E+02 -0.29981944257E+02 -0.37974376569E+02  0.54004651609E+02  0.00000000000E+00 0. -1.
         11    1    4    4    0    0  0.48056148405E+02 -0.19026552703E+02  0.14363412683E+02  0.53644298217E+02  0.00000000000E+00 0.  1.
</event>
<event>
 8    1  0.5951278E-006  0.3021747E+03  0.7561462E-02  0.1084159E+00
          1   -1    0    0  501    0  0.00000000000E+00  0.00000000000E+00  0.39170330209E+03  0.39170330209E+03  0.00000000000E+00 0. -1.
         -1   -1    0    0    0  501 -0.00000000000E+00 -0.00000000000E+00 -0.24632091155E+03  0.24632091155E+03  0.00000000000E+00 0.  1.
         23    2    1    2    0    0 -0.14540052016E+02 -0.28626669716E+03  0.21091558277E+02  0.31345402515E+03  0.12509411270E+03 0.  0.
         23    2    1    2    0    0  0.14540052016E+02  0.28626669716E+03  0.12429083227E+03  0.32457018849E+03  0.87963408607E+02 0.  0.
          5    1    3    3  502    0 -0.42577319186E+02 -0.46564621041E+02  0.33888597493E+02  0.71742605764E+02  0.41800000000E+01 0. -1.
         -5    1    3    3    0  502  0.28037267169E+02 -0.23970207612E+03 -0.12797039216E+02  0.24171141938E+03  0.41800000000E+01 0. -1.
        -11    1    4    4    0    0 -0.35444734882E+02  0.16133457555E+03  0.64611095393E+02  0.17736901687E+03  0.00000000000E+00 0.  1.
         11    1    4    4    0    0  0.49984786899E+02  0.12493212162E+03  0.59679736874E+02  0.14720117162E+03  0.00000000000E+00 0. -1.
</event>
<event>
 8    1  0.5951278E-006  0.1105744E+03  0.7561462E-02  0.1259510E+00
          2   -1    0    0  501    0  0.00000000000E+00  0.00000000000E+00  0.12219323171E+03  0.12219323171E+03  0.00000000000E+00 0.  1.
         -2   -1    0    0    0  501 -0.00000000000E+00 -0.00000000000E+00 -0.17023599659E+03  0.17023599659E+03  0.00000000000E+00 0. -1.
         23    2    1    2    0    0 -0.20768153931E+02 -0.73944082445E+02 -0.83411979040E+02  0.16883170076E+03  0.12509013305E+03 0.  0.
         23    2    1    2    0    0  0.20768153931E+02  0.73944082445E+02  0.35369214161E+02  0.12359752755E+03  0.90146125589E+02 0.  0.
          5    1    3    3  502    0 -0.14356337180E+02  0.31325887802E+02 -0.67056707037E+00  0.34717974077E+02  0.41800000000E+01 0.  1.
         -5    1    3    3    0  502 -0.64118167510E+01 -0.10526997025E+03 -0.82741411970E+02  0.13411372668E+03  0.41800000000E+01 0.  1.
        -11    1    4    4    0    0  0.20308192264E+02  0.26228717766E+02  0.60996983569E+02  0.69433423602E+02  0.00000000000E+00 0.  1.
         11    1    4    4    0    0  0.45996166774E+00  0.47715364679E+02 -0.25627769408E+02  0.54164103944E+02  0.00000000000E+00 0. -1.
</event>
<event>
 8    1  0.5951278E-006  0.1076633E+03  0.7561462E-02  0.1264959E+00
         -1   -1    0    0    0  501 -0.00000000000E+00  0.00000000000E+00  0.72365543012E+02  0.72365543012E+02  0.00000000000E+00 0. -1.
          1   -1    0    0  501    0  0.00000000000E+00 -0.00000000000E+00 -0.24931156819E+03  0.24931156819E+03  0.00000000000E+00 0.  1.
         23    2    1    2    0    0  0.54938993346E+02  0.14397331728E+02 -0.30513178936E+02  0.14072835517E+03  0.12509132548E+03 0.  0.
         23    2    1    2    0    0 -0.54938993346E+02 -0.14397331728E+02 -0.14643284624E+03  0.18094875603E+03  0.89857095988E+02 0.  0.
          5    1    3    3  502    0 -0.36947612712E+02  0.22531885258E+02 -0.19782152450E+02  0.47766284071E+02  0.41800000000E+01 0.  1.
         -5    1    3    3    0  502  0.91886606059E+02 -0.81345535300E+01 -0.10731026487E+02  0.92962071102E+02  0.41800000000E+01 0.  1.
        -11    1    4    4    0    0  0.10429337657E+02  0.46540588324E+01  0.67844787886E+01  0.13283843571E+02  0.00000000000E+00 0. -1.
         11    1    4    4    0    0 -0.65368331004E+02 -0.19051390560E+02 -0.15321732503E+03  0.16766491246E+03  0.00000000000E+00 0.  1.
</event>
<event>
 8    1  0.5951278E-006  0.1798741E+03  0.7561462E-02  0.1167925E+00
          1   -1    0    0  501    0  0.00000000000E+00  0.00000000000E+00  0.30227957676E+03  0.30227957676E+03  0.00000000000E+00 0. -1.
         -1   -1    0    0    0  501 -0.00000000000E+00 -0.00000000000E+00 -0.15128613648E+03  0.15128613648E+03  0.00000000000E+00 0.  1.
         23    2    1    2    0    0 -0.12607621316E+03 -0.10409501435E+03 -0.10161438567E+02  0.20611739214E+03  0.12510052347E+03 0.  0.
         23    2    1    2    0    0  0.12607621316E+03  0.10409501435E+03  0.16115487884E+03  0.24744832110E+03  0.92351465082E+02 0.  0.
          5    1    3    3  502    0  0.14780142631E+02 -0.60458934853E+01  0.25885488926E+02  0.30700755385E+02  0.41800000000E+01 0. -1.
         -5    1    3    3    0  502 -0.14085635580E+03 -0.98049120860E+02 -0.36046927493E+02  0.17541663676E+03  0.41800000000E+01 0. -1.
        -11    1    4    4    0    0  0.14576963248E+02  0.40867598215E+02  0.92199387983E+02  0.10189884978E+03  0.00000000000E+00 0.  1.
         11    1    4    4    0    0  0.11149924992E+03  0.63227416131E+02  0.68955490858E+02  0.14554947132E+03  0.00000000000E+00 0. -1.
</event>
<event>
 8    1  0.5951278E-006  0.1923205E+03  0.7561462E-02  0.1156385E+00
         -1   -1    0    0    0  501 -0.00000000000E+00  0.00000000000E+00  0.56387113081E+02  0.56387113081E+02  0.00000000000E+00 0.  1.
          1   -1    0    0  501    0  0.00000000000E+00 -0.00000000000E+00 -0.79868854883E+03  0.79868854883E+03  0.00000000000E+00 0. -1.
         23    2    1    2    0    0  0.64985649998E+02 -0.16954340805E+03 -0.37296653670E+03  0.43326500934E+03  0.12508568624E+03 0.  0.
         23    2    1    2    0    0 -0.64985649998E+02  0.16954340805E+03 -0.36933489905E+03  0.42181065257E+03  0.92454621555E+02 0.  0.
          5    1    3    3  502    0 -0.43632976423E+01 -0.13409490473E+02  0.72580674237E+01  0.16401364083E+02  0.41800000000E+01 0. -1.
         -5    1    3    3    0  502  0.69348947640E+02 -0.15613391758E+03 -0.38022460413E+03  0.41686364526E+03  0.41800000000E+01 0. -1.
        -11    1    4    4    0    0 -0.17464373779E+02  0.14406383340E+03 -0.22507061680E+03  0.26779875838E+03  0.00000000000E+00 0.  1.
         11    1    4    4    0    0 -0.47521276219E+02  0.25479574651E+02 -0.14426428225E+03  0.15401189419E+03  0.00000000000E+00 0. -1.
</event>
<event>
 8    1  0.5951278E-006  0.1228886E+03  0.7561462E-02  0.1238406E+00
         -4   -1    0    0    0  501 -0.00000000000E+00  0.00000000000E+00  0.30276133296E+03  0.30276133296E+03  0.00000000000E+00 0.  1.
          4   -1    0    0  501    0  0.00000000000E+00 -0.00000000000E+00 -0.13504316032E+03  0.13504316032E+03  0.00000000000E+00 0. -1.
         23    2    1    2    0    0 -0.61388768570E+02 -0.27455084162E+02  0.25822823257E+03  0.29470690122E+03  0.12509186615E+03 0.  0.
         23    2    1    2    0    0  0.61388768570E+02  0.27455084162E+02 -0.90510059921E+02  0.14309759207E+03  0.88104979176E+02 0.  0.
          5    1    3    3  502    0  0.29307214498E+02 -0.40552811213E+02  0.86614354785E+02  0.10011474504E+03  0.41800000000E+01 0. -1.
         -5    1    3    3    0  502 -0.90695983068E+02  0.13097727051E+02  0.17161387778E+03  0.19459215618E+03  0.41800000000E+01 0. -1.
        -11    1    4    4    0    0  0.25398053468E+02 -0.27951224535E+02 -0.10233405583E+02  0.39128693599E+02  0.00000000000E+00 0.  1.
         11    1    4    4    0    0  0.35990715101E+02  0.55406308697E+02 -0.80276654338E+02  0.10396889847E+03  0.00000000000E+00 0. -1.
</event>
<event>
 8    1  0.5951278E-006  0.1713874E+03  0.7561462E-02  0.1176409E+00
          1   -1    0    0  501    0  0.00000000000E+00  0.00000000000E+00  0.20678819807E+03  0.20678819807E+03  0.00000000000E+00 0. -1.
         -1   -1    0    0    0  501 -0.00000000000E+00 -0.00000000000E+00 -0.16097917215E+03  0.16097917215E+03  0.00000000000E+00 0.  1.
         23    2    1    2    0    0 -0.26272650564E+02 -0.13509605418E+03 -0.27962634888E+02  0.18806631112E+03  0.12508330186E+03 0.  0.
         23    2    1    2    0    0  0.26272650564E+02  0.13509605418E+03  0.73771660812E+02  0.17970105911E+03  0.88932652503E+02 0.  0.
          5    1    3    3  502    0 -0.75804564614E+02 -0.97728467476E+02 -0.16850796869E+02  0.12489438389E+03  0.41800000000E+01 0.  1.
         -5    1    3    3    0  502  0.49531914049E+02 -0.37367586708E+02 -0.11111838019E+02  0.63171927230E+02  0.41800000000E+01 0.  1.
        -11    1    4    4    0    0  0.47245355792E+02  0.48391109719E+02  0.64375357366E+01  0.67935741771E+02  0.00000000000E+00 0.  1.
         11    1    4    4    0    0 -0.20972705227E+02  0.86704944466E+02  0.67334125076E+02  0.11176531734E+03  0.00000000000E+00 0. -1.
</event>
<event>
 8    1  0.5951278E-006  0.1023575E+03  0.7561462E-02  0.1275415E+00
          2   -1    0    0  501    0  0.00000000000E+00  0.00000000000E+00  0.49161022949E+02  0.49161022949E+02  0.00000000000E+00 0. -1.
         -2   -1    0    0    0  501 -0.00000000000E+00 -0.00000000000E+00 -0.32051559391E+03  0.32051559391E+03  0.00000000000E+00 0.  1.
         23    2    1    2    0    0 -0.37243745334E+02  0.52356921451E+02 -0.14718660318E+03  0.20356980589E+03  0.12509366859E+03 0.  0.
         23    2    1    2    0    0  0.37243745334E+02 -0.52356921451E+02 -0.12416796777E+03  0.16610681097E+03  0.89696402596E+02 0.  0.
          5    1    3    3  502    0  0.34778573540E+02  0.49684229895E+02 -0.10094658574E+03  0.11783784388E+03  0.41800000000E+01 0. -1.
         -5    1    3    3    0  502 -0.72022318874E+02  0.26726915564E+01 -0.46240017440E+02  0.85731962003E+02  0.41800000000E+01 0. -1.
        -11    1    4    4    0    0  0.38657306860E+02 -0.28986025231E+02 -0.97161906681E+01  0.49284697356E+02  0.00000000000E+00 0. -1.
         11    1    4    4    0    0 -0.14135615265E+01 -0.23370896220E+02 -0.11445177710E+03  0.11682211361E+03  0.00000000000E+00 0.  1.
</event>
<event>
 8    1  0.5951278E-006  0.1076099E+03  0.7561462E-02  0.1265061E+00
         -1   -1    0    0    0  501 -0.00000000000E+00  0.00000000000E+00  0.90509925449E+03  0.90509925449E+03  0.00000000000E+00 0.  1.
          1   -1    0    0  501    0  0.00000000000E+00 -0.00000000000E+00 -0.30952965013E+02  0.30952965013E+02  0.00000000000E+00 0. -1.
         23    2    1    2    0    0 -0.26679629138E+02 -0.24049597756E+02  0.80459340437E+03  0.81505113567E+03  0.12509045385E+03 0.  0.
         23    2    1    2    0    0  0.26679629138E+02  0.24049597756E+02  0.69552885106E+02  0.12100108383E+03  0.92268481604E+02 0.  0.
          5    1    3    3  502    0  0.83240925798E+01  0.42080570407E+02  0.47945612321E+03  0.48138935531E+03  0.41800000000E+01 0. -1.
         -5    1    3    3    0  502 -0.35003721718E+02 -0.66130168162E+02  0.32513728115E+03  0.33366178036E+03  0.41800000000E+01 0. -1.
        -11    1    4    4    0    0  0.59014607840E+02  0.40337642752E+01  0.53377207530E+02  0.79675099476E+02  0.00000000000E+00 0.  1.
         11    1    4    4    0    0 -0.32334978702E+02  0.20015833481E+02  0.16175677576E+02  0.41325984351E+02  0.00000000000E+00 0. -1.
</event>
<event>
 8    1  0.5951278E-006  0.1333181E+03  0.7561462E-02  0.1222614E+00
         -4   -1    0    0    0  501 -0.00000000000E+00  0.00000000000E+00  0.62645553933E+03  0.62645553933E+03  0.00000000000E+00 0.  1.
          4   -1    0    0  501    0  0.00000000000E+00 -0.00000000000E+00 -0.36343105613E+02  0.36343105613E+02  0.00000000000E+00 0. -1.
         23    2    1    2    0    0  0.51334735491E+02 -0.82785385258E+02  0.40752405217E+03  0.43727823883E+03  0.12509088686E+03 0.  0.
         23    2    1    2    0    0 -0.51334735491E+02  0.82785385258E+02  0.18258838155E+03  0.22552040612E+03  0.89622884459E+02 0.  0.
          5    1    3    3  502    0 -0.17665908844E+01 -0.95403915721E+02  0.18598232121E+03  0.20907396821E+03  0.41800000000E+01 0.  1.
         -5    1    3    3    0  502  0.53101326375E+02  0.12618530463E+02  0.22154173096E+03  0.22820427062E+03  0.41800000000E+01 0.  1.
        -11    1    4    4    0    0 -0.61032223538E+02  0.41087661718E+02  0.16219209182E+03  0.17809941860E+03  0.00000000000E+00 0.  1.
         11    1    4    4    0    0  0.96974880478E+01  0.41697723540E+02  0.20396289730E+02  0.47420987522E+02  0.00000000000E+00 0. -1.
</event>
<event>
 8    1  0.5951278E-006  0.7426870E+02  0.7561462E-02  0.1346151E+00
         -2   -1    0    0    0  501 -0.00000000000E+00  0.00000000000E+00  0.27744226059E+03  0.27744226059E+03  0.00000000000E+00 0.  1.
          2   -1    0    0  501    0  0.00000000000E+00 -0.00000000000E+00 -0.49110002524E+02  0.49110002524E+02  0.00000000000E+00 0. -1.
         23    2    1    2    0    0 -0.27242651782E+02 -0.67908176526E+01  0.17891065193E+03  0.21529521944E+03  0.11642479487E+03 0.  0.
         23    2    1    2    0    0  0.27242651782E+02  0.67908176526E+01  0.49421606135E+02  0.11125704367E+03  0.95641817910E+02 0.  0.
          5    1    3    3  502    0 -0.23168227498E+02 -0.33663208711E+02  0.75804049515E+01  0.41772159692E+02  0.41800000000E+01 0. -1.
         -5    1    3    3    0  502 -0.40744242844E+01  0.26872391058E+02  0.17133024698E+03  0.17352305975E+03  0.41800000000E+01 0.  1.
        -11    1    4    4    0    0  0.49654376360E+02  0.20464381401E+02 -0.17598295575E+01  0.53734951363E+02  0.00000000000E+00 0.  1.
         11    1    4    4    0    0 -0.22411724578E+02 -0.13673563749E+02  0.51181435692E+02  0.57522092309E+02  0.00000000000E+00 0. -1.
</event>
<event>
 8    1  0.5951278E-006  0.8170926E+02  0.7561462E-02  0.1324270E+00
          1   -1    0    0  501    0  0.00000000000E+00  0.00000000000E+00  0.53590898787E+03  0.53590898787E+03  0.00000000000E+00 0. -1.
         -1   -1    0    0    0  501 -0.00000000000E+00 -0.00000000000E+00 -0.31858048477E+02  0.31858048477E+02  0.00000000000E+00 0.  1.
         23    2    1    2    0    0  0.66616082448E+02 -0.95631087515E+01  0.16054937569E+03  0.20614848262E+03  0.11041711536E+03 0.  0.
         23    2    1    2    0    0 -0.66616082448E+02  0.95631087515E+01  0.34350156370E+03  0.36161855372E+03  0.90804728072E+02 0.  0.
          5    1    3    3  502    0  0.15019064461E+02 -0.12410061510E+02  0.15236465968E+03  0.15366210933E+03  0.41800000000E+01 0. -1.
         -5    1    3    3    0  502  0.51597017987E+02  0.28469527590E+01  0.81847160065E+01  0.52486373292E+02  0.41800000000E+01 0.  1.
        -11    1    4    4    0    0 -0.54313261213E+01 -0.22098773079E+02  0.18305166198E+02  0.29205036973E+02  0.00000000000E+00 0.  1.
         11    1    4    4    0    0 -0.61184756327E+02  0.31661881831E+02  0.32519639751E+03  0.33241351675E+03  0.00000000000E+00 0. -1.
</event>
<event>
 8    1  0.5951278E-006  0.1231850E+03  0.7561462E-02  0.1237933E+00
          2   -1    0    0  501    0  0.00000000000E+00  0.00000000000E+00  0.12070939551E+03  0.12070939551E+03  0.00000000000E+00 0. -1.
         -2   -1    0    0    0  501 -0.00000000000E+00 -0.00000000000E+00 -0.16637377636E+03  0.16637377636E+03  0.00000000000E+00 0.  1.
         23    2    1    2    0    0 -0.58943727805E+02 -0.48396079723E+02 -0.75870847453E+02  0.16498475581E+03  0.12508813124E+03 0.  0.
         23    2    1    2    0    0  0.58943727805E+02  0.48396079723E+02  0.30206466605E+02  0.12209841606E+03  0.90438094852E+02 0.  0.
          5    1    3    3  502    0 -0.64726255657E+02 -0.77431771663E+02 -0.86770336586E+02  0.13316054650E+03  0.41800000000E+01 0. -1.
         -5    1    3    3    0  502  0.57825278521E+01  0.29035691941E+02  0.10899489132E+02  0.31824209310E+02  0.41800000000E+01 0. -1.
        -11    1    4    4    0    0  0.81886511585E+02  0.37596739276E+02  0.34300103851E+02  0.96412720675E+02  0.00000000000E+00 0. -1.
         11    1    4    4    0    0 -0.22942783781E+02  0.10799340446E+02 -0.40936372460E+01  0.25685695388E+02  0.00000000000E+00 0.  1.
</event>
<event>
 8    1  0.5951278E-006  0.1137065E+03  0.7561462E-02  0.1253856E+00
         -1   -1    0    0    0  501 -0.00000000000E+00  0.00000000000E+00  0.35740559183E+02  0.35740559183E+02  0.00000000000E+00 0.  1.
          1   -1    0    0  501    0  0.00000000000E+00 -0.00000000000E+00 -0.38797971290E+03  0.38797971290E+03  0.00000000000E+00 0. -1.
         23    2    1    2    0    0 -0.32156422629E+01  0.42709639890E+02 -0.16597157951E+03  0.21219943319E+03  0.12509028959E+03 0.  0.
         23    2    1    2    0    0  0.32156422629E+01 -0.42709639890E+02 -0.18626757421E+03  0.21152083889E+03  0.90614581538E+02 0.  0.
          5    1    3    3  502    0  0.10113300226E+02 -0.43462113112E+02 -0.52354023904E+02  0.68917706989E+02  0.41800000000E+01 0.  1.
         -5    1    3    3    0  502 -0.13328942489E+02  0.86171753002E+02 -0.11361755560E+03  0.14328172621E+03  0.41800000000E+01 0.  1.
        -11    1    4    4    0    0  0.26570733728E+02  0.16754122489E+02 -0.95434184860E+02  0.10047083234E+03  0.00000000000E+00 0. -1.
         11    1    4    4    0    0 -0.23355091466E+02 -0.59463762378E+02 -0.90833389347E+02  0.11105000655E+03  0.00000000000E+00 0.  1.
</event>
<event>
 8    1  0.5951278E-006  0.1962945E+03  0.7561462E-02  0.1152903E+00
         -1   -1    0    0    0  501 -0.00000000000E+00  0.00000000000E+00  0.24503747138E+02  0.24503747138E+02  0.00000000000E+00 0.  1.
          1   -1    0    0  501    0  0.00000000000E+00 -0.00000000000E+00 -0.19236786266E+04  0.19236786266E+04  0.00000000000E+00 0. -1.
         23    2    1    2    0    0  0.45211709431E+02  0.16842819278E+03 -0.12939323897E+04  0.13116097253E+04  0.12508751880E+03 0.  0.
         23    2    1    2    0    0 -0.45211709431E+02 -0.16842819278E+03 -0.60524248971E+03  0.63657264848E+03  0.92163499517E+02 0.  0.
          5    1    3    3  502    0  0.22107468908E+02  0.18333410321E+03 -0.10529948915E+04  0.10690724239E+04  0.41800000000E+01 0. -1.
         -5    1    3    3    0  502  0.23104240523E+02 -0.14905910432E+02 -0.24093749827E+03  0.24253730140E+03  0.41800000000E+01 0. -1.
        -11    1    4    4    0    0 -0.39237595022E+02 -0.61355834449E+02 -0.38234760491E+03  0.38922206806E+03  0.00000000000E+00 0. -1.
         11    1    4    4    0    0 -0.59741144094E+01 -0.10707235833E+03 -0.22289488480E+03  0.24735058041E+03  0.00000000000E+00 0.  1.
</event>
<event>
 8    1  0.1344139E-005  0.3494247E+03  0.7561462E-02  0.1062851E+00
          2   -1    0    0  501    0  0.00000000000E+00  0.00000000000E+00  0.85758289277E+03  0.85758289277E+03  0.00000000000E+00 0. -1.
         -2   -1    0    0    0  501 -0.00000000000E+00 -0.00000000000E+00 -0.17583115802E+03  0.17583115802E+03  0.00000000000E+00 0.  1.
         23    2    1    2    0    0  0.93229257474E+02  0.32412737255E+03  0.13306478735E+03  0.38354167807E+03  0.12509089935E+03 0.  0.
         23    2    1    2    0    0 -0.93229257474E+02 -0.32412737255E+03  0.54868694740E+03  0.64987237271E+03  0.86755325396E+02 0.  0.
          5    1    3    3  502    0  0.65115295914E+02  0.48574091261E+02  0.16501147182E+02  0.83001231088E+02  0.41800000000E+01 0.  1.
         -5    1    3    3    0  502  0.28113961561E+02  0.27555328129E+03  0.11656364017E+03  0.30054044698E+03  0.41800000000E+01 0.  1.
        -11    1    4    4    0    0 -0.35986429373E+02 -0.20720597331E+03  0.40243473220E+03  0.45407383998E+03  0.00000000000E+00 0. -1.
         11    1    4    4    0    0 -0.57242828101E+02 -0.11692139924E+03  0.14625221520E+03  0.19579853273E+03  0.00000000000E+00 0.  1.
</event>
<event>
 8    1  0.5951278E-006  0.1656333E+03  0.7561462E-02  0.1182480E+00
         -1   -1    0    0    0  501 -0.00000000000E+00  0.00000000000E+00  0.68833385806E+03  0.68833385806E+03  0.00000000000E+00 0.  1.
          1   -1    0    0  501    0  0.00000000000E+00 -0.00000000000E+00 -0.50078020991E+02  0.50078020991E+02  0.00000000000E+00 0. -1.
         23    2    1    2    0    0 -0.70687621822E+02  0.13030433569E+03  0.38142241256E+03  0.42790861578E+03  0.12508703721E+03 0.  0.
         23    2    1    2    0    0  0.70687621822E+02 -0.13030433569E+03  0.25683342451E+03  0.31050326327E+03  0.92048404535E+02 0.  0.
          5    1    3    3  502    0  0.20925397123E+02 -0.20813349983E+01  0.11190559926E+03  0.11394094850E+03  0.41800000000E+01 0. -1.
         -5    1    3    3    0  502 -0.91613018945E+02  0.13238567069E+03  0.26951681331E+03  0.31396766728E+03  0.41800000000E+01 0. -1.
        -11    1    4    4    0    0  0.46365571705E+02 -0.72402585305E+02  0.22336262957E+03  0.23933818101E+03  0.00000000000E+00 0.  1.
         11    1    4    4    0    0  0.24322050117E+02 -0.57901750387E+02  0.33470794937E+02  0.71165082263E+02  0.00000000000E+00 0. -1.
</event>
<event>
 8    1  0.5951278E-006  0.4116929E+03  0.7561462E-02  0.1039804E+00
          1   -1    0    0  501    0  0.00000000000E+00  0.00000000000E+00  0.11072245480E+03  0.11072245480E+03  0.00000000000E+00 0. -1.
         -1   -1    0    0    0  501 -0.00000000000E+00 -0.00000000000E+00 -0.15926241374E+04  0.15926241374E+04  0.00000000000E+00 0.  1.
         23    2    1    2    0    0 -0.39734106424E+03 -0.81055299971E+02 -0.77663631364E+03  0.88502114544E+03  0.12509428937E+03 0.  0.
         23    2    1    2    0    0  0.39734106424E+03  0.81055299971E+02 -0.70526536897E+03  0.81832544677E+03  0.88359567552E+02 0.  0.
          5    1    3    3  502    0 -0.11448950926E+03 -0.46364871725E+02 -0.35670320984E+03  0.37750788253E+03  0.41800000000E+01 0. -1.
         -5    1    3    3    0  502 -0.28285155498E+03 -0.34690428246E+02 -0.41993310380E+03  0.50751326292E+03  0.41800000000E+01 0. -1.
        -11    1    4    4    0    0  0.14562682526E+03  0.73119181122E+02 -0.26337297637E+03  0.30970778416E+03  0.00000000000E+00 0.  1.
         11    1    4    4    0    0  0.25171423898E+03  0.79361188487E+01 -0.44189239260E+03  0.50861766261E+03  0.00000000000E+00 0. -1.
</event>
<event>
 8    1  0.5951278E-006  0.6147545E+02  0.7561462E-02  0.1391742E+00
          1   -1    0    0  501    0  0.00000000000E+00  0.00000000000E+00  0.64568424226E+03  0.64568424226E+03  0.00000000000E+00 0. -1.
         -1   -1    0    0    0  501 -0.00000000000E+00 -0.00000000000E+00 -0.18184313035E+02  0.18184313035E+02  0.00000000000E+00 0.  1.
         23    2    1    2    0    0 -0.17228460486E+01  0.36089341809E+01  0.35121759763E+03  0.37285051192E+03  0.12509081000E+03 0.  0.
         23    2    1    2    0    0  0.17228460486E+01 -0.36089341809E+01  0.27628233160E+03  0.29101804338E+03  0.91343211109E+02 0.  0.
          5    1    3    3  502    0  0.14200594004E+02 -0.85473498254E+01 -0.35790630891E+01  0.17464139019E+02  0.41800000000E+01 0. -1.
         -5    1    3    3    0  502 -0.15923440052E+02  0.12156284006E+02  0.35479666072E+03  0.35538637290E+03  0.41800000000E+01 0. -1.
        -11    1    4    4    0    0 -0.41774049500E+02 -0.37409002484E+00  0.18753354148E+03  0.19213026918E+03  0.00000000000E+00 0.  1.
         11    1    4    4    0    0  0.43496895549E+02 -0.32348441561E+01  0.88748790115E+02  0.98887774199E+02  0.00000000000E+00 0. -1.
</event>
<event>
 8    1  0.5951278E-006  0.8816296E+02  0.7561462E-02  0.1307362E+00
          2   -1    0    0  501    0  0.00000000000E+00  0.00000000000E+00  0.65495474836E+02  0.65495474836E+02  0.00000000000E+00 0. -1.
         -2   -1    0    0    0  501 -0.00000000000E+00 -0.00000000000E+00 -0.28992200890E+03  0.28992200890E+03  0.00000000000E+00 0.  1.
         23    2    1    2    0    0 -0.68946269367E+01  0.35981781865E+01 -0.23227169575E+03  0.26392817002E+03  0.12508978983E+03 0.  0.
         23    2    1    2    0    0  0.68946269367E+01 -0.35981781865E+01  0.78451616803E+01  0.91489313715E+02  0.90819960336E+02 0.  0.
          5    1    3    3  502    0 -0.11070006674E+02 -0.48279216419E+02 -0.19103205781E+03  0.19739338210E+03  0.41800000000E+01 0.  1.
         -5    1    3    3    0  502  0.41753797373E+01  0.51877394605E+02 -0.41239637942E+02  0.66534787928E+02  0.41800000000E+01 0.  1.
        -11    1    4    4    0    0  0.37746441759E+02 -0.16203628283E+02 -0.22134779624E+02  0.46661546309E+02  0.00000000000E+00 0.  1.
         11    1    4    4    0    0 -0.30851814822E+02  0.12605450097E+02  0.29979941304E+02  0.44827767406E+02  0.00000000000E+00 0. -1.
</event>
<event>
 8    1  0.5951278E-006  0.8834325E+02  0.7561462E-02  0.1306914E+00
          1   -1    0    0  501    0  0.00000000000E+00  0.00000000000E+00  0.18697882963E+03  0.18697882963E+03  0.00000000000E+00 0. -1.
         -1   -1    0    0    0  501 -0.00000000000E+00 -0.00000000000E+00 -0.80342500914E+02  0.80342500914E+02  0.00000000000E+00 0.  1.
         23    2    1    2    0    0 -0.38250236710E+02 -0.13396218936E+02  0.19275178959E+02  0.13289530814E+03  0.12508833324E+03 0.  0.
         23    2    1    2    0    0  0.38250236710E+02  0.13396218936E+02  0.87361149758E+02  0.13442602240E+03  0.93786170204E+02 0.  0.
          5    1    3    3  502    0 -0.56030773112E+02  0.85117290557E+01 -0.38377504594E+02  0.68572606236E+02  0.41800000000E+01 0.  1.
         -5    1    3    3    0  502  0.17780536402E+02 -0.21907947992E+02  0.57652683552E+02  0.64322701908E+02  0.41800000000E+01 0.  1.
        -11    1    4    4    0    0  0.59350435750E+02 -0.96046383776E+01  0.83618685306E+02  0.10298935787E+03  0.00000000000E+00 0.  1.
         11    1    4    4    0    0 -0.21100199040E+02  0.23000857314E+02  0.37424644514E+01  0.31436664531E+02  0.00000000000E+00 0. -1.
</event>
<event>
 8    1  0.5951278E-006  0.8545197E+02  0.7561462E-02  0.1314255E+00
         -1   -1    0    0    0  501 -0.00000000000E+00  0.00000000000E+00  0.65672844155E+02  0.65672844155E+02  0.00000000000E+00 0.  1.
          1   -1    0    0  501    0  0.00000000000E+00 -0.00000000000E+00 -0.18217318908E+03  0.18217318908E+03  0.00000000000E+00 0. -1.
         23    2    1    2    0    0 -0.55214127214E+01  0.34874965676E+00 -0.61497070858E+02  0.13949601424E+03  0.12508653261E+03 0.  0.
         23    2    1    2    0    0  0.55214127214E+01 -0.34874965676E+00 -0.55003274068E+02  0.10835001899E+03  0.93186688067E+02 0.  0.
          5    1    3    3  502    0  0.47548814264E+02  0.23390325915E+02 -0.61764523368E+02  0.81488194428E+02  0.41800000000E+01 0. -1.
         -5    1    3    3    0  502 -0.53070226985E+02 -0.23041576259E+02  0.26745250979E+00  0.58007819814E+02  0.41800000000E+01 0. -1.
        -11    1    4    4    0    0  0.30197630294E+02  0.11569351289E+02 -0.70001883675E+02  0.77110378567E+02  0.00000000000E+00 0. -1.
         11    1    4    4    0    0 -0.24676217573E+02 -0.11918100946E+02  0.14998609607E+02  0.31239640427E+02  0.00000000000E+00 0.  1.
</event>
<event>
 8    1  0.5951278E-006  0.8802372E+02  0.7561462E-02  0.1307709E+00
         -2   -1    0    0    0  501 -0.00000000000E+00  0.00000000000E+00  0.45076459165E+02  0.45076459165E+02  0.00000000000E+00 0.  1.
          2   -1    0    0  501    0  0.00000000000E+00 -0.00000000000E+00 -0.40692510739E+03  0.40692510739E+03  0.00000000000E+00 0. -1.
         23    2    1    2    0    0 -0.63963080789E+02  0.48284326166E+02 -0.18058943887E+03  0.23384745825E+03  0.12509770758E+03 0.  0.
         23    2    1    2    0    0  0.63963080789E+02 -0.48284326166E+02 -0.18125920935E+03  0.21815410830E+03  0.91179285680E+02 0.  0.
          5    1    3    3  502    0 -0.66273385954E+01 -0.96251153725E+01 -0.14380692628E+03  0.14434150099E+03  0.41800000000E+01 0. -1.
         -5    1    3    3    0  502 -0.57335742194E+02  0.57909441538E+02 -0.36782512593E+02  0.89505957259E+02  0.41800000000E+01 0. -1.
        -11    1    4    4    0    0  0.33116999693E+02 -0.14100520825E+02 -0.54360321073E+01  0.36402071387E+02  0.00000000000E+00 0.  1.
         11    1    4    4    0    0  0.30846081096E+02 -0.34183805341E+02 -0.17582317724E+03  0.18175203692E+03  0.00000000000E+00 0. -1.
</event>
<event>
 8    1  0.5951278E-006  0.7003279E+02  0.7561462E-02  0.1359982E+00
         -2   -1    0    0    0  501 -0.00000000000E+00  0.00000000000E+00  0.12584135402E+03  0.12584135402E+03  0.00000000000E+00 0. -1.
          2   -1    0    0  501    0  0.00000000000E+00 -0.00000000000E+00 -0.14143240864E+03  0.14143240864E+03  0.00000000000E+00 0.  1.
         23    2    1    2    0    0  0.53961076899E+02  0.22050278396E+02  0.43152286342E+02  0.14458053576E+03  0.12507357398E+03 0.  0.
         23    2    1    2    0    0 -0.53961076899E+02 -0.22050278396E+02 -0.58743340955E+02  0.12269322690E+03  0.90580545498E+02 0.  0.
          5    1    3    3  502    0  0.49653422438E+02  0.25028370919E+02 -0.35199939595E+02  0.65942322207E+02  0.41800000000E+01 0. -1.
         -5    1    3    3    0  502  0.43076544617E+01 -0.29780925231E+01  0.78352225937E+02  0.78638213556E+02  0.41800000000E+01 0. -1.
        -11    1    4    4    0    0 -0.38523906947E+02  0.11890312467E+02  0.12560930416E+02  0.42228520101E+02  0.00000000000E+00 0. -1.
         11    1    4    4    0    0 -0.15437169953E+02 -0.33940590863E+02 -0.71304271371E+02  0.80464706798E+02  0.00000000000E+00 0.  1.
</event>
<event>
 7    1  0.5951278E-006  0.1659310E+03  0.7561462E-02  0.1182159E+00
         -2   -1    0    0    0  501 -0.00000000000E+00  0.00000000000E+00  0.57599608981E+02  0.57599608981E+02  0.00000000000E+00 0.  1.
          2   -1    0    0  501    0  0.00000000000E+00 -0.00000000000E+00 -0.89035457182E+03  0.89035457182E+03  0.00000000000E+00 0. -1.
         23    2    1    2    0    0 -0.37202277581E+02  0.12339714338E+03 -0.64901569817E+03  0.67047639839E+03  0.10819593281E+03 0.  0.
          5    1    1    2  502    0 -0.20058130542E+02  0.82463359179E+01 -0.11707765051E+03  0.11914268465E+03  0.41800000000E+01 0. -1.
         -5    1    1    2    0  502  0.57260408123E+02 -0.13164347930E+03 -0.66661614161E+02  0.15833509776E+03  0.41800000000E+01 0.  1.
        -11    1    3    3    0    0  0.28529338153E+02  0.85831076491E+02 -0.29973244544E+03  0.31308215484E+03  0.00000000000E+00 0.  1.
         11    1    3    3    0    0 -0.65731615734E+02  0.37566066890E+02 -0.34928325273E+03  0.35739424355E+03  0.00000000000E+00 0. -1.
</event>
<event>
 8    1  0.5951278E-006  0.7583451E+02  0.7561462E-02  0.1341306E+00
         -3   -1    0    0    0  501 -0.00000000000E+00  0.00000000000E+00  0.63469985921E+03  0.63469985921E+03  0.00000000000E+00 0.  1.
          3   -1    0    0  501    0  0.00000000000E+00 -0.00000000000E+00 -0.24100187859E+02  0.24100187859E+02  0.00000000000E+00 0. -1.
         23    2    1    2    0    0 -0.59691869666E+02  0.64053994150E+01  0.35905535818E+03  0.38493177276E+03  0.12509025140E+03 0.  0.
         23    2    1    2    0    0  0.59691869666E+02 -0.64053994150E+01  0.25154431317E+03  0.27386827431E+03  0.90139568112E+02 0.  0.
          5    1    3    3  502    0 -0.23166725534E+02  0.66677902897E+01  0.34453666233E+03  0.34540431481E+03  0.41800000000E+01 0. -1.
         -5    1    3    3    0  502 -0.36525144132E+02 -0.26239087471E+00  0.14518695854E+02  0.39527457952E+02  0.41800000000E+01 0. -1.
        -11    1    4    4    0    0  0.37383849435E+02  0.29870186323E+02  0.20612674179E+03  0.21160816126E+03  0.00000000000E+00 0.  1.
         11    1    4    4    0    0  0.22308020232E+02 -0.36275585738E+02  0.45417571379E+02  0.62260113052E+02  0.00000000000E+00 0. -1.
</event>
<event>
 8    1  0.5951278E-006  0.1666756E+03  0.7561462E-02  0.1181360E+00
         -1   -1    0    0    0  501 -0.00000000000E+00  0.00000000000E+00  0.36304567580E+02  0.36304567580E+02  0.00000000000E+00 0.  1.
          1   -1    0    0  501    0  0.00000000000E+00 -0.00000000000E+00 -0.80967047484E+03  0.80967047484E+03  0.00000000000E+00 0. -1.
         23    2    1    2    0    0 -0.68953946711E+02  0.11063451697E+03 -0.33077328177E+03  0.37689895734E+03  0.12508883641E+03 0.  0.
         23    2    1    2    0    0  0.68953946711E+02 -0.11063451697E+03 -0.44259262549E+03  0.46907608509E+03  0.84554706250E+02 0.  0.
          5    1    3    3  502    0 -0.93692542396E+02  0.37792472242E+02 -0.15606186426E+03  0.18595521325E+03  0.41800000000E+01 0.  1.
         -5    1    3    3    0  502  0.24738595685E+02  0.72842044728E+02 -0.17471141751E+03  0.19094374408E+03  0.41800000000E+01 0.  1.
        -11    1    4    4    0    0 -0.67794904940E+01 -0.67898536383E+02 -0.20612560468E+03  0.21712654752E+03  0.00000000000E+00 0. -1.
         11    1    4    4    0    0  0.75733437205E+02 -0.42735980587E+02 -0.23646702081E+03  0.25194953756E+03  0.00000000000E+00 0.  1.
</event>
<event>
 8    1  0.5951278E-006  0.9403930E+02  0.7561462E-02  0.1293355E+00
          1   -1    0    0  501    0  0.00000000000E+00  0.00000000000E+00  0.29115260881E+03  0.29115260881E+03  0.00000000000E+00 0. -1.
         -1   -1    0    0    0  501 -0.00000000000E+00 -0.00000000000E+00 -0.48962804098E+02  0.48962804098E+02  0.00000000000E+00 0.  1.
         23    2    1    2    0    0  0.17397883380E+02  0.15433754544E+02  0.73126798441E+02  0.14673183029E+03  0.12506723889E+03 0.  0.
         23    2    1    2    0    0 -0.17397883380E+02 -0.15433754544E+02  0.16906300628E+03  0.19338358262E+03  0.90961655721E+02 0.  0.
          5    1    3    3  502    0 -0.12302569754E+01 -0.48645718472E+02  0.16670826938E+01  0.48868916733E+02  0.41800000000E+01 0. -1.
         -5    1    3    3    0  502  0.18628140356E+02  0.64079473016E+02  0.71459715747E+02  0.97862913557E+02  0.41800000000E+01 0. -1.
        -11    1    4    4    0    0 -0.69452349630E+01  0.27409236620E+02  0.13425971597E+03  0.13720486097E+03  0.00000000000E+00 0. -1.
         11    1    4    4    0    0 -0.10452648417E+02 -0.42842991163E+02  0.34803290307E+02  0.56178721657E+02  0.00000000000E+00 0.  1.
</event>
<event>
 8    1  0.5951278E-006  0.9822468E+02  0.7561462E-02  0.1284074E+00
         -3   -1    0    0    0  501 -0.00000000000E+00  0.00000000000E+00  0.22096776201E+03  0.22096776201E+03  0.00000000000E+00 0.  1.
          3   -1    0    0  501    0  0.00000000000E+00 -0.00000000000E+00 -0.65382151982E+02  0.65382151982E+02  0.00000000000E+00 0. -1.
         23    2    1    2    0    0 -0.32931799864E+02  0.33587857993E+02  0.11367189871E+03  0.17544640291E+03  0.12508993601E+03 0.  0.
         23    2    1    2    0    0  0.32931799864E+02 -0.33587857993E+02  0.41913711313E+02  0.11090351108E+03  0.91269830316E+02 0.  0.
          5    1    3    3  502    0 -0.46495571395E+02  0.68852129329E+02  0.39471943258E+02  0.92075841440E+02  0.41800000000E+01 0. -1.
         -5    1    3    3    0  502  0.13563771531E+02 -0.35264271336E+02  0.74199955453E+02  0.83370561473E+02  0.41800000000E+01 0. -1.
        -11    1    4    4    0    0 -0.16408963107E+02 -0.15860265891E+02  0.52653208037E+02  0.57386082119E+02  0.00000000000E+00 0.  1.
         11    1    4    4    0    0  0.49340762971E+02 -0.17727592101E+02 -0.10739496723E+02  0.53517428956E+02  0.00000000000E+00 0. -1.
</event>
<event>
 8    1  0.5951278E-006  0.9515656E+02  0.7561462E-02  0.1290824E+00
          1   -1    0    0  501    0  0.00000000000E+00  0.00000000000E+00  0.10913529005E+03  0.10913529005E+03  0.00000000000E+00 0. -1.
         -1   -1    0    0    0  501 -0.00000000000E+00 -0.00000000000E+00 -0.18484538725E+03  0.18484538725E+03  0.00000000000E+00 0.  1.
         23    2    1    2    0    0  0.87032535961E+02 -0.70839536222E+01 -0.69753618036E+02  0.16774822701E+03  0.12509618588E+03 0.  0.
         23    2    1    2    0    0 -0.87032535961E+02  0.70839536222E+01 -0.59564791647E+01  0.12623245030E+03  0.90963218660E+02 0.  0.
          5    1    3    3  502    0  0.64498074964E+01 -0.19185677140E+02  0.31521961552E+02  0.37693456781E+02  0.41800000000E+01 0.  1.
         -5    1    3    3    0  502  0.80582728465E+02  0.12101723518E+02 -0.10127557959E+03  0.13005477023E+03  0.41800000000E+01 0.  1.
        -11    1    4    4    0    0 -0.17246800935E+02 -0.31112537955E+01  0.38889037049E+02  0.42655471458E+02  0.00000000000E+00 0. -1.
         11    1    4    4    0    0 -0.69785735026E+02  0.10195207418E+02 -0.44845516214E+02  0.83576978839E+02  0.00000000000E+00 0.  1.
</event>
<event>
 6    1  0.5951278E-006  0.1807518E+03  0.7561462E-02  0.1167077E+00
         -1   -1    0    0    0  501 -0.00000000000E+00  0.00000000000E+00  0.18990584321E+03  0.18990584321E+03  0.00000000000E+00 0.  1.
          1   -1    0    0  501    0  0.00000000000E+00 -0.00000000000E+00 -0.45768158489E+03  0.45768158489E+03  0.00000000000E+00 0. -1.
          5    1    1    2  502    0 -0.42978465967E+02  0.49149893477E+02  0.40050517436E+02  0.76709692429E+02  0.41800000000E+01 0. -1.
         -5    1    1    2    0  502  0.44394090301E+02 -0.88935629176E+02  0.85159452870E+02  0.13095795586E+03  0.41800000000E+01 0.  1.
        -11    1    1    2    0    0 -0.87319012807E+02 -0.22871766937E+02 -0.15727088318E+03  0.18133355568E+03  0.00000000000E+00 0.  1.
         11    1    1    2    0    0  0.85903388473E+02  0.62657502637E+02 -0.23571482880E+03  0.25858622412E+03  0.00000000000E+00 0. -1.
</event>
<event>
 8    1  0.5951278E-006  0.1242045E+03  0.7561462E-02  0.1236318E+00
          1   -1    0    0  501    0  0.00000000000E+00  0.00000000000E+00  0.46875795601E+03  0.46875795601E+03  0.00000000000E+00 0. -1.
         -1   -1    0    0    0  501 -0.00000000000E+00 -0.00000000000E+00 -0.71559373460E+02  0.71559373460E+02  0.00000000000E+00 0.  1.
         23    2    1    2    0    0  0.11931674139E+02 -0.10867514409E+03  0.64821425089E+02  0.17833011817E+03  0.12508861701E+03 0.  0.
         23    2    1    2    0    0 -0.11931674139E+02  0.10867514409E+03  0.33237715746E+03  0.36198721130E+03  0.92776691844E+02 0.  0.
          5    1    3    3  502    0 -0.19941487512E+02 -0.41603888338E+02  0.88822046370E+02  0.10017671771E+03  0.41800000000E+01 0.  1.
         -5    1    3    3    0  502  0.31873161651E+02 -0.67071255756E+02 -0.24000621282E+02  0.78153400465E+02  0.41800000000E+01 0.  1.
        -11    1    4    4    0    0 -0.36693156795E+02  0.38020292177E+02  0.62125233886E+02  0.81556575812E+02  0.00000000000E+00 0.  1.
         11    1    4    4    0    0  0.24761482656E+02  0.70654851917E+02  0.27025192358E+03  0.28043063549E+03  0.00000000000E+00 0. -1.
</event>
<event>
 8    1  0.5951278E-006  0.1553314E+03  0.7561462E-02  0.1194071E+00
          3   -1    0    0  501    0  0.00000000000E+00  0.00000000000E+00  0.57446056406E+02  0.57446056406E+02  0.00000000000E+00 0. -1.
         -3   -1    0    0    0  501 -0.00000000000E+00 -0.00000000000E+00 -0.48194984619E+03  0.48194984619E+03  0.00000000000E+00 0.  1.
         23    2    1    2    0    0 -0.84024553932E+01 -0.11404149410E+03 -0.30578308569E+03  0.34960884554E+03  0.12508791211E+03 0.  0.
         23    2    1    2    0    0  0.84024553932E+01  0.11404149410E+03 -0.11872070409E+03  0.18978705705E+03  0.94066241609E+02 0.  0.
          5    1    3    3  502    0  0.45406397317E+02 -0.11939260481E+02 -0.13875145985E+03  0.14653916497E+03  0.41800000000E+01 0.  1.
         -5    1    3    3    0  502 -0.53808852710E+02 -0.10210223362E+03 -0.16703162583E+03  0.20306968057E+03  0.41800000000E+01 0.  1.
        -11    1    4    4    0    0  0.46407123892E+02  0.28565506291E+02 -0.45584252383E+02  0.71045994700E+02  0.00000000000E+00 0.  1.
         11    1    4    4    0    0 -0.38004668498E+02  0.85475987808E+02 -0.73136451711E+02  0.11874106235E+03  0.00000000000E+00 0. -1.
</event>
<event>
 8    1  0.5951278E-006  0.9403161E+02  0.7561462E-02  0.1293372E+00
         -1   -1    0    0    0  501 -0.00000000000E+00  0.00000000000E+00  0.25036764811E+03  0.25036764811E+03  0.00000000000E+00 0.  1.
          1   -1    0    0  501    0  0.00000000000E+00 -0.00000000000E+00 -0.52650551173E+02  0.52650551173E+02  0.00000000000E+00 0. -1.
         23    2    1    2    0    0 -0.26460286562E+02  0.85877340404E+01  0.14585233002E+03  0.19414965478E+03  0.12508912958E+03 0.  0.
         23    2    1    2    0    0  0.26460286562E+02 -0.85877340404E+01  0.51864766913E+02  0.10886854450E+03  0.91588809325E+02 0.  0.
          5    1    3    3  502    0 -0.62583816788E+02  0.72796886218E+00  0.14380342317E+03  0.15688900847E+03  0.41800000000E+01 0. -1.
         -5    1    3    3    0  502  0.36123530226E+02  0.78597651782E+01  0.20489068544E+01  0.37260646316E+02  0.41800000000E+01 0. -1.
        -11    1    4    4    0    0  0.26067593832E+02  0.35499547878E+02  0.46788656582E+01  0.44290282586E+02  0.00000000000E+00 0. -1.
         11    1    4    4    0    0  0.39269273032E+00 -0.44087281918E+02  0.47185901254E+02  0.64578261913E+02  0.00000000000E+00 0.  1.
</event>
<event>
 8    1  0.5951278E-006  0.1034173E+03  0.7561462E-02  0.1273270E+00
          2   -1    0    0  501    0  0.00000000000E+00  0.00000000000E+00  0.10504278025E+03  0.10504278025E+03  0.00000000000E+00 0.  1.
         -2   -1    0    0    0  501 -0.00000000000E+00 -0.00000000000E+00 -0.13099856782E+03  0.13099856782E+03  0.00000000000E+00 0. -1.
         23    2    1    2    0    0 -0.20699307123E+02 -0.40649284327E+02 -0.26276058859E+02  0.13572113440E+03  0.12509584095E+03 0.  0.
         23    2    1    2    0    0  0.20699307123E+02  0.40649284327E+02  0.32027129269E+00  0.10032021367E+03  0.89348850386E+02 0.  0.
          5    1    3    3  502    0 -0.20326347911E+02 -0.72166462606E+02 -0.54836326459E+02  0.92982008173E+02  0.41800000000E+01 0. -1.
         -5    1    3    3    0  502 -0.37295921209E+00  0.31517178279E+02  0.28560267600E+02  0.42739126226E+02  0.41800000000E+01 0. -1.
        -11    1    4    4    0    0 -0.31183635118E+02 -0.40758657126E+01  0.41082552915E+01  0.31716077028E+02  0.00000000000E+00 0.  1.
         11    1    4    4    0    0  0.51882942241E+02  0.44725150040E+02 -0.37879839988E+01  0.68604136642E+02  0.00000000000E+00 0. -1.
</event>
<event>
 8    1  0.1477459E-005  0.2037837E+03  0.7561462E-02  0.1146585E+00
         -1   -1    0    0    0  501 -0.00000000000E+00  0.00000000000E+00  0.94752672699E+02  0.94752672699E+02  0.00000000000E+00 0.  1.
          1   -1    0    0  501    0  0.00000000000E+00 -0.00000000000E+00 -0.54634429884E+03  0.54634429884E+03  0.00000000000E+00 0. -1.
         23    2    1    2    0    0  0.75250214168E+02  0.17597210513E+03 -0.15424822091E+03  0.27580605438E+03  0.12509072493E+03 0.  0.
         23    2    1    2    0    0 -0.75250214168E+02 -0.17597210513E+03 -0.29734340523E+03  0.36529091716E+03  0.91627381325E+02 0.  0.
          5    1    3    3  502    0  0.64325629083E+02  0.77807534169E+02 -0.10833990841E+02  0.10162010966E+03  0.41800000000E+01 0. -1.
         -5    1    3    3    0  502  0.10924585086E+02  0.98164570959E+02 -0.14341423007E+03  0.17418594472E+03  0.41800000000E+01 0. -1.
        -11    1    4    4    0    0 -0.70462072848E+02 -0.62776177608E+02 -0.98336643461E+02  0.13629324133E+03  0.00000000000E+00 0.  1.
         11    1    4    4    0    0 -0.47881413200E+01 -0.11319592752E+03 -0.19900676177E+03  0.22899767583E+03  0.00000000000E+00 0. -1.
</event>
<event>
 8    1  0.5951278E-006  0.6165213E+02  0.7561462E-02  0.1391026E+00
         -1   -1    0    0    0  501 -0.00000000000E+00  0.00000000000E+00  0.47411263254E+02  0.47411263254E+02  0.00000000000E+00 0.  1.
          1   -1    0    0  501    0  0.00000000000E+00 -0.00000000000E+00 -0.28998899511E+03  0.28998899511E+03  0.00000000000E+00 0. -1.
         23    2    1    2    0    0  0.31939358106E+02 -0.33625588216E+02 -0.14101804923E+03  0.19412513607E+03  0.12509066899E+03 0.  0.
         23    2    1    2    0    0 -0.31939358106E+02  0.33625588216E+02 -0.10155968263E+03  0.14327512229E+03  0.89791919192E+02 0.  0.
          5    1    3    3  502    0  0.17105553091E+02 -0.43187618687E+01  0.21582493514E+02  0.28187374424E+02  0.41800000000E+01 0.  1.
         -5    1    3    3    0  502  0.14833805016E+02 -0.29306826347E+02 -0.16260054274E+03  0.16593776165E+03  0.41800000000E+01 0.  1.
        -11    1    4    4    0    0 -0.31086062128E+02 -0.66396590313E+01  0.23097141278E+01  0.31871038735E+02  0.00000000000E+00 0.  1.
         11    1    4    4    0    0 -0.85329597802E+00  0.40265247247E+02 -0.10386939676E+03  0.11140408355E+03  0.00000000000E+00 0. -1.
</event>
<event>
 8    1  0.5951278E-006  0.1012846E+03  0.7561462E-02  0.1277618E+00
         -3   -1    0    0    0  501 -0.00000000000E+00  0.00000000000E+00  0.60896474597E+02  0.60896474597E+02  0.00000000000E+00 0.  1.
          3   -1    0    0  501    0  0.00000000000E+00 -0.00000000000E+00 -0.21030532181E+03  0.21030532181E+03  0.00000000000E+00 0. -1.
         23    2    1    2    0    0 -0.15417148489E+02  0.23913267877E+02 -0.63143432675E+02  0.14298268467E+03  0.12508965656E+03 0.  0.
         23    2    1    2    0    0  0.15417148489E+02 -0.23913267877E+02 -0.86265414541E+02  0.12821911174E+03  0.90492463894E+02 0.  0.
          5    1    3    3  502    0  0.14218503128E+02 -0.45816210386E+02 -0.42791872733E+02  0.64419777533E+02  0.41800000000E+01 0. -1.
         -5    1    3    3    0  502 -0.29635651617E+02  0.69729478263E+02 -0.20351559942E+02  0.78562907137E+02  0.41800000000E+01 0. -1.
        -11    1    4    4    0    0  0.15107306570E+02 -0.50109062124E+02 -0.18407204277E+02  0.55479491599E+02  0.00000000000E+00 0.  1.
         11    1    4    4    0    0  0.30984191918E+00  0.26195794247E+02 -0.67858210263E+02  0.72739620142E+02  0.00000000000E+00 0. -1.
</event>
<event>
 8    1  0.5951278E-006  0.8411675E+02  0.7561462E-02  0.1317759E+00
         -1   -1    0    0    0  501 -0.00000000000E+00  0.00000000000E+00  0.59803802695E+03  0.59803802695E+03  0.00000000000E+00 0.  1.
          1   -1    0    0  501    0  0.00000000000E+00 -0.00000000000E+00 -0.49384963158E+02  0.49384963158E+02  0.00000000000E+00 0. -1.
         23    2    1    2    0    0 -0.93034705307E+01  0.97419693162E+01  0.54107332907E+03  0.55550953270E+03  0.12509609490E+03 0.  0.
         23    2    1    2    0    0  0.93034705307E+01 -0.97419693162E+01  0.75797347189E+01  0.91913457405E+02  0.90604474193E+02 0.  0.
          5    1    3    3  502    0 -0.45134729924E+02 -0.25374708078E+02  0.43505183447E+03  0.43814220378E+03  0.41800000000E+01 0. -1.
         -5    1    3    3    0  502  0.35831259393E+02  0.35116677394E+02  0.10602149460E+03  0.11736732892E+03  0.41800000000E+01 0. -1.
        -11    1    4    4    0    0 -0.60444521629E+01  0.26185425077E+02  0.35040686537E+02  0.44159501824E+02  0.00000000000E+00 0.  1.
         11    1    4    4    0    0  0.15347922694E+02 -0.35927394393E+02 -0.27460951818E+02  0.47753955581E+02  0.00000000000E+00 0. -1.
</event>
<event>
 8    1  0.5951278E-006  0.1642112E+03  0.7561462E-02  0.1184023E+00
         -2   -1    0    0    0  501 -0.00000000000E+00  0.00000000000E+00  0.28815272839E+02  0.28815272839E+02  0.00000000000E+00 0.  1.
          2   -1    0    0  501    0  0.00000000000E+00 -0.00000000000E+00 -0.11473972524E+04  0.11473972524E+04  0.00000000000E+00 0. -1.
         23    2    1    2    0    0 -0.95450681483E+01 -0.14196355886E+03 -0.50361395644E+03  0.53806989412E+03  0.12508970171E+03 0.  0.
         23    2    1    2    0    0  0.95450681483E+01  0.14196355886E+03 -0.61496802314E+03  0.63814263113E+03  0.93784795221E+02 0.  0.
          5    1    3    3  502    0 -0.52714610595E+02 -0.98748702855E+02 -0.41843868636E+03  0.43317264818E+03  0.41800000000E+01 0. -1.
         -5    1    3    3    0  502  0.43169542447E+02 -0.43214856003E+02 -0.85175270079E+02  0.10489724595E+03  0.41800000000E+01 0. -1.
        -11    1    4    4    0    0  0.34614548305E+02  0.10466011991E+03 -0.53655679535E+03  0.54776372853E+03  0.00000000000E+00 0. -1.
         11    1    4    4    0    0 -0.25069480157E+02  0.37303438947E+02 -0.78411227792E+02  0.90378902607E+02  0.00000000000E+00 0.  1.
</event>
<event>
 8    1  0.5951278E-006  0.1009541E+03  0.7561462E-02  0.1278302E+00
         -1   -1    0    0    0  501 -0.00000000000E+00  0.00000000000E+00  0.53442869580E+02  0.53442869580E+02  0.00000000000E+00 0.  1.
          1   -1    0    0  501    0  0.00000000000E+00 -0.00000000000E+00 -0.30947919886E+03  0.30947919886E+03  0.00000000000E+00 0. -1.
         23    2    1    2    0    0  0.30392439158E+02 -0.39706574235E+02 -0.77088089453E+02  0.15521089492E+03  0.12509011141E+03 0.  0.
         23    2    1    2    0    0 -0.30392439158E+02  0.39706574235E+02 -0.17894823982E+03  0.20771117351E+03  0.92850130159E+02 0.  0.
          5    1    3    3  502    0  0.17846261739E+02  0.37705687775E+02  0.42591841448E+01  0.42140491196E+02  0.41800000000E+01 0. -1.
         -5    1    3    3    0  502  0.12546177419E+02 -0.77412262010E+02 -0.81347273597E+02  0.11307040373E+03  0.41800000000E+01 0. -1.
        -11    1    4    4    0    0  0.18411175527E+02  0.23860744990E+02 -0.10972968018E+02  0.32073549272E+02  0.00000000000E+00 0.  1.
         11    1    4    4    0    0 -0.48803614686E+02  0.15845829245E+02 -0.16797527181E+03  0.17563762424E+03  0.00000000000E+00 0. -1.
</event>
<event>
 8    1  0.5951278E-006  0.7437589E+02  0.7561462E-02  0.1345815E+00
          1   -1    0    0  501    0  0.00000000000E+00  0.00000000000E+00  0.35721722012E+02  0.35721722012E+02  0.00000000000E+00 0. -1.
         -1   -1    0    0    0  501 -0.00000000000E+00 -0.00000000000E+00 -0.45887603099E+03  0.45887603099E+03  0.00000000000E+00 0.  1.
         23    2    1    2    0    0  0.28008106988E+02  0.65944595913E+01 -0.36268247666E+03  0.38472827113E+03  0.12509725326E+03 0.  0.
         23    2    1    2    0    0 -0.28008106988E+02 -0.65944595913E+01 -0.60471832318E+02  0.10986948188E+03  0.87100629099E+02 0.  0.
          5    1    3    3  502    0  0.39898430735E+02 -0.69662967521E+01 -0.36390378810E+03  0.36617462154E+03  0.41800000000E+01 0. -1.
         -5    1    3    3    0  502 -0.11890323746E+02  0.13560756343E+02  0.12213114385E+01  0.18553649588E+02  0.41800000000E+01 0. -1.
        -11    1    4    4    0    0 -0.31644780627E+02  0.35335378888E+02 -0.43919075185E+02  0.64644151376E+02  0.00000000000E+00 0.  1.
         11    1    4    4    0    0  0.36366736385E+01 -0.41929838480E+02 -0.16552757133E+02  0.45225330500E+02  0.00000000000E+00 0. -1.
</event>
<event>
 8    1  0.5951278E-006  0.2450895E+03  0.7561462E-02  0.1116448E+00
          2   -1    0    0  501    0  0.00000000000E+00  0.00000000000E+00  0.60090691869E+03  0.60090691869E+03  0.00000000000E+00 0. -1.
         -2   -1    0    0    0  501 -0.00000000000E+00 -0.00000000000E+00 -0.12223986685E+03  0.12223986685E+03  0.00000000000E+00 0.  1.
         23    2    1    2    0    0  0.16219550021E+02  0.22358562487E+03  0.10423250759E+03  0.27705829912E+03  0.12507309871E+03 0.  0.
         23    2    1    2    0    0 -0.16219550021E+02 -0.22358562487E+03  0.37443454425E+03  0.44608848642E+03  0.92412684962E+02 0.  0.
          5    1    3    3  502    0  0.70943042373E+02  0.13049646891E+03  0.57699968791E+02  0.15940201523E+03  0.41800000000E+01 0.  1.
         -5    1    3    3    0  502 -0.54723492352E+02  0.93089155957E+02  0.46532538797E+02  0.11765628389E+03  0.41800000000E+01 0.  1.
        -11    1    4    4    0    0 -0.41438220321E+02 -0.15516091549E+03  0.19643234111E+03  0.25372761070E+03  0.00000000000E+00 0.  1.
         11    1    4    4    0    0  0.25218670300E+02 -0.68424709377E+02  0.17800220314E+03  0.19236087572E+03  0.00000000000E+00 0. -1.
</event>
<event>
 8    1  0.5951278E-006  0.2523071E+03  0.7561462E-02  0.1111855E+00
          2   -1    0    0  501    0  0.00000000000E+00  0.00000000000E+00  0.13016633938E+03  0.13016633938E+03  0.00000000000E+00 0.  1.
         -2   -1    0    0    0  501 -0.00000000000E+00 -0.00000000000E+00 -0.62558410566E+03  0.62558410566E+03  0.00000000000E+00 0. -1.
         23    2    1    2    0    0 -0.23286267585E+03 -0.50113277772E+02 -0.40339953375E+03  0.48488585259E+03  0.12508692897E+03 0.  0.
         23    2    1    2    0    0  0.23286267585E+03  0.50113277772E+02 -0.92018232537E+02  0.27086459246E+03  0.90354335335E+02 0.  0.
          5    1    3    3  502    0 -0.12151256425E+03  0.25555459664E+02 -0.25993813093E+03  0.28810360828E+03  0.41800000000E+01 0. -1.
         -5    1    3    3    0  502 -0.11135011160E+03 -0.75668737436E+02 -0.14346140281E+03  0.19678224431E+03  0.41800000000E+01 0. -1.
        -11    1    4    4    0    0  0.13452638549E+03 -0.16832967879E+01 -0.85757472169E+02  0.15954474580E+03  0.00000000000E+00 0. -1.
         11    1    4    4    0    0  0.98336290363E+02  0.51796574560E+02 -0.62607603677E+01  0.11131984665E+03  0.00000000000E+00 0.  1.
</event>
<event>
 7    1  0.5951278E-006  0.1027528E+03  0.7561462E-02  0.1274611E+00
          1   -1    0    0  501    0  0.00000000000E+00  0.00000000000E+00  0.24464043176E+02  0.24464043176E+02  0.00000000000E+00 0. -1.
         -1   -1    0    0    0  501 -0.00000000000E+00 -0.00000000000E+00 -0.10462671278E+04  0.10462671278E+04  0.00000000000E+00 0.  1.
         23    2    1    2    0    0  0.31478830082E+02  0.12655719874E+02 -0.12343944932E+03  0.15719067462E+03  0.91216920307E+02 0.  0.
          5    1    1    2  502    0  0.53514161156E+02 -0.14928037825E+02 -0.14421827249E+03  0.15460593222E+03  0.41800000000E+01 0. -1.
         -5    1    1    2    0  502 -0.84992991238E+02  0.22723179506E+01 -0.75414536277E+03  0.75893456409E+03  0.41800000000E+01 0.  1.
        -11    1    3    3    0    0  0.46441589919E+02  0.23580724667E+01 -0.12985267953E+03  0.13792788029E+03  0.00000000000E+00 0.  1.
         11    1    3    3    0    0 -0.14962759837E+02  0.10297647407E+02  0.64132302025E+01  0.19262794338E+02  0.00000000000E+00 0. -1.
</event>
<event>
 8    1  0.5951278E-006  0.8160570E+02  0.7561462E-02  0.1324555E+00
          3   -1    0    0  501    0  0.00000000000E+00  0.00000000000E+00  0.53348567353E+03  0.53348567353E+03  0.00000000000E+00 0. -1.
         -3   -1    0    0    0  501 -0.00000000000E+00 -0.00000000000E+00 -0.31357438484E+02  0.31357438484E+02  0.00000000000E+00 0.  1.
         23    2    1    2    0    0 -0.21912238337E+02  0.46012333113E+02  0.17322369934E+03  0.21966351481E+03  0.12509328015E+03 0.  0.
         23    2    1    2    0    0  0.21912238337E+02 -0.46012333113E+02  0.32890453570E+03  0.34517959720E+03  0.91506719584E+02 0.  0.
          5    1    3    3  502    0  0.71213023140E+01  0.15153648085E+02  0.17614453246E+03  0.17698789425E+03  0.41800000000E+01 0. -1.
         -5    1    3    3    0  502 -0.29033540651E+02  0.30858685029E+02 -0.29208331139E+01  0.42675620564E+02  0.41800000000E+01 0. -1.
        -11    1    4    4    0    0 -0.33130586083E+02 -0.33119364356E+02  0.17707407827E+03  0.18316592813E+03  0.00000000000E+00 0.  1.
         11    1    4    4    0    0  0.55042824420E+02 -0.12892968757E+02  0.15183045743E+03  0.16201366907E+03  0.00000000000E+00 0. -1.
</event>
<event>
 8    1  0.5951278E-006  0.1116933E+03  0.7561462E-02  0.1257466E+00
          1   -1    0    0  501    0  0.00000000000E+00  0.00000000000E+00  0.86648079056E+03  0.86648079056E+03  0.00000000000E+00 0. -1.
         -1   -1    0    0    0  501 -0.00000000000E+00 -0.00000000000E+00 -0.18966040379E+02  0.18966040379E+02  0.00000000000E+00 0.  1.
         23    2    1    2    0    0 -0.18351270192E+02  0.62742537494E+02  0.54796123218E+03  0.56584673151E+03  0.12509043312E+03 0.  0.
         23    2    1    2    0    0  0.18351270192E+02 -0.62742537494E+02  0.29955351800E+03  0.31960009943E+03  0.90213736651E+02 0.  0.
          5    1    3    3  502    0 -0.44953892924E+02  0.82057406755E+02  0.26724776644E+03  0.28318388295E+03  0.41800000000E+01 0. -1.
         -5    1    3    3    0  502  0.26602622732E+02 -0.19314869261E+02  0.28071346573E+03  0.28266284856E+03  0.41800000000E+01 0. -1.
        -11    1    4    4    0    0  0.43143635156E+02 -0.56380052494E+02  0.27541404270E+03  0.28441690964E+03  0.00000000000E+00 0. -1.
         11    1    4    4    0    0 -0.24792364964E+02 -0.63624849997E+01  0.24139475298E+02  0.35183189787E+02  0.00000000000E+00 0.  1.
</event>
<event>
 8    1  0.5951278E-006  0.1181913E+03  0.7561462E-02  0.1246111E+00
         -2   -1    0    0    0  501 -0.00000000000E+00  0.00000000000E+00  0.10440297457E+03  0.10440297457E+03  0.00000000000E+00 0.  1.
          2   -1    0    0  501    0  0.00000000000E+00 -0.00000000000E+00 -0.59703341088E+03  0.59703341088E+03  0.00000000000E+00 0. -1.
         23    2    1    2    0    0  0.12399134153E+02 -0.98748561688E+02  0.36902289516E+02  0.15521793345E+03  0.11325109681E+03 0.  0.
         23    2    1    2    0    0 -0.12399134153E+02  0.98748561688E+02 -0.52953272582E+03  0.54621845200E+03  0.89692099046E+02 0.  0.
          5    1    3    3  502    0 -0.16949877963E+01 -0.74210583592E+02 -0.31751221666E+02  0.80843652676E+02  0.41800000000E+01 0. -1.
         -5    1    3    3    0  502  0.14094121950E+02 -0.24537978095E+02  0.68653511182E+02  0.74374280770E+02  0.41800000000E+01 0.  1.
        -11    1    4    4    0    0  0.22970636663E+02  0.95143636949E+02 -0.40923788174E+03  0.42077975908E+03  0.00000000000E+00 0. -1.
         11    1    4    4    0    0 -0.35369770817E+02  0.36049247388E+01 -0.12029484409E+03  0.12543869293E+03  0.00000000000E+00 0.  1.
</event>
<event>
 8    1  0.5951278E-006  0.1032459E+03  0.7561462E-02  0.1273615E+00
          3   -1    0    0  501    0  0.00000000000E+00  0.00000000000E+00  0.12402039315E+03  0.12402039315E+03  0.00000000000E+00 0. -1.
         -3   -1    0    0    0  501 -0.00000000000E+00 -0.00000000000E+00 -0.26748437923E+03  0.26748437923E+03  0.00000000000E+00 0.  1.
         23    2    1    2    0    0 -0.37592726890E+02 -0.26577945061E+02 -0.22534277036E+03  0.26181341750E+03  0.12508917279E+03 0.  0.
         23    2    1    2    0    0  0.37592726890E+02  0.26577945061E+02  0.81878784279E+02  0.12969135488E+03  0.89420981519E+02 0.  0.
          5    1    3    3  502    0 -0.35487948270E+02 -0.67259464938E+02 -0.19911552821E+03  0.21318465252E+03  0.41800000000E+01 0. -1.
         -5    1    3    3    0  502 -0.21047786203E+01  0.40681519877E+02 -0.26227242154E+02  0.48628764981E+02  0.41800000000E+01 0. -1.
        -11    1    4    4    0    0  0.45139589296E+02 -0.14657180125E+02  0.72632892152E+02  0.86763773969E+02  0.00000000000E+00 0. -1.
         11    1    4    4    0    0 -0.75468624053E+01  0.41235125186E+02  0.92458921271E+01  0.42927580907E+02  0.00000000000E+00 0.  1.
</event>
<event>
 8    1  0.5951278E-006  0.2807167E+03  0.7561462E-02  0.1095298E+00
          1   -1    0    0  501    0  0.00000000000E+00  0.00000000000E+00  0.59344259892E+03  0.59344259892E+03  0.00000000000E+00 0. -1.
         -1   -1    0    0    0  501 -0.00000000000E+00 -0.00000000000E+00 -0.14522156257E+03  0.14522156257E+03  0.00000000000E+00 0.  1.
         23    2    1    2    0    0  0.23376450533E+03  0.12611820670E+03  0.30655063253E+03  0.42446227810E+03  0.12507313543E+03 0.  0.
         23    2    1    2    0    0 -0.23376450533E+03 -0.12611820670E+03  0.14167040381E+03  0.31420188339E+03  0.90003745464E+02 0.  0.
          5    1    3    3  502    0  0.10930487491E+03  0.46503837043E+01  0.66815663077E+02  0.12826140097E+03  0.41800000000E+01 0. -1.
         -5    1    3    3    0  502  0.12445963042E+03  0.12146782300E+03  0.23973496946E+03  0.29620087712E+03  0.41800000000E+01 0. -1.
        -11    1    4    4    0    0 -0.31927629563E+02  0.11239147726E+02  0.31923922143E+02  0.46527720513E+02  0.00000000000E+00 0.  1.
         11    1    4    4    0    0 -0.20183687577E+03 -0.13735735443E+03  0.10974648167E+03  0.26767416288E+03  0.00000000000E+00 0. -1.
</event>
<event>
 8    1  0.5951278E-006  0.1147924E+03  0.7561462E-02  0.1251944E+00
         -2   -1    0    0    0  501 -0.00000000000E+00  0.00000000000E+00  0.43672560211E+02  0.43672560211E+02  0.00000000000E+00 0. -1.
          2   -1    0    0  501    0  0.00000000000E+00 -0.00000000000E+00 -0.37584034455E+03  0.37584034455E+03  0.00000000000E+00 0.  1.
         23    2    1    2    0    0  0.29735865192E+02 -0.60534394573E+02 -0.20576051268E+03  0.25006748987E+03  0.12509087219E+03 0.  0.
         23    2    1    2    0    0 -0.29735865192E+02  0.60534394573E+02 -0.12640727166E+03  0.16944541489E+03  0.90467207841E+02 0.  0.
          5    1    3    3  502    0  0.59922052333E+02 -0.11818868339E+02 -0.17390588940E+03  0.18436666937E+03  0.41800000000E+01 0.  1.
         -5    1    3    3    0  502 -0.30186187141E+02 -0.48715526233E+02 -0.31854623274E+02  0.65700820499E+02  0.41800000000E+01 0.  1.
        -11    1    4    4    0    0  0.31562239169E+02  0.18618854840E+02 -0.27761024512E+02  0.45972939637E+02  0.00000000000E+00 0.  1.
         11    1    4    4    0    0 -0.61298104361E+02  0.41915539733E+02 -0.98646247146E+02  0.12347247525E+03  0.00000000000E+00 0. -1.
</event>
<event>
 8    1  0.5951278E-006  0.1252358E+03  0.7561462E-02  0.1234701E+00
          2   -1    0    0  501    0  0.00000000000E+00  0.00000000000E+00  0.76864358778E+02  0.76864358778E+02  0.00000000000E+00 0. -1.
         -2   -1    0    0    0  501 -0.00000000000E+00 -0.00000000000E+00 -0.28369151778E+03  0.28369151778E+03  0.00000000000E+00 0.  1.
         23    2    1    2    0    0  0.58115331005E+02  0.47532327154E+02 -0.19304973763E+03  0.24197550442E+03  0.12508888728E+03 0.  0.
         23    2    1    2    0    0 -0.58115331005E+02 -0.47532327154E+02 -0.13777421377E+02  0.11858037214E+03  0.90745652755E+02 0.  0.
          5    1    3    3  502    0  0.86250997320E+02  0.68350873378E+02 -0.15458050603E+03  0.18979905605E+03  0.41800000000E+01 0. -1.
         -5    1    3    3    0  502 -0.28135666315E+02 -0.20818546224E+02 -0.38469231592E+02  0.52176448377E+02  0.41800000000E+01 0. -1.
        -11    1    4    4    0    0 -0.67045071847E+02 -0.59854310976E+02  0.99162993095E+01  0.90420756430E+02  0.00000000000E+00 0. -1.
         11    1    4    4    0    0  0.89297408421E+01  0.12321983822E+02 -0.23693720686E+02  0.28159615707E+02  0.00000000000E+00 0.  1.
</event>
<event>
 8    1  0.5951278E-006  0.1582561E+03  0.7561462E-02  0.1190680E+00
         -2   -1    0    0    0  501 -0.00000000000E+00  0.00000000000E+00  0.63067213397E+02  0.63067213397E+02  0.00000000000E+00 0.  1.
          2   -1    0    0  501    0  0.00000000000E+00 -0.00000000000E+00 -0.42363008509E+03  0.42363008509E+03  0.00000000000E+00 0. -1.
         23    2    1    2    0    0  0.11455300254E+03 -0.39689415068E+02 -0.18042062747E+03  0.25078999834E+03  0.12508549233E+03 0.  0.
         23    2    1    2    0    0 -0.11455300254E+03  0.39689415068E+02 -0.18014224422E+03  0.23590730015E+03  0.92213806178E+02 0.  0.
          5    1    3    3  502    0  0.44519407423E+02  0.38863283924E+02 -0.10731741250E+03  0.12258397897E+03  0.41800000000E+01 0. -1.
         -5    1    3    3    0  502  0.70033595116E+02 -0.78552698992E+02 -0.73103214971E+02  0.12820601937E+03  0.41800000000E+01 0. -1.
        -11    1    4    4    0    0 -0.12604967622E+03  0.17905462735E+02 -0.15672960086E+03  0.20192398138E+03  0.00000000000E+00 0.  1.
         11    1    4    4    0    0  0.11496673683E+02  0.21783952334E+02 -0.23412643368E+02  0.33983318769E+02  0.00000000000E+00 0. -1.
</event>
<event>
 8    1  0.6785049E-006  0.1423046E+03  0.7561462E-02  0.1210261E+00
         -2   -1    0    0    0  501 -0.00000000000E+00  0.00000000000E+00  0.33866442261E+02  0.33866442261E+02  0.00000000000E+00 0.  1.
          2   -1    0    0  501    0  0.00000000000E+00 -0.00000000000E+00 -0.95344796756E+03  0.95344796756E+03  0.00000000000E+00 0. -1.
         23    2    1    2    0    0 -0.57436177226E+01  0.14186660264E+03 -0.49792117373E+03  0.53266551052E+03  0.12509168145E+03 0.  0.
         23    2    1    2    0    0  0.57436177226E+01 -0.14186660264E+03 -0.42166035157E+03  0.45464889930E+03  0.93536342957E+02 0.  0.
          5    1    3    3  502    0  0.28275687153E+01  0.43793627308E+02 -0.27327581467E+02  0.51866617843E+02  0.41800000000E+01 0.  1.
         -5    1    3    3    0  502 -0.85711864379E+01  0.98072975334E+02 -0.47059359226E+03  0.48079889268E+03  0.41800000000E+01 0.  1.
        -11    1    4    4    0    0  0.16238555517E+01 -0.57652515968E+02 -0.59743698524E+02  0.83040706992E+02  0.00000000000E+00 0.  1.
         11    1    4    4    0    0  0.41197621709E+01 -0.84214086674E+02 -0.36191665305E+03  0.37160819231E+03  0.00000000000E+00 0. -1.
</event>
<event>
 7    1  0.5951278E-006  0.1648980E+03  0.7561462E-02  0.1183275E+00
         -2   -1    0    0    0  501 -0.00000000000E+00  0.00000000000E+00  0.37244874829E+03  0.37244874829E+03  0.00000000000E+00 0.  1.
          2   -1    0    0  501    0  0.00000000000E+00 -0.00000000000E+00 -0.10915842882E+03  0.10915842882E+03  0.00000000000E+00 0. -1.
         23    2    1    2    0    0  0.35786498302E+02 -0.22499801176E+02 -0.29808412226E+02  0.10388073404E+03  0.90087462789E+02 0.  0.
          5    1    1    2  502    0 -0.12309108992E+03  0.65067417918E+02  0.14973039021E+03  0.20450390570E+03  0.41800000000E+01 0. -1.
         -5    1    1    2    0  502  0.87304591623E+02 -0.42567616741E+02  0.14336834149E+03  0.17322253738E+03  0.41800000000E+01 0.  1.
        -11    1    3    3    0    0 -0.13834671464E+02 -0.38688964343E+02 -0.31319174482E+02  0.51663573112E+02  0.00000000000E+00 0. -1.
         11    1    3    3    0    0  0.49621169765E+02  0.16189163167E+02  0.15107622559E+01  0.52217160929E+02  0.00000000000E+00 0.  1.
</event>
<event>
 8    1  0.5951278E-006  0.8080415E+02  0.7561462E-02  0.1326785E+00
         -1   -1    0    0    0  501 -0.00000000000E+00  0.00000000000E+00  0.19469282593E+03  0.19469282593E+03  0.00000000000E+00 0.  1.
          1   -1    0    0  501    0  0.00000000000E+00 -0.00000000000E+00 -0.66965874256E+02  0.66965874256E+02  0.00000000000E+00 0. -1.
         23    2    1    2    0    0 -0.16590487820E+02 -0.90343135139E+01  0.11189761376E+03  0.16889642936E+03  0.12509222509E+03 0.  0.
         23    2    1    2    0    0  0.16590487820E+02  0.90343135139E+01  0.15829337916E+02  0.92762270831E+02  0.89428227334E+02 0.  0.
          5    1    3    3  502    0  0.28789118891E+02 -0.47137681742E+02  0.89814615650E+02  0.10552209243E+03  0.41800000000E+01 0.  1.
         -5    1    3    3    0  502 -0.45379606711E+02  0.38103368228E+02  0.22082998114E+02  0.63374336929E+02  0.41800000000E+01 0.  1.
        -11    1    4    4    0    0 -0.65837334838E+01 -0.13167088894E+02 -0.31965434868E+02  0.35192425362E+02  0.00000000000E+00 0. -1.
         11    1    4    4    0    0  0.23174221304E+02  0.22201402408E+02  0.47794772784E+02  0.57569845470E+02  0.00000000000E+00 0.  1.
</event>
<event>
 8    1  0.5951278E-006  0.1026438E+03  0.7561462E-02  0.1274833E+00
         -1   -1    0    0    0  501 -0.00000000000E+00  0.00000000000E+00  0.57642256324E+02  0.57642256324E+02  0.00000000000E+00 0.  1.
          1   -1    0    0  501    0  0.00000000000E+00 -0.00000000000E+00 -0.31424515892E+03  0.31424515892E+03  0.00000000000E+00 0. -1.
         23    2    1    2    0    0 -0.21788238043E+01  0.44217827645E+02 -0.50760065943E+02  0.14207100499E+03  0.12509045771E+03 0.  0.
         23    2    1    2    0    0  0.21788238043E+01 -0.44217827645E+02 -0.20584283665E+03  0.22981641025E+03  0.92110506809E+02 0.  0.
          5    1    3    3  502    0 -0.50188140670E+02  0.34336615426E+02 -0.66703235974E+02  0.90358434649E+02  0.41800000000E+01 0. -1.
         -5    1    3    3    0  502  0.48009316865E+02  0.98812122190E+01  0.15943170031E+02  0.51712570343E+02  0.41800000000E+01 0. -1.
        -11    1    4    4    0    0 -0.15265630786E+02  0.21936170534E+02 -0.25526292902E+02  0.36957092558E+02  0.00000000000E+00 0.  1.
         11    1    4    4    0    0  0.17444454591E+02 -0.66153998179E+02 -0.18031654375E+03  0.19285931769E+03  0.00000000000E+00 0. -1.
</event>
<event>
 8    1  0.7183722E-006  0.2170831E+03  0.7561462E-02  0.1136077E+00
         -2   -1    0    0    0  501 -0.00000000000E+00  0.00000000000E+00  0.26106560647E+02  0.26106560647E+02  0.00000000000E+00 0.  1.
          2   -1    0    0  501    0  0.00000000000E+00 -0.00000000000E+00 -0.18694703074E+04  0.18694703074E+04  0.00000000000E+00 0. -1.
         23    2    1    2    0    0 -0.10277446900E+03 -0.16242421534E+03 -0.92661788324E+03  0.95457413209E+03  0.12508738904E+03 0.  0.
         23    2    1    2    0    0  0.10277446900E+03  0.16242421534E+03 -0.91674586346E+03  0.94100273591E+03  0.90105236289E+02 0.  0.
          5    1    3    3  502    0 -0.82522044299E+02 -0.17783663691E+03 -0.87697483541E+03  0.89863123224E+03  0.41800000000E+01 0. -1.
         -5    1    3    3    0  502 -0.20252424703E+02  0.15412421565E+02 -0.49643047835E+02  0.55942899846E+02  0.41800000000E+01 0. -1.
        -11    1    4    4    0    0  0.11744376019E+03  0.12230301390E+03 -0.73319695365E+03  0.75254822893E+03  0.00000000000E+00 0.  1.
         11    1    4    4    0    0 -0.14669291193E+02  0.40121201449E+02 -0.18354890981E+03  0.18845450699E+03  0.00000000000E+00 0. -1.
</event>
<event>
 8    1  0.5951278E-006  0.1521563E+03  0.7561462E-02  0.1197848E+00
          1   -1    0    0  501    0  0.00000000000E+00  0.00000000000E+00  0.36914816776E+02  0.36914816776E+02  0.00000000000E+00 0. -1.
         -1   -1    0    0    0  501 -0.00000000000E+00 -0.00000000000E+00 -0.88516609142E+03  0.88516609142E+03  0.00000000000E+00 0.  1.
         23    2    1    2    0    0  0.13081901003E+03 -0.56795980652E+02 -0.51914096359E+03  0.55271619458E+03  0.12509378430E+03 0.  0.
         23    2    1    2    0    0 -0.13081901003E+03  0.56795980652E+02 -0.32911031106E+03  0.36936471362E+03  0.88188990347E+02 0.  0.
          5    1    3    3  502    0  0.29831251846E+02 -0.25458615911E+02 -0.35653086654E+03  0.35870569539E+03  0.41800000000E+01 0. -1.
         -5    1    3    3    0  502  0.10098775819E+03 -0.31337364741E+02 -0.16261009705E+03  0.19401049919E+03  0.41800000000E+01 0. -1.
        -11    1    4    4    0    0 -0.65721729972E+02  0.66194572981E+02 -0.24784855747E+03  0.26482064633E+03  0.00000000000E+00 0. -1.
         11    1    4    4    0    0 -0.65097280062E+02 -0.93985923295E+01 -0.81261753584E+02  0.10454406729E+03  0.00000000000E+00 0.  1.
</event>
<event>
 8    1  0.5951278E-006  0.6334241E+02  0.7561462E-02  0.1384317E+00
         -1   -1    0    0    0  501 -0.00000000000E+00  0.00000000000E+00  0.85095832029E+02  0.85095832029E+02  0.00000000000E+00 0.  1.
          1   -1    0    0  501    0  0.00000000000E+00 -0.00000000000E+00 -0.19778640590E+03  0.19778640590E+03  0.00000000000E+00 0. -1.
         23    2    1    2    0    0 -0.85788034510E+01 -0.24994811635E+02  0.11127506097E+02  0.12833411057E+03  0.12508991193E+03 0.  0.
         23    2    1    2    0    0  0.85788034510E+01  0.24994811635E+02 -0.12381807996E+03  0.15454812735E+03  0.88633347362E+02 0.  0.
          5    1    3    3  502    0 -0.12359115112E+02 -0.35976945379E+00  0.66340611294E+02  0.67612323339E+02  0.41800000000E+01 0. -1.
         -5    1    3    3    0  502  0.37803116613E+01 -0.24635042181E+02 -0.55213105197E+02  0.60721787235E+02  0.41800000000E+01 0. -1.
        -11    1    4    4    0    0  0.30865305914E+02 -0.20945189336E+02 -0.30537224828E+02  0.48206743986E+02  0.00000000000E+00 0.  1.
         11    1    4    4    0    0 -0.22286502463E+02  0.45940000971E+02 -0.93280855135E+02  0.10634138336E+03  0.00000000000E+00 0. -1.
</event>
<event>
 8    1  0.5951278E-006  0.1628131E+03  0.7561462E-02  0.1185557E+00
         -1   -1    0    0    0  501 -0.00000000000E+00  0.00000000000E+00  0.60806824244E+02  0.60806824244E+02  0.00000000000E+00 0.  1.
          1   -1    0    0  501    0  0.00000000000E+00 -0.00000000000E+00 -0.57954869278E+03  0.57954869278E+03  0.00000000000E+00 0. -1.
         23    2    1    2    0    0  0.66932512852E+02 -0.12448769092E+03 -0.16978659686E+03  0.25387473436E+03  0.12509095015E+03 0.  0.
         23    2    1    2    0    0 -0.66932512852E+02  0.12448769092E+03 -0.34895527168E+03  0.38648078266E+03  0.87295287774E+02 0.  0.
          5    1    3    3  502    0  0.86587268074E+02 -0.13274447588E+03 -0.11775407787E+03  0.19748910381E+03  0.41800000000E+01 0.  1.
         -5    1    3    3    0  502 -0.19654755221E+02  0.82567849614E+01 -0.52032518984E+02  0.56385630550E+02  0.41800000000E+01 0.  1.
        -11    1    4    4    0    0 -0.27820735480E+02  0.21395589090E+02 -0.18883189202E+03  0.19206573874E+03  0.00000000000E+00 0.  1.
         11    1    4    4    0    0 -0.39111777372E+02  0.10309210183E+03 -0.16012337966E+03  0.19441504392E+03  0.00000000000E+00 0. -1.
</event>
<event>
 8    1  0.5951278E-006  0.1167180E+03  0.7561462E-02  0.1248612E+00
          2   -1    0    0  501    0  0.00000000000E+00  0.00000000000E+00  0.76911167764E+02  0.76911167764E+02  0.00000000000E+00 0. -1.
         -2   -1    0    0    0  501 -0.00000000000E+00 -0.00000000000E+00 -0.20501420247E+03  0.20501420247E+03  0.00000000000E+00 0.  1.
         23    2    1    2    0    0  0.45785335130E+02 -0.35856211385E+02 -0.10216236456E+03  0.17165989210E+03  0.12509198622E+03 0.  0.
         23    2    1    2    0    0 -0.45785335130E+02  0.35856211385E+02 -0.25940670143E+02  0.11026547813E+03  0.90019956076E+02 0.  0.
          5    1    3    3  502    0  0.28338984206E+02  0.45954263772E+02 -0.38019485976E+02  0.66165293762E+02  0.41800000000E+01 0.  1.
         -5    1    3    3    0  502  0.17446350924E+02 -0.81810475157E+02 -0.64142878587E+02  0.10549459834E+03  0.41800000000E+01 0.  1.
        -11    1    4    4    0    0 -0.33948162473E+02 -0.19345773226E+02  0.13562816040E+02  0.41360447965E+02  0.00000000000E+00 0. -1.
         11    1    4    4    0    0 -0.11837172658E+02  0.55201984610E+02 -0.39503486182E+02  0.68905030165E+02  0.00000000000E+00 0.  1.
</event>
<event>
 6    1  0.5951278E-006  0.8089772E+02  0.7561462E-02  0.1326523E+00
         -2   -1    0    0    0  501 -0.00000000000E+00  0.00000000000E+00  0.18691977243E+02  0.18691977243E+02  0.00000000000E+00 0. -1.
          2   -1    0    0  501    0  0.00000000000E+00 -0.00000000000E+00 -0.45712949095E+03  0.45712949095E+03  0.00000000000E+00 0.  1.
          5    1    1    2  502    0  0.39209810463E+01  0.59045473801E+02 -0.25851715910E+03  0.26523637763E+03  0.41800000000E+01 0.  1.
         -5    1    1    2    0  502 -0.33009308742E+02 -0.49042342303E+02 -0.65851062397E+02  0.88592328229E+02  0.41800000000E+01 0. -1.
        -11    1    1    2    0    0 -0.15153496408E+01 -0.12417455808E+02 -0.35453226023E+02  0.37595488143E+02  0.00000000000E+00 0.  1.
         11    1    1    2    0    0  0.30603677336E+02  0.24143243112E+01 -0.78616066184E+02  0.84397274190E+02  0.00000000000E+00 0. -1.
</event>
<event>
 8    1  0.5951278E-006  0.8328797E+02  0.7561462E-02  0.1319971E+00
         -1   -1    0    0    0  501 -0.00000000000E+00  0.00000000000E+00  0.17933997752E+02  0.17933997752E+02  0.00000000000E+00 0.  1.
          1   -1    0    0  501    0  0.00000000000E+00 -0.00000000000E+00 -0.79643005795E+03  0.79643005795E+03  0.00000000000E+00 0. -1.
         23    2    1    2    0    0  0.37531422908E+02 -0.34603767358E+02 -0.41248449666E+03  0.43404603349E+03  0.12508585366E+03 0.  0.
         23    2    1    2    0    0 -0.37531422908E+02  0.34603767358E+02 -0.36601156355E+03  0.38031802222E+03  0.89840441630E+02 0.  0.
          5    1    3    3  502    0 -0.73433916564E+01  0.20827084336E+01  0.66183738626E+01  0.10933359412E+02  0.41800000000E+01 0.  1.
         -5    1    3    3    0  502  0.44874814565E+02 -0.36686475792E+02 -0.41910287052E+03  0.42311267408E+03  0.41800000000E+01 0.  1.
        -11    1    4    4    0    0  0.25235407496E+02 -0.47473325135E+01 -0.14402607687E+03  0.14629721042E+03  0.00000000000E+00 0.  1.
         11    1    4    4    0    0 -0.62766830404E+02  0.39351099872E+02 -0.22198548668E+03  0.23402081180E+03  0.00000000000E+00 0. -1.
</event>
<event>
 8    1  0.5951278E-006  0.2035746E+03  0.7561462E-02  0.1146758E+00
         -1   -1    0    0    0  501 -0.00000000000E+00  0.00000000000E+00  0.58131323280E+02  0.58131323280E+02  0.00000000000E+00 0.  1.
          1   -1    0    0  501    0  0.00000000000E+00 -0.00000000000E+00 -0.81893417484E+03  0.81893417484E+03  0.00000000000E+00 0. -1.
         23    2    1    2    0    0  0.18056594063E+03 -0.43663078288E+02 -0.32450420377E+03  0.39428524434E+03  0.12508937732E+03 0.  0.
         23    2    1    2    0    0 -0.18056594063E+03  0.43663078288E+02 -0.43629864778E+03  0.48278025377E+03  0.90607615870E+02 0.  0.
          5    1    3    3  502    0  0.61431462287E+02 -0.53004223227E+02 -0.51366893050E+02  0.96121289735E+02  0.41800000000E+01 0. -1.
         -5    1    3    3    0  502  0.11913447834E+03  0.93411449391E+01 -0.27313731072E+03  0.29816395461E+03  0.41800000000E+01 0. -1.
        -11    1    4    4    0    0 -0.16829073522E+03  0.78512556605E+01 -0.36677332945E+03  0.40361626450E+03  0.00000000000E+00 0.  1.
         11    1    4    4    0    0 -0.12275205416E+02  0.35811822628E+02 -0.69525318338E+02  0.79163989275E+02  0.00000000000E+00 0. -1.
</event>
<event>
 8    1  0.5951278E-006  0.9475342E+02  0.7561462E-02  0.1291732E+00
         -2   -1    0    0    0  501 -0.00000000000E+00  0.00000000000E+00  0.47896121076E+02  0.47896121076E+02  0.00000000000E+00 0.  1.
          2   -1    0    0  501    0  0.00000000000E+00 -0.00000000000E+00 -0.28237019131E+03  0.28237019131E+03  0.00000000000E+00 0. -1.
         23    2    1    2    0    0 -0.53204436720E+01  0.41976482703E+02 -0.12107381629E+03  0.17915504604E+03  0.12508928534E+03 0.  0.
         23    2    1    2    0    0  0.53204436720E+01 -0.41976482703E+02 -0.11340025394E+03  0.15111126635E+03  0.90469138397E+02 0.  0.
          5    1    3    3  502    0  0.58949400285E+02  0.17037083745E+02 -0.43748978028E+02  0.75476748042E+02  0.41800000000E+01 0.  1.
         -5    1    3    3    0  502 -0.64269843957E+02  0.24939398958E+02 -0.77324838262E+02  0.10367829799E+03  0.41800000000E+01 0.  1.
        -11    1    4    4    0    0  0.23334443244E+02 -0.22723844723E+02  0.21011840961E+01  0.32638693833E+02  0.00000000000E+00 0.  1.
         11    1    4    4    0    0 -0.18013999572E+02 -0.19252637980E+02 -0.11550143803E+03  0.11847257251E+03  0.00000000000E+00 0. -1.
</event>
<event>
 7    1  0.5951278E-006  0.1225921E+03  0.7561462E-02  0.1238881E+00
          3   -1    0    0  501    0  0.00000000000E+00  0.00000000000E+00  0.36986783394E+03  0.36986783394E+03  0.00000000000E+00 0. -1.
         -3   -1    0    0    0  501 -0.00000000000E+00 -0.00000000000E+00 -0.10657736580E+03  0.10657736580E+03  0.00000000000E+00 0.  1.
         23    2    1    2    0    0 -0.10292011264E+03  0.19476480024E+02  0.25935883097E+03  0.29489340000E+03  0.93398240335E+02 0.  0.
          5    1    1    2  502    0  0.14019995365E+02 -0.31565113596E+02 -0.61342998444E+02  0.70522000287E+02  0.41800000000E+01 0. -1.
         -5    1    1    2    0  502  0.88900117276E+02  0.12088633572E+02  0.65274635615E+02  0.11102979946E+03  0.41800000000E+01 0.  1.
        -11    1    3    3    0    0 -0.60850770783E+02 -0.18813324980E+02  0.21043745538E+03  0.21986514078E+03  0.00000000000E+00 0. -1.
         11    1    3    3    0    0 -0.42069341858E+02  0.38289805004E+02  0.48921375590E+02  0.75028259217E+02  0.00000000000E+00 0.  1.
</event>
<event>
 8    1  0.5951278E-006  0.1718830E+03  0.7561462E-02  0.1175898E+00
         -1   -1    0    0    0  501 -0.00000000000E+00  0.00000000000E+00  0.13330665983E+03  0.13330665983E+03  0.00000000000E+00 0.  1.
          1   -1    0    0  501    0  0.00000000000E+00 -0.00000000000E+00 -0.30523806716E+03  0.30523806716E+03  0.00000000000E+00 0. -1.
         23    2    1    2    0    0 -0.49836362864E+02 -0.16151765940E+03 -0.84875632999E+02  0.22676213963E+03  0.12508228305E+03 0.  0.
         23    2    1    2    0    0  0.49836362864E+02  0.16151765940E+03 -0.87055774329E+02  0.21178258736E+03  0.93282040631E+02 0.  0.
          5    1    3    3  502    0 -0.18029249791E+01 -0.74564409659E+02  0.24814334096E+02  0.78716740931E+02  0.41800000000E+01 0. -1.
         -5    1    3    3    0  502 -0.48033437885E+02 -0.86953249741E+02 -0.10968996709E+03  0.14804539870E+03  0.41800000000E+01 0. -1.
        -11    1    4    4    0    0  0.35824684591E+02  0.13465906881E+03 -0.23411032745E+02  0.14129596347E+03  0.00000000000E+00 0.  1.
         11    1    4    4    0    0  0.14011678273E+02  0.26858590591E+02 -0.63644741583E+02  0.70486623892E+02  0.00000000000E+00 0. -1.
</event>
<event>
 8    1  0.5951278E-006  0.1819858E+03  0.7561462E-02  0.1165895E+00
          2   -1    0    0  501    0  0.00000000000E+00  0.00000000000E+00  0.10277998475E+04  0.10277998475E+04  0.00000000000E+00 0. -1.
         -2   -1    0    0    0  501 -0.00000000000E+00 -0.00000000000E+00 -0.42056810069E+02  0.42056810069E+02  0.00000000000E+00 0.  1.
         23    2    1    2    0    0  0.16855336588E+03 -0.54885495250E+02  0.52616747363E+03  0.56914227977E+03  0.12509224425E+03 0.  0.
         23    2    1    2    0    0 -0.16855336588E+03  0.54885495250E+02  0.45957556377E+03  0.50071437777E+03  0.89902917385E+02 0.  0.
          5    1    3    3  502    0  0.10339853972E+03 -0.54392225543E+02  0.46570960953E+03  0.48015902056E+03  0.41800000000E+01 0.  1.
         -5    1    3    3    0  502  0.65154826166E+02 -0.49326970720E+00  0.60457864103E+02  0.88983259210E+02  0.41800000000E+01 0.  1.
        -11    1    4    4    0    0 -0.14022962977E+03  0.28566513832E+02  0.25406228442E+03  0.29159567751E+03  0.00000000000E+00 0.  1.
         11    1    4    4    0    0 -0.28323736112E+02  0.26318981418E+02  0.20551327935E+03  0.20911870026E+03  0.00000000000E+00 0. -1.
</event>
<event>
 8    1  0.5951278E-006  0.1158255E+03  0.7561462E-02  0.1250147E+00
         -1   -1    0    0    0  501 -0.00000000000E+00  0.00000000000E+00  0.23441411782E+02  0.23441411782E+02  0.00000000000E+00 0.  1.
          1   -1    0    0  501    0  0.00000000000E+00 -0.00000000000E+00 -0.82849078905E+03  0.82849078905E+03  0.00000000000E+00 0. -1.
         23    2    1    2    0    0  0.60903895008E+02 -0.62776566528E+02 -0.34933461784E+03  0.38122359206E+03  0.12508625102E+03 0.  0.
         23    2    1    2    0    0 -0.60903895008E+02  0.62776566528E+02 -0.45571475943E+03  0.47070860877E+03  0.78996649768E+02 0.  0.
          5    1    3    3  502    0  0.30681371660E+02  0.14168374376E+02 -0.24824409172E+03  0.25056873483E+03  0.41800000000E+01 0. -1.
         -5    1    3    3    0  502  0.30222523348E+02 -0.76944940904E+02 -0.10109052611E+03  0.13065485723E+03  0.41800000000E+01 0. -1.
        -11    1    4    4    0    0 -0.50818423648E+02 -0.42901472348E+00 -0.25574096149E+03  0.26074151111E+03  0.00000000000E+00 0.  1.
         11    1    4    4    0    0 -0.10085471360E+02  0.63205581252E+02 -0.19997379795E+03  0.20996709766E+03  0.00000000000E+00 0. -1.
</event>
<event>
 8    1  0.5951278E-006  0.1834092E+03  0.7561462E-02  0.1164544E+00
         -1   -1    0    0    0  501 -0.00000000000E+00  0.00000000000E+00  0.60121725133E+02  0.60121725133E+02  0.00000000000E+00 0.  1.
          1   -1    0    0  501    0  0.00000000000E+00 -0.00000000000E+00 -0.69516645682E+03  0.69516645682E+03  0.00000000000E+00 0. -1.
         23    2    1    2    0    0 -0.10622395641E+03 -0.11155954910E+03 -0.18495403529E+03  0.27130943758E+03  0.12518687566E+03 0.  0.
         23    2    1    2    0    0  0.10622395641E+03  0.11155954910E+03 -0.45009069640E+03  0.48397874437E+03  0.89020941967E+02 0.  0.
          5    1    3    3  502    0  0.26635570198E+02 -0.11416919600E+02 -0.13092826561E+02  0.32073262389E+02  0.41800000000E+01 0. -1.
         -5    1    3    3    0  502 -0.13285952661E+03 -0.10014262950E+03 -0.17186120873E+03  0.23923617519E+03  0.41800000000E+01 0. -1.
        -11    1    4    4    0    0  0.10476442315E+03  0.62416591648E+02 -0.37406329597E+03  0.39343965823E+03  0.00000000000E+00 0. -1.
         11    1    4    4    0    0  0.14595332623E+01  0.49142957457E+02 -0.76027400425E+02  0.90539086147E+02  0.00000000000E+00 0.  1.
</event>
<event>
 7    1  0.5951278E-006  0.1071730E+03  0.7561462E-02  0.1265896E+00
          2   -1    0    0  501    0  0.00000000000E+00  0.00000000000E+00  0.20879166007E+03  0.20879166007E+03  0.00000000000E+00 0. -1.
         -2   -1    0    0    0  501 -0.00000000000E+00 -0.00000000000E+00 -0.13009422794E+03  0.13009422794E+03  0.00000000000E+00 0.  1.
         23    2    1    2    0    0 -0.93420541932E+01 -0.88979365676E+01  0.92592882383E+02  0.13000728163E+03  0.90343810847E+02 0.  0.
          5    1    1    2  502    0 -0.11399745320E+02  0.81352264185E+02  0.61108927511E+02  0.10246910999E+03  0.41800000000E+01 0. -1.
         -5    1    1    2    0  502  0.20741799514E+02 -0.72454327618E+02 -0.75004377761E+02  0.10640949638E+03  0.41800000000E+01 0.  1.
        -11    1    3    3    0    0  0.10085511638E+02  0.19646282541E+02 -0.81282605793E+01  0.23532160605E+02  0.00000000000E+00 0.  1.
         11    1    3    3    0    0 -0.19427565832E+02 -0.28544219109E+02  0.10072114296E+03  0.10647512103E+03  0.00000000000E+00 0. -1.
</event>
<event>
 8    1  0.5951278E-006  0.1984697E+03  0.7561462E-02  0.1151037E+00
          2   -1    0    0  501    0  0.00000000000E+00  0.00000000000E+00  0.18034216905E+03  0.18034216905E+03  0.00000000000E+00 0. -1.
         -2   -1    0    0    0  501 -0.00000000000E+00 -0.00000000000E+00 -0.22870775751E+03  0.22870775751E+03  0.00000000000E+00 0.  1.
         23    2    1    2    0    0  0.14999198028E+03  0.80793422346E+02 -0.45868665209E+02  0.21628039591E+03  0.12509238172E+03 0.  0.
         23    2    1    2    0    0 -0.14999198028E+03 -0.80793422346E+02 -0.24969232479E+01  0.19276953065E+03  0.90159226261E+02 0.  0.
          5    1    3    3  502    0  0.22150983937E+01  0.62176634246E+02 -0.13772314946E+02  0.63859138469E+02  0.41800000000E+01 0.  1.
         -5    1    3    3    0  502  0.14777688188E+03  0.18616788100E+02 -0.32096350263E+02  0.15242125744E+03  0.41800000000E+01 0.  1.
        -11    1    4    4    0    0 -0.94327470594E+02 -0.90308576130E+01 -0.27318293165E+02  0.98618037089E+02  0.00000000000E+00 0.  1.
         11    1    4    4    0    0 -0.55664509682E+02 -0.71762564733E+02  0.24821369917E+02  0.94151493561E+02  0.00000000000E+00 0. -1.
</event>
<event>
 8    1  0.5951278E-006  0.1198695E+03  0.7561462E-02  0.1243312E+00
          1   -1    0    0  501    0  0.00000000000E+00  0.00000000000E+00  0.36585100822E+02  0.36585100822E+02  0.00000000000E+00 0. -1.
         -1   -1    0    0    0  501 -0.00000000000E+00 -0.00000000000E+00 -0.47819647182E+03  0.47819647182E+03  0.00000000000E+00 0.  1.
         23    2    1    2    0    0 -0.48936259197E+02 -0.18519375384E+02 -0.34692678128E+03  0.37248204793E+03  0.12508780811E+03 0.  0.
         23    2    1    2    0    0  0.48936259197E+02  0.18519375384E+02 -0.94684589723E+02  0.14229952471E+03  0.92445975972E+02 0.  0.
          5    1    3    3  502    0 -0.90440450540E+02 -0.12253499546E+02 -0.20539793035E+03  0.22480081303E+03  0.41800000000E+01 0. -1.
         -5    1    3    3    0  502  0.41504191343E+02 -0.62658758380E+01 -0.14152885092E+03  0.14768123491E+03  0.41800000000E+01 0. -1.
        -11    1    4    4    0    0 -0.14591713889E+01 -0.33637026081E+02 -0.28413512392E+02  0.44055719165E+02  0.00000000000E+00 0.  1.
         11    1    4    4    0    0  0.50395430586E+02  0.52156401465E+02 -0.66271077331E+02  0.98243805547E+02  0.00000000000E+00 0. -1.
</event>
<event>
 7    1  0.5951278E-006  0.1281330E+03  0.7561462E-02  0.1230253E+00
         -1   -1    0    0    0  501 -0.00000000000E+00  0.00000000000E+00  0.56667472786E+02  0.56667472786E+02  0.00000000000E+00 0.  1.
          1   -1    0    0  501    0  0.00000000000E+00 -0.00000000000E+00 -0.31135913887E+03  0.31135913887E+03  0.00000000000E+00 0. -1.
         23    2    1    2    0    0  0.17217015508E+02 -0.93962004924E+01 -0.11060207232E+03  0.14152590175E+03  0.86093253255E+02 0.  0.
          5    1    1    2  502    0 -0.48437228139E+02  0.81601005792E+02 -0.90715309876E+02  0.13134545695E+03  0.41800000000E+01 0. -1.
         -5    1    1    2    0  502  0.31220212632E+02 -0.72204805300E+02 -0.53374283881E+02  0.95155252955E+02  0.41800000000E+01 0.  1.
        -11    1    3    3    0    0 -0.31114870369E+02 -0.13665262300E+02 -0.71665019026E+02  0.79314245277E+02  0.00000000000E+00 0. -1.
         11    1    3    3    0    0  0.48331885877E+02  0.42690618077E+01 -0.38937053298E+02  0.62211656470E+02  0.00000000000E+00 0.  1.
</event>
<event>
 8    1  0.5951278E-006  0.9204008E+02  0.7561462E-02  0.1297985E+00
         -3   -1    0    0    0  501 -0.00000000000E+00  0.00000000000E+00  0.34650156749E+02  0.34650156749E+02  0.00000000000E+00 0.  1.
          3   -1    0    0  501    0  0.00000000000E+00 -0.00000000000E+00 -0.52028270718E+03  0.52028270718E+03  0.00000000000E+00 0. -1.
         23    2    1    2    0    0  0.35000474188E+02 -0.24741476200E+02 -0.12764154364E+03  0.18378896008E+03  0.12509534103E+03 0.  0.
         23    2    1    2    0    0 -0.35000474188E+02  0.24741476200E+02 -0.35799100679E+03  0.37114390385E+03  0.88051476877E+02 0.  0.
          5    1    3    3  502    0  0.64331812406E+02 -0.24379247145E+02 -0.19452175991E+02  0.71615566252E+02  0.41800000000E+01 0. -1.
         -5    1    3    3    0  502 -0.29331338218E+02 -0.36222905556E+00 -0.10818936765E+03  0.11217339383E+03  0.41800000000E+01 0. -1.
        -11    1    4    4    0    0 -0.58390379210E+02  0.15841390546E+02 -0.31987583516E+03  0.32554713323E+03  0.00000000000E+00 0. -1.
         11    1    4    4    0    0  0.23389905022E+02  0.89000856544E+01 -0.38115171635E+02  0.45596770613E+02  0.00000000000E+00 0.  1.
</event>
<event>
 8    1  0.5951278E-006  0.9355915E+02  0.7561462E-02  0.1294455E+00
         -1   -1    0    0    0  501 -0.00000000000E+00  0.00000000000E+00  0.44362248620E+03  0.44362248620E+03  0.00000000000E+00 0.  1.
          1   -1    0    0  501    0  0.00000000000E+00 -0.00000000000E+00 -0.39717437747E+02  0.39717437747E+02  0.00000000000E+00 0. -1.
         23    2    1    2    0    0 -0.69316561334E+02 -0.10030442372E+02  0.28616902896E+03  0.31971268745E+03  0.12416961759E+03 0.  0.
         23    2    1    2    0    0  0.69316561334E+02  0.10030442372E+02  0.11773601949E+03  0.16362723649E+03  0.89480203328E+02 0.  0.
          5    1    3    3  502    0 -0.96108850052E+01 -0.33845483805E+02  0.23442660132E+03  0.23708899107E+03  0.41800000000E+01 0.  1.
         -5    1    3    3    0  502 -0.59705676329E+02  0.23815041433E+02  0.51742427646E+02  0.82623696377E+02  0.41800000000E+01 0.  1.
        -11    1    4    4    0    0  0.79428707387E+01 -0.18094001764E+02  0.87413728587E+02  0.89619428925E+02  0.00000000000E+00 0.  1.
         11    1    4    4    0    0  0.61373690595E+02  0.28124444136E+02  0.30322290901E+02  0.74007807566E+02  0.00000000000E+00 0. -1.
</event>
<event>
 8    1  0.5951278E-006  0.9183805E+02  0.7561462E-02  0.1298461E+00
         -2   -1    0    0    0  501 -0.00000000000E+00  0.00000000000E+00  0.16740108390E+02  0.16740108390E+02  0.00000000000E+00 0.  1.
          2   -1    0    0  501    0  0.00000000000E+00 -0.00000000000E+00 -0.82143021841E+03  0.82143021841E+03  0.00000000000E+00 0. -1.
         23    2    1    2    0    0 -0.40884296656E+02  0.10596531130E+02 -0.41544584816E+03  0.43591975410E+03  0.12508783742E+03 0.  0.
         23    2    1    2    0    0  0.40884296656E+02 -0.10596531130E+02 -0.38924426185E+03  0.40225057270E+03  0.92252998144E+02 0.  0.
          5    1    3    3  502    0  0.17290258290E+02  0.18527138949E+02 -0.12260562754E+02  0.28460528955E+02  0.41800000000E+01 0.  1.
         -5    1    3    3    0  502 -0.58174554946E+02 -0.79306078181E+01 -0.40318528541E+03  0.40745922514E+03  0.41800000000E+01 0.  1.
        -11    1    4    4    0    0  0.83753463880E+01  0.38966981147E+02 -0.11616215422E+03  0.12280968252E+03  0.00000000000E+00 0.  1.
         11    1    4    4    0    0  0.32508950268E+02 -0.49563512278E+02 -0.27308210763E+03  0.27944089018E+03  0.00000000000E+00 0. -1.
</event>
<event>
 8    1  0.5951278E-006  0.1033983E+03  0.7561462E-02  0.1273308E+00
          1   -1    0    0  501    0  0.00000000000E+00  0.00000000000E+00  0.76940457700E+02  0.76940457700E+02  0.00000000000E+00 0. -1.
         -1   -1    0    0    0  501 -0.00000000000E+00 -0.00000000000E+00 -0.18244015331E+03  0.18244015331E+03  0.00000000000E+00 0.  1.
         23    2    1    2    0    0 -0.19616908126E+02  0.43791713906E+02 -0.61820900762E+02  0.14755487919E+03  0.12509229117E+03 0.  0.
         23    2    1    2    0    0  0.19616908126E+02 -0.43791713906E+02 -0.43678794843E+02  0.11182573181E+03  0.91074803790E+02 0.  0.
          5    1    3    3  502    0  0.37202944448E+02 -0.20686492733E+02 -0.21126553592E+01  0.42824359538E+02  0.41800000000E+01 0.  1.
         -5    1    3    3    0  502 -0.56819852574E+02  0.64478206639E+02 -0.59708245403E+02  0.10473051965E+03  0.41800000000E+01 0.  1.
        -11    1    4    4    0    0 -0.88500455590E+01  0.12256841218E+02  0.18170737346E+02  0.23637452458E+02  0.00000000000E+00 0. -1.
         11    1    4    4    0    0  0.28466953685E+02 -0.56048555124E+02 -0.61849532189E+02  0.88188279355E+02  0.00000000000E+00 0.  1.
</event>
<event>
 8    1  0.5951278E-006  0.1588301E+03  0.7561462E-02  0.1190024E+00
          2   -1    0    0  501    0  0.00000000000E+00  0.00000000000E+00  0.85483603936E+03  0.85483603936E+03  0.00000000000E+00 0. -1.
         -2   -1    0    0    0  501 -0.00000000000E+00 -0.00000000000E+00 -0.33927973088E+02  0.33927973088E+02  0.00000000000E+00 0.  1.
         23    2    1    2    0    0  0.53040024757E+02 -0.12000334213E+03  0.46349145908E+03  0.49767907474E+03  0.12508430135E+03 0.  0.
         23    2    1    2    0    0 -0.53040024757E+02  0.12000334213E+03  0.35741660719E+03  0.39108493771E+03  0.89368624564E+02 0.  0.
          5    1    3    3  502    0  0.33910771592E+02 -0.13316171264E+03  0.27227987898E+03  0.30501768316E+03  0.41800000000E+01 0. -1.
         -5    1    3    3    0  502  0.19129253165E+02  0.13158370505E+02  0.19121158010E+03  0.19266139158E+03  0.41800000000E+01 0. -1.
        -11    1    4    4    0    0 -0.60991214184E+02  0.33228629186E+02  0.12717019936E+03  0.14490110286E+03  0.00000000000E+00 0.  1.
         11    1    4    4    0    0  0.79511894268E+01  0.86774712949E+02  0.23024640783E+03  0.24618383485E+03  0.00000000000E+00 0. -1.
</event>
<event>
 8    1  0.5951278E-006  0.3312235E+03  0.7561462E-02  0.1070597E+00
          2   -1    0    0  501    0  0.00000000000E+00  0.00000000000E+00  0.11053793468E+04  0.11053793468E+04  0.00000000000E+00 0.  1.
         -2   -1    0    0    0  501 -0.00000000000E+00 -0.00000000000E+00 -0.13846756597E+03  0.13846756597E+03  0.00000000000E+00 0. -1.
         23    2    1    2    0    0  0.23053103351E+03  0.22124558982E+03  0.17318513256E+03  0.38436502545E+03  0.12509681940E+03 0.  0.
         23    2    1    2    0    0 -0.23053103351E+03 -0.22124558982E+03  0.79372664823E+03  0.85948188728E+03  0.81320071460E+02 0.  0.
          5    1    3    3  502    0  0.48333983581E+02  0.11972314623E+03  0.99725727401E+02  0.16319466541E+03  0.41800000000E+01 0.  1.
         -5    1    3    3    0  502  0.18219704993E+03  0.10152244359E+03  0.73459405161E+02  0.22117036004E+03  0.41800000000E+01 0.  1.
        -11    1    4    4    0    0 -0.74963170866E+02 -0.37257905392E+02  0.14462266520E+03  0.16710279408E+03  0.00000000000E+00 0. -1.
         11    1    4    4    0    0 -0.15556786264E+03 -0.18398768443E+03  0.64910398303E+03  0.69237909320E+03  0.00000000000E+00 0.  1.
</event>
<event>
 8    1  0.5951278E-006  0.9406411E+02  0.7561462E-02  0.1293298E+00
         -1   -1    0    0    0  501 -0.00000000000E+00  0.00000000000E+00  0.11543263305E+03  0.11543263305E+03  0.00000000000E+00 0.  1.
          1   -1    0    0  501    0  0.00000000000E+00 -0.00000000000E+00 -0.17823652177E+03  0.17823652177E+03  0.00000000000E+00 0. -1.
         23    2    1    2    0    0  0.68136496093E+02 -0.24418301503E+02  0.73556803023E+01  0.14470389995E+03  0.12508507937E+03 0.  0.
         23    2    1    2    0    0 -0.68136496093E+02  0.24418301503E+02 -0.70159569026E+02  0.14896525487E+03  0.10967883335E+03 0.  0.
          5    1    3    3  502    0 -0.94977859191E+01 -0.11799798695E+02  0.51892993045E+02  0.54219906988E+02  0.41800000000E+01 0.  1.
         -5    1    3    3    0  502  0.77634282012E+02 -0.12618502808E+02 -0.44537312743E+02  0.90483992966E+02  0.41800000000E+01 0.  1.
        -11    1    4    4    0    0 -0.62241062713E+02  0.42013608173E+02  0.13308822962E+01  0.75105688247E+02  0.00000000000E+00 0.  1.
         11    1    4    4    0    0 -0.58954333795E+01 -0.17595306670E+02 -0.71490451322E+02  0.73859566624E+02  0.00000000000E+00 0. -1.
</event>
<event>
 8    1  0.5951278E-006  0.1897924E+03  0.7561462E-02  0.1158649E+00
         -2   -1    0    0    0  501 -0.00000000000E+00  0.00000000000E+00  0.41694099264E+02  0.41694099264E+02  0.00000000000E+00 0.  1.
          2   -1    0    0  501    0  0.00000000000E+00 -0.00000000000E+00 -0.10773812071E+04  0.10773812071E+04  0.00000000000E+00 0. -1.
         23    2    1    2    0    0  0.12537276639E+03  0.13143296516E+03 -0.56513504878E+03  0.60664342801E+03  0.12508265469E+03 0.  0.
         23    2    1    2    0    0 -0.12537276639E+03 -0.13143296516E+03 -0.47055205902E+03  0.51243187832E+03  0.90411474856E+02 0.  0.
          5    1    3    3  502    0  0.12697477341E+03  0.13307004975E+03 -0.38762858836E+03  0.42907298463E+03  0.41800000000E+01 0. -1.
         -5    1    3    3    0  502 -0.16020070209E+01 -0.16370845871E+01 -0.17750646041E+03  0.17757044337E+03  0.41800000000E+01 0. -1.
        -11    1    4    4    0    0 -0.11213183824E+03 -0.80035331983E+02 -0.24858251335E+03  0.28420497789E+03  0.00000000000E+00 0.  1.
         11    1    4    4    0    0 -0.13240928144E+02 -0.51397633181E+02 -0.22196954567E+03  0.22822690043E+03  0.00000000000E+00 0. -1.
</event>
<event>
 8    1  0.5951278E-006  0.9944298E+02  0.7561462E-02  0.1281472E+00
          2   -1    0    0  501    0  0.00000000000E+00  0.00000000000E+00  0.27244644018E+02  0.27244644018E+02  0.00000000000E+00 0.  1.
         -2   -1    0    0    0  501 -0.00000000000E+00 -0.00000000000E+00 -0.46680815563E+03  0.46680815563E+03  0.00000000000E+00 0. -1.
         23    2    1    2    0    0  0.14700948097E+02 -0.17644782329E+01 -0.31247215725E+03  0.33690646875E+03  0.12509151999E+03 0.  0.
         23    2    1    2    0    0 -0.14700948097E+02  0.17644782329E+01 -0.12709135436E+03  0.15714633090E+03  0.91233358491E+02 0.  0.
          5    1    3    3  502    0  0.54520772051E+02  0.29286685676E+02 -0.24378690914E+03  0.25155467399E+03  0.41800000000E+01 0.  1.
         -5    1    3    3    0  502 -0.39819823954E+02 -0.31051163909E+02 -0.68685248113E+02  0.85351794756E+02  0.41800000000E+01 0.  1.
        -11    1    4    4    0    0 -0.43559051558E+02  0.24021848942E+02 -0.43988685722E+02  0.66403649529E+02  0.00000000000E+00 0.  1.
         11    1    4    4    0    0  0.28858103461E+02 -0.22257370709E+02 -0.83102668642E+02  0.90742681367E+02  0.00000000000E+00 0. -1.
</event>
<event>
 8    1  0.5951278E-006  0.1136833E+03  0.7561462E-02  0.1253897E+00
         -2   -1    0    0    0  501 -0.00000000000E+00  0.00000000000E+00  0.18395450467E+03  0.18395450467E+03  0.00000000000E+00 0.  1.
          2   -1    0    0  501    0  0.00000000000E+00 -0.00000000000E+00 -0.77461471210E+02  0.77461471210E+02  0.00000000000E+00 0. -1.
         23    2    1    2    0    0 -0.37227116381E+02 -0.27115565000E+02  0.80462889030E+02  0.15569048456E+03  0.12507653022E+03 0.  0.
         23    2    1    2    0    0  0.37227116381E+02  0.27115565000E+02  0.26030144426E+02  0.10572549131E+03  0.91537964995E+02 0.  0.
          5    1    3    3  502    0  0.19227982550E+02  0.35706060766E+02  0.52816936373E+02  0.66721355324E+02  0.41800000000E+01 0.  1.
         -5    1    3    3    0  502 -0.56455098931E+02 -0.62821625766E+02  0.27645952657E+02  0.88969129239E+02  0.41800000000E+01 0.  1.
        -11    1    4    4    0    0  0.56195875936E+02 -0.12981074181E+02  0.19541676861E+02  0.60896320855E+02  0.00000000000E+00 0.  1.
         11    1    4    4    0    0 -0.18968759555E+02  0.40096639181E+02  0.64884675650E+01  0.44829170459E+02  0.00000000000E+00 0. -1.
</event>
<event>
 8    1  0.5951278E-006  0.1400990E+03  0.7561462E-02  0.1213196E+00
         -2   -1    0    0    0  501 -0.00000000000E+00  0.00000000000E+00  0.55796765743E+02  0.55796765743E+02  0.00000000000E+00 0.  1.
          2   -1    0    0  501    0  0.00000000000E+00 -0.00000000000E+00 -0.44451142356E+03  0.44451142356E+03  0.00000000000E+00 0. -1.
         23    2    1    2    0    0 -0.18457217475E+02  0.11122362781E+03 -0.20624930857E+03  0.26626454292E+03  0.12508663106E+03 0.  0.
         23    2    1    2    0    0  0.18457217475E+02 -0.11122362781E+03 -0.18246534925E+03  0.23404364639E+03  0.93656075496E+02 0.  0.
          5    1    3    3  502    0  0.23475371520E+02  0.11334003361E+03 -0.18682683496E+03  0.21981536559E+03  0.41800000000E+01 0. -1.
         -5    1    3    3    0  502 -0.41932588995E+02 -0.21164058028E+01 -0.19422473608E+02  0.46449177328E+02  0.41800000000E+01 0. -1.
        -11    1    4    4    0    0  0.25540793688E+02 -0.25239020243E+02 -0.43973319125E+01  0.36175638390E+02  0.00000000000E+00 0.  1.
         11    1    4    4    0    0 -0.70835762126E+01 -0.85984607569E+02 -0.17806801733E+03  0.19786800799E+03  0.00000000000E+00 0. -1.
</event>
<event>
 7    1  0.5951278E-006  0.1291266E+03  0.7561462E-02  0.1228757E+00
          2   -1    0    0  501    0  0.00000000000E+00  0.00000000000E+00  0.29528137415E+03  0.29528137415E+03  0.00000000000E+00 0. -1.
         -2   -1    0    0    0  501 -0.00000000000E+00 -0.00000000000E+00 -0.90458352316E+02  0.90458352316E+02  0.00000000000E+00 0.  1.
         23    2    1    2    0    0 -0.70404549766E+02  0.34335235297E+01  0.18910945729E+03  0.22120680139E+03  0.90561981175E+02 0.  0.
          5    1    1    2  502    0  0.18182426913E+02 -0.62674371773E+02  0.45890628140E+02  0.79888044642E+02  0.41800000000E+01 0. -1.
         -5    1    1    2    0  502  0.52222122853E+02  0.59240848244E+02 -0.30177063595E+02  0.84644880431E+02  0.41800000000E+01 0.  1.
        -11    1    3    3    0    0  0.11765031811E+02  0.26023897224E+02  0.35710992607E+02  0.45726733900E+02  0.00000000000E+00 0.  1.
         11    1    3    3    0    0 -0.82169581577E+02 -0.22590373694E+02  0.15339846468E+03  0.17548006749E+03  0.00000000000E+00 0. -1.
</event>
<event>
 8    1  0.5951278E-006  0.1143120E+03  0.7561462E-02  0.1252787E+00
         -2   -1    0    0    0  501 -0.00000000000E+00  0.00000000000E+00  0.19631495033E+03  0.19631495033E+03  0.00000000000E+00 0. -1.
          2   -1    0    0  501    0  0.00000000000E+00 -0.00000000000E+00 -0.83090787099E+02  0.83090787099E+02  0.00000000000E+00 0.  1.
         23    2    1    2    0    0 -0.45813058469E+02 -0.51597030807E+02  0.58010148841E+02  0.15419023253E+03  0.12509340720E+03 0.  0.
         23    2    1    2    0    0  0.45813058469E+02  0.51597030807E+02  0.55214014393E+02  0.12521550490E+03  0.88708767146E+02 0.  0.
          5    1    3    3  502    0  0.17585545655E+01 -0.80152737748E+02  0.57144825317E+02  0.98542160232E+02  0.41800000000E+01 0. -1.
         -5    1    3    3    0  502 -0.47571613035E+02  0.28555706941E+02  0.86532352457E+00  0.55648072298E+02  0.41800000000E+01 0. -1.
        -11    1    4    4    0    0 -0.15494384026E+02  0.13267034149E+02  0.48483070805E+02  0.52599413363E+02  0.00000000000E+00 0. -1.
         11    1    4    4    0    0  0.61307442495E+02  0.38329996658E+02  0.67309435881E+01  0.72616091541E+02  0.00000000000E+00 0.  1.
</event>
<event>
 8    1  0.5951278E-006  0.1061502E+03  0.7561462E-02  0.1267870E+00
          1   -1    0    0  501    0  0.00000000000E+00  0.00000000000E+00  0.38187921142E+03  0.38187921142E+03  0.00000000000E+00 0. -1.
         -1   -1    0    0    0  501 -0.00000000000E+00 -0.00000000000E+00 -0.78339978973E+02  0.78339978973E+02  0.00000000000E+00 0.  1.
         23    2    1    2    0    0  0.23975953353E+02 -0.81182607878E+02  0.24278339575E+02  0.15297897180E+03  0.12509063066E+03 0.  0.
         23    2    1    2    0    0 -0.23975953353E+02  0.81182607878E+02  0.27926089288E+03  0.30724021860E+03  0.96148028961E+02 0.  0.
          5    1    3    3  502    0 -0.44970828645E+01  0.98668644066E+01  0.52210562403E+02  0.53488260338E+02  0.41800000000E+01 0. -1.
         -5    1    3    3    0  502  0.28473036217E+02 -0.91049472285E+02 -0.27932222829E+02  0.99490711460E+02  0.41800000000E+01 0. -1.
        -11    1    4    4    0    0 -0.45225213696E+02  0.60517994490E+02  0.26257108810E+03  0.27322394462E+03  0.00000000000E+00 0. -1.
         11    1    4    4    0    0  0.21249260343E+02  0.20664613388E+02  0.16689804781E+02  0.34016273976E+02  0.00000000000E+00 0.  1.
</event>
<event>
 8    1  0.5951278E-006  0.1685106E+03  0.7561462E-02  0.1179410E+00
          1   -1    0    0  501    0  0.00000000000E+00  0.00000000000E+00  0.26962014119E+03  0.26962014119E+03  0.00000000000E+00 0. -1.
         -1   -1    0    0    0  501 -0.00000000000E+00 -0.00000000000E+00 -0.13123445495E+03  0.13123445495E+03  0.00000000000E+00 0.  1.
         23    2    1    2    0    0  0.13105753438E+03 -0.70721634162E+02  0.36428087733E+02  0.19787165919E+03  0.12509420882E+03 0.  0.
         23    2    1    2    0    0 -0.13105753438E+03  0.70721634162E+02  0.10195759851E+03  0.20298293695E+03  0.92892916541E+02 0.  0.
          5    1    3    3  502    0  0.79611406640E+02 -0.99512454491E+02 -0.17341932142E+01  0.12751934948E+03  0.41800000000E+01 0. -1.
         -5    1    3    3    0  502  0.51446127742E+02  0.28790820329E+02  0.38162280947E+02  0.70352309713E+02  0.41800000000E+01 0. -1.
        -11    1    4    4    0    0 -0.99214911735E+02  0.63386821864E+02  0.26394546501E+02  0.12065720029E+03  0.00000000000E+00 0.  1.
         11    1    4    4    0    0 -0.31842622647E+02  0.73348122978E+01  0.75563052008E+02  0.82325736664E+02  0.00000000000E+00 0. -1.
</event>
<event>
 7    1  0.5951278E-006  0.1462883E+03  0.7561462E-02  0.1205109E+00
          2   -1    0    0  501    0  0.00000000000E+00  0.00000000000E+00  0.30856277706E+02  0.30856277706E+02  0.00000000000E+00 0. -1.
         -2   -1    0    0    0  501 -0.00000000000E+00 -0.00000000000E+00 -0.13606814252E+04  0.13606814252E+04  0.00000000000E+00 0.  1.
         23    2    1    2    0    0  0.11518536660E+03  0.47847393116E+02 -0.23944967926E+03  0.28451390767E+03  0.89749501676E+02 0.  0.
          5    1    1    2  502    0 -0.11388635456E+02 -0.35653361981E+02 -0.56686169163E+02  0.68056281212E+02  0.41800000000E+01 0. -1.
         -5    1    1    2    0  502 -0.10379673114E+03 -0.12194031135E+02 -0.10336892991E+04  0.10389675140E+04  0.41800000000E+01 0.  1.
        -11    1    3    3    0    0  0.11003728690E+02  0.44761736048E+02 -0.10272305651E+03  0.11259094723E+03  0.00000000000E+00 0.  1.
         11    1    3    3    0    0  0.10418163791E+03  0.30856570672E+01 -0.13672662276E+03  0.17192296044E+03  0.00000000000E+00 0. -1.
</event>
<event>
 8    1  0.5951278E-006  0.1071681E+03  0.7561462E-02  0.1265906E+00
         -2   -1    0    0    0  501 -0.00000000000E+00  0.00000000000E+00  0.20848025486E+03  0.20848025486E+03  0.00000000000E+00 0.  1.
          2   -1    0    0  501    0  0.00000000000E+00 -0.00000000000E+00 -0.67926866299E+02  0.67926866299E+02  0.00000000000E+00 0. -1.
         23    2    1    2    0    0  0.17864541891E+02 -0.27923546748E+02  0.12207744824E+03  0.17789376764E+03  0.12507766738E+03 0.  0.
         23    2    1    2    0    0 -0.17864541891E+02  0.27923546748E+02  0.18475940317E+02  0.98513353513E+02  0.90910143163E+02 0.  0.
          5    1    3    3  502    0  0.24431085017E+02  0.47209132659E+02  0.58606045270E+02  0.79232070929E+02  0.41800000000E+01 0. -1.
         -5    1    3    3    0  502 -0.65665431261E+01 -0.75132679406E+02  0.63471402970E+02  0.98661696713E+02  0.41800000000E+01 0. -1.
        -11    1    4    4    0    0 -0.65526129307E+01  0.55390092246E+02  0.33667048831E+02  0.65149591190E+02  0.00000000000E+00 0.  1.
         11    1    4    4    0    0 -0.11311928961E+02 -0.27466545499E+02 -0.15191108515E+02  0.33363762323E+02  0.00000000000E+00 0. -1.
</event>
<event>
 8    1  0.5951278E-006  0.1196239E+03  0.7561462E-02  0.1243719E+00
         -1   -1    0    0    0  501 -0.00000000000E+00  0.00000000000E+00  0.12128368422E+03  0.12128368422E+03  0.00000000000E+00 0.  1.
          1   -1    0    0  501    0  0.00000000000E+00 -0.00000000000E+00 -0.16360790639E+03  0.16360790639E+03  0.00000000000E+00 0. -1.
         23    2    1    2    0    0 -0.61833399618E+02 -0.19066384086E+02  0.38669660050E+02  0.14604530670E+03  0.12508793983E+03 0.  0.
         23    2    1    2    0    0  0.61833399618E+02  0.19066384086E+02 -0.80993882225E+02  0.13884628391E+03  0.92365498366E+02 0.  0.
          5    1    3    3  502    0 -0.86569241154E+02  0.21102916317E+02  0.78634861129E+01  0.89548162488E+02  0.41800000000E+01 0. -1.
         -5    1    3    3    0  502  0.24735841536E+02 -0.40169300403E+02  0.30806173938E+02  0.56497144211E+02  0.41800000000E+01 0. -1.
        -11    1    4    4    0    0  0.44245356157E+02 -0.28054498825E+02 -0.12485140174E+02  0.53857080973E+02  0.00000000000E+00 0.  1.
         11    1    4    4    0    0  0.17588043461E+02  0.47120882911E+02 -0.68508742051E+02  0.84989202941E+02  0.00000000000E+00 0. -1.
</event>
<event>
 8    1  0.7603850E-006  0.1693182E+03  0.7561462E-02  0.1178561E+00
         -1   -1    0    0    0  501 -0.00000000000E+00  0.00000000000E+00  0.99064214177E+02  0.99064214177E+02  0.00000000000E+00 0.  1.
          1   -1    0    0  501    0  0.00000000000E+00 -0.00000000000E+00 -0.43357661990E+03  0.43357661990E+03  0.00000000000E+00 0. -1.
         23    2    1    2    0    0  0.15950109972E+03 -0.18643120659E+02 -0.79609728836E+02  0.21857096489E+03  0.12508953197E+03 0.  0.
         23    2    1    2    0    0 -0.15950109972E+03  0.18643120659E+02 -0.25490267689E+03  0.31406986918E+03  0.88748753709E+02 0.  0.
          5    1    3    3  502    0  0.11882121841E+03 -0.29686055770E+02 -0.11139858842E+03  0.16561057259E+03  0.41800000000E+01 0. -1.
         -5    1    3    3    0  502  0.40679881308E+02  0.11042935111E+02  0.31788859585E+02  0.52960392302E+02  0.41800000000E+01 0. -1.
        -11    1    4    4    0    0 -0.10220876044E+03  0.43752625318E+02 -0.11074120379E+03  0.15692207349E+03  0.00000000000E+00 0.  1.
         11    1    4    4    0    0 -0.57292339279E+02 -0.25109504659E+02 -0.14416147310E+03  0.15714779569E+03  0.00000000000E+00 0. -1.
</event>
<event>
 8    1  0.5951278E-006  0.1399353E+03  0.7561462E-02  0.1213416E+00
         -2   -1    0    0    0  501 -0.00000000000E+00  0.00000000000E+00  0.26596392977E+02  0.26596392977E+02  0.00000000000E+00 0.  1.
          2   -1    0    0  501    0  0.00000000000E+00 -0.00000000000E+00 -0.75669939816E+03  0.75669939816E+03  0.00000000000E+00 0. -1.
         23    2    1    2    0    0  0.43611787200E+02  0.79813918937E+02 -0.34340556484E+03  0.37662224053E+03  0.12507869707E+03 0.  0.
         23    2    1    2    0    0 -0.43611787200E+02 -0.79813918937E+02 -0.38669744035E+03  0.40667355061E+03  0.87041465716E+02 0.  0.
          5    1    3    3  502    0 -0.37660832450E+02 -0.28255234624E+01 -0.70362651808E+02  0.79966849714E+02  0.41800000000E+01 0. -1.
         -5    1    3    3    0  502  0.81272619650E+02  0.82639442400E+02 -0.27304291303E+03  0.29665539081E+03  0.41800000000E+01 0. -1.
        -11    1    4    4    0    0 -0.61729808994E+02 -0.22371391272E+02 -0.20176554432E+03  0.21218007291E+03  0.00000000000E+00 0.  1.
         11    1    4    4    0    0  0.18118021794E+02 -0.57442527666E+02 -0.18493189603E+03  0.19449347770E+03  0.00000000000E+00 0. -1.
</event>
<event>
 8    1  0.5951278E-006  0.1087349E+03  0.7561462E-02  0.1262931E+00
         -1   -1    0    0    0  501 -0.00000000000E+00  0.00000000000E+00  0.24756004933E+02  0.24756004933E+02  0.00000000000E+00 0.  1.
          1   -1    0    0  501    0  0.00000000000E+00 -0.00000000000E+00 -0.60160746363E+03  0.60160746363E+03  0.00000000000E+00 0. -1.
         23    2    1    2    0    0  0.47957551251E+02 -0.22120781473E+02 -0.31895397846E+03  0.34665307560E+03  0.12508980275E+03 0.  0.
         23    2    1    2    0    0 -0.47957551251E+02  0.22120781473E+02 -0.25789748024E+03  0.27971039296E+03  0.94538552577E+02 0.  0.
          5    1    3    3  502    0 -0.10826109003E+02  0.38418314815E+02 -0.46619309924E+02  0.61514258568E+02  0.41800000000E+01 0.  1.
         -5    1    3    3    0  502  0.58783660254E+02 -0.60539096288E+02 -0.27233466853E+03  0.28513881703E+03  0.41800000000E+01 0.  1.
        -11    1    4    4    0    0  0.69787297811E+01  0.35605823384E+02 -0.17893687521E+03  0.18257842873E+03  0.00000000000E+00 0. -1.
         11    1    4    4    0    0 -0.54936281032E+02 -0.13485041911E+02 -0.78960605026E+02  0.97131964230E+02  0.00000000000E+00 0.  1.
</event>
<event>
 8    1  0.5951278E-006  0.9651981E+02  0.7561462E-02  0.1287789E+00
         -2   -1    0    0    0  501 -0.00000000000E+00  0.00000000000E+00  0.44466525504E+02  0.44466525504E+02  0.00000000000E+00 0.  1.
          2   -1    0    0  501    0  0.00000000000E+00 -0.00000000000E+00 -0.28986911812E+03  0.28986911812E+03  0.00000000000E+00 0. -1.
         23    2    1    2    0    0 -0.19481379517E+02  0.40500460100E+02 -0.13784123637E+03  0.19147543336E+03  0.12507127457E+03 0.  0.
         23    2    1    2    0    0  0.19481379517E+02 -0.40500460100E+02 -0.10756135625E+03  0.14286021026E+03  0.82581976859E+02 0.  0.
          5    1    3    3  502    0 -0.54690437879E+02  0.39823249490E+02 -0.14041523946E+03  0.15591936079E+03  0.41800000000E+01 0. -1.
         -5    1    3    3    0  502  0.35209058362E+02  0.67721060992E+00  0.25740030947E+01  0.35556072574E+02  0.41800000000E+01 0. -1.
        -11    1    4    4    0    0  0.46528597039E+02 -0.42034438149E+02 -0.53643869332E+02  0.82519507086E+02  0.00000000000E+00 0. -1.
         11    1    4    4    0    0 -0.27047217522E+02  0.15339780487E+01 -0.53917486918E+02  0.60340703176E+02  0.00000000000E+00 0.  1.
</event>
<event>
 8    1  0.5951278E-006  0.9122286E+02  0.7561462E-02  0.1299917E+00
          4   -1    0    0  501    0  0.00000000000E+00  0.00000000000E+00  0.73648054510E+02  0.73648054510E+02  0.00000000000E+00 0. -1.
         -4   -1    0    0    0  501 -0.00000000000E+00 -0.00000000000E+00 -0.17342599157E+03  0.17342599157E+03  0.00000000000E+00 0.  1.
         23    2    1    2    0    0 -0.26590440355E+01 -0.25082554038E+02 -0.82156995434E+02  0.15176794813E+03  0.12509010012E+03 0.  0.
         23    2    1    2    0    0  0.26590440355E+01  0.25082554038E+02 -0.17620941624E+02  0.95306097948E+02  0.90202825289E+02 0.  0.
          5    1    3    3  502    0 -0.59982424711E+02 -0.34542005681E+02 -0.43471513114E+02  0.81843058857E+02  0.41800000000E+01 0. -1.
         -5    1    3    3    0  502  0.57323380676E+02  0.94594516434E+01 -0.38685482320E+02  0.69924889273E+02  0.41800000000E+01 0. -1.
        -11    1    4    4    0    0 -0.23038016357E+02  0.10646464660E+02 -0.47173868392E+02  0.53567445958E+02  0.00000000000E+00 0.  1.
         11    1    4    4    0    0  0.25697060392E+02  0.14436089378E+02  0.29552926768E+02  0.41738651990E+02  0.00000000000E+00 0. -1.
</event>
<event>
 8    1  0.5951278E-006  0.1512120E+03  0.7561462E-02  0.1198992E+00
         -2   -1    0    0    0  501 -0.00000000000E+00  0.00000000000E+00  0.52481165005E+02  0.52481165005E+02  0.00000000000E+00 0.  1.
          2   -1    0    0  501    0  0.00000000000E+00 -0.00000000000E+00 -0.53922573616E+03  0.53922573616E+03  0.00000000000E+00 0. -1.
         23    2    1    2    0    0 -0.12639714051E+03 -0.14067474265E+02 -0.21369622800E+03  0.27836671217E+03  0.12509123719E+03 0.  0.
         23    2    1    2    0    0  0.12639714051E+03  0.14067474265E+02 -0.27304834316E+03  0.31334018900E+03  0.86328126222E+02 0.  0.
          5    1    3    3  502    0 -0.14345749760E+03 -0.70405832886E+01 -0.13407181201E+03  0.19652568943E+03  0.41800000000E+01 0.  1.
         -5    1    3    3    0  502  0.17060357090E+02 -0.70268909767E+01 -0.79624415988E+02  0.81841022735E+02  0.41800000000E+01 0.  1.
        -11    1    4    4    0    0  0.54600304079E+02  0.35210889614E+02 -0.63586148248E+02  0.90907635554E+02  0.00000000000E+00 0.  1.
         11    1    4    4    0    0  0.71796836434E+02 -0.21143415349E+02 -0.20946219491E+03  0.22243255344E+03  0.00000000000E+00 0. -1.
</event>
<event>
 8    1  0.5951278E-006  0.1787550E+03  0.7561462E-02  0.1169013E+00
          2   -1    0    0  501    0  0.00000000000E+00  0.00000000000E+00  0.88877248832E+02  0.88877248832E+02  0.00000000000E+00 0. -1.
         -2   -1    0    0    0  501 -0.00000000000E+00 -0.00000000000E+00 -0.83466103095E+03  0.83466103095E+03  0.00000000000E+00 0.  1.
         23    2    1    2    0    0  0.10860951063E+03  0.12066050402E+03 -0.70381347523E+03  0.73304554431E+03  0.12508948429E+03 0.  0.
         23    2    1    2    0    0 -0.10860951063E+03 -0.12066050402E+03 -0.41970306883E+02  0.19049273547E+03  0.90393542780E+02 0.  0.
          5    1    3    3  502    0  0.12304279008E+03  0.91857236548E+02 -0.41688091900E+03  0.44427970145E+03  0.41800000000E+01 0.  1.
         -5    1    3    3    0  502 -0.14433279451E+02  0.28803267475E+02 -0.28693255623E+03  0.28876584285E+03  0.41800000000E+01 0.  1.
        -11    1    4    4    0    0 -0.67215210255E+02 -0.33883773019E+02  0.17714680055E+02  0.77329195347E+02  0.00000000000E+00 0. -1.
         11    1    4    4    0    0 -0.41394300379E+02 -0.86776731004E+02 -0.59684986938E+02  0.11316354012E+03  0.00000000000E+00 0.  1.
</event>
<event>
 7    1  0.5951278E-006  0.1065761E+03  0.7561462E-02  0.1267045E+00
          2   -1    0    0  501    0  0.00000000000E+00  0.00000000000E+00  0.12235707751E+02  0.12235707751E+02  0.00000000000E+00 0.  1.
         -2   -1    0    0    0  501 -0.00000000000E+00 -0.00000000000E+00 -0.10031117277E+04  0.10031117277E+04  0.00000000000E+00 0. -1.
         23    2    1    2    0    0 -0.23411115458E+02  0.59121977585E+02 -0.75954697112E+03  0.77240036067E+03  0.12508887745E+03 0.  0.
          5    1    3    3  502    0  0.40324310533E+02 -0.14142099174E+02 -0.25165403645E+03  0.25529057063E+03  0.41800000000E+01 0. -1.
         -5    1    3    3    0  502 -0.63735425991E+02  0.73264076758E+02 -0.50789293467E+03  0.51710979004E+03  0.41800000000E+01 0. -1.
        -11    1    1    2    0    0  0.82898893508E+00 -0.47709275308E+02 -0.17085832907E+03  0.17739625358E+03  0.00000000000E+00 0. -1.
         11    1    1    2    0    0  0.22582126523E+02 -0.11412702277E+02 -0.60470719734E+02  0.65550821175E+02  0.00000000000E+00 0.  1.
</event>
<event>
 8    1  0.5951278E-006  0.9598931E+02  0.7561462E-02  0.1288963E+00
         -2   -1    0    0    0  501 -0.00000000000E+00  0.00000000000E+00  0.23979435015E+02  0.23979435015E+02  0.00000000000E+00 0.  1.
          2   -1    0    0  501    0  0.00000000000E+00 -0.00000000000E+00 -0.50866328365E+03  0.50866328365E+03  0.00000000000E+00 0. -1.
         23    2    1    2    0    0 -0.63059767021E+01  0.30851042439E+02 -0.30056153023E+03  0.32707253480E+03  0.12509059681E+03 0.  0.
         23    2    1    2    0    0  0.63059767021E+01 -0.30851042439E+02 -0.18412231841E+03  0.20557018386E+03  0.85828434647E+02 0.  0.
          5    1    3    3  502    0  0.45824454263E+02 -0.19270645457E+02 -0.74265965190E+02  0.89465883835E+02  0.41800000000E+01 0. -1.
         -5    1    3    3    0  502 -0.52130430965E+02  0.50121687896E+02 -0.22629556504E+03  0.23760665097E+03  0.41800000000E+01 0. -1.
        -11    1    4    4    0    0 -0.27625840076E+02 -0.19723086624E+02 -0.24143994455E+02  0.41654767484E+02  0.00000000000E+00 0.  1.
         11    1    4    4    0    0  0.33931816778E+02 -0.11127955814E+02 -0.15997832396E+03  0.16391541638E+03  0.00000000000E+00 0. -1.
</event>
<event>
 8    1  0.5951278E-006  0.1807948E+03  0.7561462E-02  0.1167036E+00
         -2   -1    0    0    0  501 -0.00000000000E+00  0.00000000000E+00  0.27195799220E+02  0.27195799220E+02  0.00000000000E+00 0.  1.
          2   -1    0    0  501    0  0.00000000000E+00 -0.00000000000E+00 -0.12948423424E+04  0.12948423424E+04  0.00000000000E+00 0. -1.
         23    2    1    2    0    0  0.11734855344E+03 -0.92821186070E+02 -0.54998804327E+03  0.58354109062E+03  0.12508757378E+03 0.  0.
         23    2    1    2    0    0 -0.11734855344E+03  0.92821186070E+02 -0.71765849993E+03  0.73849705102E+03  0.89206032723E+02 0.  0.
          5    1    3    3  502    0  0.10055353656E+02  0.27374665926E+02 -0.48060683658E+02  0.56371838584E+02  0.41800000000E+01 0.  1.
         -5    1    3    3    0  502  0.10729319979E+03 -0.12019585200E+03 -0.50192735962E+03  0.52716925203E+03  0.41800000000E+01 0.  1.
        -11    1    4    4    0    0 -0.61903802543E+02  0.97309219030E+02 -0.41294704424E+03  0.42874984107E+03  0.00000000000E+00 0.  1.
         11    1    4    4    0    0 -0.55444750900E+02 -0.44880329605E+01 -0.30471145569E+03  0.30974720995E+03  0.00000000000E+00 0. -1.
</event>
<event>
 8    1  0.5951278E-006  0.1350576E+03  0.7561462E-02  0.1220138E+00
         -2   -1    0    0    0  501 -0.00000000000E+00  0.00000000000E+00  0.69975513927E+02  0.69975513927E+02  0.00000000000E+00 0. -1.
          2   -1    0    0  501    0  0.00000000000E+00 -0.00000000000E+00 -0.36914156679E+03  0.36914156679E+03  0.00000000000E+00 0.  1.
         23    2    1    2    0    0  0.10476393730E+03 -0.51989193274E+01 -0.86063623144E+02  0.18454504977E+03  0.12508963524E+03 0.  0.
         23    2    1    2    0    0 -0.10476393730E+03  0.51989193274E+01 -0.21310242972E+03  0.25457203095E+03  0.91606561264E+02 0.  0.
          5    1    3    3  502    0  0.14927407465E+01  0.45895397700E+02 -0.12477259305E+02  0.47767878378E+02  0.41800000000E+01 0. -1.
         -5    1    3    3    0  502  0.10327119656E+03 -0.51094317028E+02 -0.73586363839E+02  0.13677717139E+03  0.41800000000E+01 0. -1.
        -11    1    4    4    0    0 -0.70304172652E+02 -0.10065509162E+02 -0.20370247347E+03  0.21572827554E+03  0.00000000000E+00 0.  1.
         11    1    4    4    0    0 -0.34459764651E+02  0.15264428489E+02 -0.93999562453E+01  0.38843755409E+02  0.00000000000E+00 0. -1.
</event>
<event>
 8    1  0.6128448E-006  0.1134256E+03  0.7561462E-02  0.1254354E+00
         -1   -1    0    0    0  501 -0.00000000000E+00  0.00000000000E+00  0.59605206742E+02  0.59605206742E+02  0.00000000000E+00 0.  1.
          1   -1    0    0  501    0  0.00000000000E+00 -0.00000000000E+00 -0.31264905037E+03  0.31264905037E+03  0.00000000000E+00 0. -1.
         23    2    1    2    0    0  0.66416405964E+02  0.21769570292E+02 -0.78198388029E+02  0.16324170061E+03  0.12509121374E+03 0.  0.
         23    2    1    2    0    0 -0.66416405964E+02 -0.21769570292E+02 -0.17484545560E+03  0.20901255651E+03  0.90720792877E+02 0.  0.
          5    1    3    3  502    0  0.19622575328E+02 -0.36514745756E+02 -0.77943537097E+02  0.88380085400E+02  0.41800000000E+01 0. -1.
         -5    1    3    3    0  502  0.46793830637E+02  0.58284316048E+02 -0.25485093172E+00  0.74861615209E+02  0.41800000000E+01 0. -1.
        -11    1    4    4    0    0 -0.15941164208E+02  0.32508133163E+02 -0.85987906805E+02  0.93299622479E+02  0.00000000000E+00 0. -1.
         11    1    4    4    0    0 -0.50475241757E+02 -0.54277703455E+02 -0.88857548799E+02  0.11571293403E+03  0.00000000000E+00 0.  1.
</event>
<event>
 8    1  0.5951278E-006  0.8917033E+02  0.7561462E-02  0.1304873E+00
         -2   -1    0    0    0  501 -0.00000000000E+00  0.00000000000E+00  0.47059005285E+02  0.47059005285E+02  0.00000000000E+00 0. -1.
          2   -1    0    0  501    0  0.00000000000E+00 -0.00000000000E+00 -0.31945325594E+03  0.31945325594E+03  0.00000000000E+00 0.  1.
         23    2    1    2    0    0  0.59946342883E+00 -0.53070580121E+02 -0.12330730593E+03  0.18349318521E+03  0.12509281152E+03 0.  0.
         23    2    1    2    0    0 -0.59946342883E+00  0.53070580121E+02 -0.14908694473E+03  0.18301907602E+03  0.91935951980E+02 0.  0.
          5    1    3    3  502    0 -0.41334302033E+02 -0.65950943703E+00 -0.10628830713E+03  0.11412114663E+03  0.41800000000E+01 0. -1.
         -5    1    3    3    0  502  0.41933765462E+02 -0.52411070684E+02 -0.17018998799E+02  0.69372038576E+02  0.41800000000E+01 0. -1.
        -11    1    4    4    0    0  0.14245160262E+02  0.52803509953E+02 -0.15695879037E+03  0.16621431084E+03  0.00000000000E+00 0.  1.
         11    1    4    4    0    0 -0.14844623690E+02  0.26707016827E+00  0.78718456361E+01  0.16804765178E+02  0.00000000000E+00 0. -1.
</event>
<event>
 8    1  0.5951278E-006  0.1120744E+03  0.7561462E-02  0.1256776E+00
         -3   -1    0    0    0  501 -0.00000000000E+00  0.00000000000E+00  0.60390816332E+03  0.60390816332E+03  0.00000000000E+00 0.  1.
          3   -1    0    0  501    0  0.00000000000E+00 -0.00000000000E+00 -0.25193675051E+02  0.25193675051E+02  0.00000000000E+00 0. -1.
         23    2    1    2    0    0  0.15103954954E+00  0.57293399552E+02  0.35708714703E+03  0.38267637133E+03  0.12508964046E+03 0.  0.
         23    2    1    2    0    0 -0.15103954954E+00 -0.57293399552E+02  0.22162734123E+03  0.24642546704E+03  0.91237470258E+02 0.  0.
          5    1    3    3  502    0  0.17317165793E+02 -0.27735471074E+02  0.20421558566E+03  0.20685893360E+03  0.41800000000E+01 0.  1.
         -5    1    3    3    0  502 -0.17166126243E+02  0.85028870626E+02  0.15287156138E+03  0.17581743772E+03  0.41800000000E+01 0.  1.
        -11    1    4    4    0    0 -0.37172644353E+02 -0.56101342058E+02  0.17040885031E+03  0.18321665408E+03  0.00000000000E+00 0.  1.
         11    1    4    4    0    0  0.37021604803E+02 -0.11920574941E+01  0.51218490922E+02  0.63208812958E+02  0.00000000000E+00 0. -1.
</event>
<event>
 8    1  0.5951278E-006  0.9507482E+02  0.7561462E-02  0.1291008E+00
         -3   -1    0    0    0  501 -0.00000000000E+00  0.00000000000E+00  0.23908011669E+03  0.23908011669E+03  0.00000000000E+00 0.  1.
          3   -1    0    0  501    0  0.00000000000E+00 -0.00000000000E+00 -0.62004979919E+02  0.62004979919E+02  0.00000000000E+00 0. -1.
         23    2    1    2    0    0 -0.23854837094E+02  0.42240187873E+01  0.16038827705E+03  0.20484052340E+03  0.12509334525E+03 0.  0.
         23    2    1    2    0    0  0.23854837094E+02 -0.42240187873E+01  0.16686859713E+02  0.96244573199E+02  0.91638807258E+02 0.  0.
          5    1    3    3  502    0  0.44518066584E+02  0.26873068111E+02  0.90108888428E+02  0.10412062339E+03  0.41800000000E+01 0.  1.
         -5    1    3    3    0  502 -0.68372903678E+02 -0.22649049324E+02  0.70279388626E+02  0.10071990001E+03  0.41800000000E+01 0.  1.
        -11    1    4    4    0    0  0.42927279435E+02 -0.12981178645E+02  0.43308790547E+02  0.62345117349E+02  0.00000000000E+00 0.  1.
         11    1    4    4    0    0 -0.19072442341E+02  0.87571598572E+01 -0.26621930834E+02  0.33899455850E+02  0.00000000000E+00 0. -1.
</event>
<event>
 8    1  0.5951278E-006  0.1973514E+03  0.7561462E-02  0.1151993E+00
          2   -1    0    0  501    0  0.00000000000E+00  0.00000000000E+00  0.13864709865E+03  0.13864709865E+03  0.00000000000E+00 0. -1.
         -2   -1    0    0    0  501 -0.00000000000E+00 -0.00000000000E+00 -0.33060783175E+03  0.33060783175E+03  0.00000000000E+00 0.  1.
         23    2    1    2    0    0  0.13189842924E+03  0.12687277989E+03 -0.76167460444E+02  0.23439920283E+03  0.12509039269E+03 0.  0.
         23    2    1    2    0    0 -0.13189842924E+03 -0.12687277989E+03 -0.11579327266E+03  0.23485572756E+03  0.90858312023E+02 0.  0.
          5    1    3    3  502    0  0.49960527065E+02 -0.79746347111E+01  0.13941064564E+02  0.52644797887E+02  0.41800000000E+01 0.  1.
         -5    1    3    3    0  502  0.81937902175E+02  0.13484741460E+03 -0.90108525008E+02  0.18175440495E+03  0.41800000000E+01 0.  1.
        -11    1    4    4    0    0 -0.91833984518E+02 -0.10811756096E+03 -0.12568673968E+03  0.18952584054E+03  0.00000000000E+00 0.  1.
         11    1    4    4    0    0 -0.40064444722E+02 -0.18755218936E+02  0.98934670236E+01  0.45329887028E+02  0.00000000000E+00 0. -1.
</event>
<event>
 8    1  0.5951278E-006  0.1013358E+03  0.7561462E-02  0.1277512E+00
          1   -1    0    0  501    0  0.00000000000E+00  0.00000000000E+00  0.49730068545E+02  0.49730068545E+02  0.00000000000E+00 0. -1.
         -1   -1    0    0    0  501 -0.00000000000E+00 -0.00000000000E+00 -0.33603963241E+03  0.33603963241E+03  0.00000000000E+00 0.  1.
         23    2    1    2    0    0 -0.45967743564E+02 -0.42972537828E+02 -0.20937855317E+03  0.25188549995E+03  0.12508898473E+03 0.  0.
         23    2    1    2    0    0  0.45967743564E+02  0.42972537828E+02 -0.76931010692E+02  0.13388420101E+03  0.89704662181E+02 0.  0.
          5    1    3    3  502    0  0.23112737628E+02  0.30417506643E+02 -0.46828220109E+02  0.60578692208E+02  0.41800000000E+01 0.  1.
         -5    1    3    3    0  502 -0.69080481192E+02 -0.73390044471E+02 -0.16255033306E+03  0.19130680774E+03  0.41800000000E+01 0.  1.
        -11    1    4    4    0    0  0.11596069566E+02  0.15541272531E+02 -0.86695216375E+02  0.88837269902E+02  0.00000000000E+00 0.  1.
         11    1    4    4    0    0  0.34371673998E+02  0.27431265297E+02  0.97642056832E+01  0.45046931104E+02  0.00000000000E+00 0. -1.
</event>
<event>
 8    1  0.5951278E-006  0.9497104E+02  0.7561462E-02  0.1291241E+00
          1   -1    0    0  501    0  0.00000000000E+00  0.00000000000E+00  0.78844121052E+02  0.78844121052E+02  0.00000000000E+00 0. -1.
         -1   -1    0    0    0  501 -0.00000000000E+00 -0.00000000000E+00 -0.20630019553E+03  0.20630019553E+03  0.00000000000E+00 0.  1.
         23    2    1    2    0    0 -0.52169579307E+02  0.10554868284E+02 -0.12365132723E+03  0.18376749535E+03  0.12509105232E+03 0.  0.
         23    2    1    2    0    0  0.52169579307E+02 -0.10554868284E+02 -0.38047472499E+01  0.10137682124E+03  0.86195786055E+02 0.  0.
          5    1    3    3  502    0 -0.86641573397E+02  0.33042154516E+02 -0.98533669881E+02  0.13536950438E+03  0.41800000000E+01 0.  1.
         -5    1    3    3    0  502  0.34471994091E+02 -0.22487286233E+02 -0.25117657352E+02  0.48397990966E+02  0.41800000000E+01 0.  1.
        -11    1    4    4    0    0  0.44072916813E+02 -0.22187944968E+01 -0.42322871052E+02  0.61143850546E+02  0.00000000000E+00 0.  1.
         11    1    4    4    0    0  0.80966624934E+01 -0.83360737868E+01  0.38518123802E+02  0.40232970695E+02  0.00000000000E+00 0. -1.
</event>
<event>
 8    1  0.5951278E-006  0.9874701E+02  0.7561462E-02  0.1282953E+00
          1   -1    0    0  501    0  0.00000000000E+00  0.00000000000E+00  0.19945773748E+03  0.19945773748E+03  0.00000000000E+00 0. -1.
         -1   -1    0    0    0  501 -0.00000000000E+00 -0.00000000000E+00 -0.73297110480E+02  0.73297110480E+02  0.00000000000E+00 0.  1.
         23    2    1    2    0    0 -0.23787841219E+02 -0.49244572711E+02  0.77138877458E+02  0.15681604299E+03  0.12509986248E+03 0.  0.
         23    2    1    2    0    0  0.23787841219E+02  0.49244572711E+02  0.49021749538E+02  0.11593880496E+03  0.89709448981E+02 0.  0.
          5    1    3    3  502    0  0.50538488602E+01 -0.68378572216E+02 -0.36876735856E+01  0.68791292059E+02  0.41800000000E+01 0.  1.
         -5    1    3    3    0  502 -0.28841690079E+02  0.19133999506E+02  0.80826551043E+02  0.88024750935E+02  0.41800000000E+01 0.  1.
        -11    1    4    4    0    0  0.49285400447E+02  0.15542332930E+02  0.61707851487E+00  0.51681675631E+02  0.00000000000E+00 0.  1.
         11    1    4    4    0    0 -0.25497559228E+02  0.33702239781E+02  0.48404671023E+02  0.64257129330E+02  0.00000000000E+00 0. -1.
</event>
<event>
 8    1  0.5951278E-006  0.1299491E+03  0.7561462E-02  0.1227531E+00
          2   -1    0    0  501    0  0.00000000000E+00  0.00000000000E+00  0.21206179144E+03  0.21206179144E+03  0.00000000000E+00 0. -1.
         -2   -1    0    0    0  501 -0.00000000000E+00 -0.00000000000E+00 -0.12029594456E+03  0.12029594456E+03  0.00000000000E+00 0.  1.
         23    2    1    2    0    0 -0.73493605184E+01  0.11451479374E+03  0.24103841445E+02  0.17145368264E+03  0.12509084312E+03 0.  0.
         23    2    1    2    0    0  0.73493605184E+01 -0.11451479374E+03  0.67662005435E+02  0.16090405336E+03  0.90245865955E+02 0.  0.
          5    1    3    3  502    0  0.34224994835E+02  0.20538177379E+02  0.51241018928E+02  0.65086722319E+02  0.41800000000E+01 0. -1.
         -5    1    3    3    0  502 -0.41574355353E+02  0.93976616364E+02 -0.27137177483E+02  0.10636696032E+03  0.41800000000E+01 0. -1.
        -11    1    4    4    0    0  0.14224275359E+02 -0.48390660346E+02 -0.17030585340E+02  0.53235578848E+02  0.00000000000E+00 0.  1.
         11    1    4    4    0    0 -0.68749148411E+01 -0.66124133398E+02  0.84692590775E+02  0.10766847451E+03  0.00000000000E+00 0. -1.
</event>
<event>
 8    1  0.5951278E-006  0.1176799E+03  0.7561462E-02  0.1246974E+00
          4   -1    0    0  501    0  0.00000000000E+00  0.00000000000E+00  0.17896591481E+02  0.17896591481E+02  0.00000000000E+00 0. -1.
         -4   -1    0    0    0  501 -0.00000000000E+00 -0.00000000000E+00 -0.82886224527E+03  0.82886224527E+03  0.00000000000E+00 0.  1.
         23    2    1    2    0    0 -0.31944617208E+02 -0.47654879091E+02 -0.48016525931E+03  0.49949769139E+03  0.12509125226E+03 0.  0.
         23    2    1    2    0    0  0.31944617208E+02  0.47654879091E+02 -0.33080039448E+03  0.34726114535E+03  0.88712772566E+02 0.  0.
          5    1    3    3  502    0 -0.69420795234E+02 -0.59703741618E+02 -0.25716903350E+03  0.27301495887E+03  0.41800000000E+01 0. -1.
         -5    1    3    3    0  502  0.37476178026E+02  0.12048862527E+02 -0.22299622581E+03  0.22648273252E+03  0.41800000000E+01 0. -1.
        -11    1    4    4    0    0 -0.22129108037E+02  0.44798002014E+02 -0.12949885070E+03  0.13880385708E+03  0.00000000000E+00 0. -1.
         11    1    4    4    0    0  0.54073725245E+02  0.28568770774E+01 -0.20130154378E+03  0.20845728828E+03  0.00000000000E+00 0.  1.
</event>
<event>
 8    1  0.5951278E-006  0.1559160E+03  0.7561462E-02  0.1193386E+00
          2   -1    0    0  501    0  0.00000000000E+00  0.00000000000E+00  0.55770579226E+03  0.55770579226E+03  0.00000000000E+00 0. -1.
         -2   -1    0    0    0  501 -0.00000000000E+00 -0.00000000000E+00 -0.56154572958E+02  0.56154572958E+02  0.00000000000E+00 0.  1.
         23    2    1    2    0    0  0.56382877261E+02  0.12261273220E+03  0.21286029008E+03  0.28137376464E+03  0.12509508939E+03 0.  0.
         23    2    1    2    0    0 -0.56382877261E+02 -0.12261273220E+03  0.28869092923E+03  0.33248660058E+03  0.94826030209E+02 0.  0.
          5    1    3    3  502    0  0.30751781639E+02 -0.15455906481E+02  0.83447251106E+02  0.90363008119E+02  0.41800000000E+01 0. -1.
         -5    1    3    3    0  502  0.25631095622E+02  0.13806863868E+03  0.12941303897E+03  0.19101075652E+03  0.41800000000E+01 0. -1.
        -11    1    4    4    0    0 -0.44278193450E+01 -0.31313063280E+02  0.77667183354E+01  0.32564327567E+02  0.00000000000E+00 0.  1.
         11    1    4    4    0    0 -0.51955057916E+02 -0.91299668917E+02  0.28092421089E+03  0.29992227302E+03  0.00000000000E+00 0. -1.
</event>
<event>
 8    1  0.5951278E-006  0.7552586E+02  0.7561462E-02  0.1342250E+00
         -1   -1    0    0    0  501 -0.00000000000E+00  0.00000000000E+00  0.13834805290E+03  0.13834805290E+03  0.00000000000E+00 0.  1.
          1   -1    0    0  501    0  0.00000000000E+00 -0.00000000000E+00 -0.92480997239E+02  0.92480997239E+02  0.00000000000E+00 0. -1.
         23    2    1    2    0    0 -0.64883329511E+01 -0.35347835222E+02  0.39062623380E+02  0.13588706855E+03  0.12509132238E+03 0.  0.
         23    2    1    2    0    0  0.64883329511E+01  0.35347835222E+02  0.68044322802E+01  0.94941981585E+02  0.87613421628E+02 0.  0.
          5    1    3    3  502    0 -0.22312325213E+02 -0.59901289216E+02 -0.22274870068E+02  0.67820694059E+02  0.41800000000E+01 0. -1.
         -5    1    3    3    0  502  0.15823992262E+02  0.24553453994E+02  0.61337493448E+02  0.68066374493E+02  0.41800000000E+01 0. -1.
        -11    1    4    4    0    0 -0.72238997637E+01  0.41736816857E+02 -0.32134738284E+02  0.53167546621E+02  0.00000000000E+00 0. -1.
         11    1    4    4    0    0  0.13712232715E+02 -0.63889816342E+01  0.38939170564E+02  0.41774434964E+02  0.00000000000E+00 0.  1.
</event>
<event>
 8    1  0.5951278E-006  0.1063858E+03  0.7561462E-02  0.1267413E+00
          3   -1    0    0  501    0  0.00000000000E+00  0.00000000000E+00  0.94686798042E+03  0.94686798042E+03  0.00000000000E+00 0. -1.
         -3   -1    0    0    0  501 -0.00000000000E+00 -0.00000000000E+00 -0.15594333663E+02  0.15594333663E+02  0.00000000000E+00 0.  1.
         23    2    1    2    0    0  0.16940596374E+02  0.51960471751E+02  0.53284633459E+03  0.55005513375E+03  0.12509420233E+03 0.  0.
         23    2    1    2    0    0 -0.16940596374E+02 -0.51960471751E+02  0.39842731217E+03  0.41240718032E+03  0.91370043630E+02 0.  0.
          5    1    3    3  502    0  0.14979046930E+01  0.76713445358E+02  0.17662176819E+03  0.19261338950E+03  0.41800000000E+01 0. -1.
         -5    1    3    3    0  502  0.15442691681E+02 -0.24752973607E+02  0.35622456640E+03  0.35744174425E+03  0.41800000000E+01 0. -1.
        -11    1    4    4    0    0  0.48458086807E+01  0.25517694091E+02  0.94694637336E+02  0.98192203935E+02  0.00000000000E+00 0.  1.
         11    1    4    4    0    0 -0.21786405055E+02 -0.77478165842E+02  0.30373267483E+03  0.31421497639E+03  0.00000000000E+00 0. -1.
</event>
<event>
 8    1  0.5951278E-006  0.1670389E+03  0.7561462E-02  0.1180971E+00
         -2   -1    0    0    0  501 -0.00000000000E+00  0.00000000000E+00  0.21402897271E+03  0.21402897271E+03  0.00000000000E+00 0.  1.
          2   -1    0    0  501    0  0.00000000000E+00 -0.00000000000E+00 -0.15800477647E+03  0.15800477647E+03  0.00000000000E+00 0. -1.
         23    2    1    2    0    0 -0.51988035761E+02 -0.13787018995E+03  0.45314413842E+02  0.19852527274E+03  0.12509173704E+03 0.  0.
         23    2    1    2    0    0  0.51988035761E+02  0.13787018995E+03  0.10709782398E+02  0.17350847643E+03  0.90992015122E+02 0.  0.
          5    1    3    3  502    0 -0.12181300775E+02 -0.13714606284E+03 -0.41366817688E+00  0.13775002781E+03  0.41800000000E+01 0.  1.
         -5    1    3    3    0  502 -0.39806734986E+02 -0.72412710829E+00  0.45728082019E+02  0.60775244923E+02  0.41800000000E+01 0.  1.
        -11    1    4    4    0    0 -0.73814280864E+01  0.48144856323E+02  0.38846358413E+02  0.62301302016E+02  0.00000000000E+00 0.  1.
         11    1    4    4    0    0  0.59369463848E+02  0.89725333627E+02 -0.28136576015E+02  0.11120717442E+03  0.00000000000E+00 0. -1.
</event>
<event>
 8    1  0.5951278E-006  0.1959952E+03  0.7561462E-02  0.1153162E+00
          2   -1    0    0  501    0  0.00000000000E+00  0.00000000000E+00  0.89379067782E+03  0.89379067782E+03  0.00000000000E+00 0.  1.
         -2   -1    0    0    0  501 -0.00000000000E+00 -0.00000000000E+00 -0.62435322138E+02  0.62435322138E+02  0.00000000000E+00 0. -1.
         23    2    1    2    0    0 -0.47069369190E+02 -0.18994011716E+03  0.28337414926E+03  0.36638976534E+03  0.12509107903E+03 0.  0.
         23    2    1    2    0    0  0.47069369190E+02  0.18994011716E+03  0.54798120642E+03  0.58983623461E+03  0.96595069506E+02 0.  0.
          5    1    3    3  502    0 -0.26978262552E+01 -0.18292286919E+02  0.13163505064E+03  0.13299302608E+03  0.41800000000E+01 0. -1.
         -5    1    3    3    0  502 -0.44371542935E+02 -0.17164783025E+03  0.15173909862E+03  0.23339673927E+03  0.41800000000E+01 0. -1.
        -11    1    4    4    0    0  0.19988539968E+02  0.76851888846E+02  0.10383218805E+03  0.13071678479E+03  0.00000000000E+00 0. -1.
         11    1    4    4    0    0  0.27080829222E+02  0.11308822832E+03  0.44414901836E+03  0.45911944983E+03  0.00000000000E+00 0.  1.
</event>
<event>
 8    1  0.5951278E-006  0.1147669E+03  0.7561462E-02  0.1251989E+00
          1   -1    0    0  501    0  0.00000000000E+00  0.00000000000E+00  0.25573405411E+03  0.25573405411E+03  0.00000000000E+00 0. -1.
         -1   -1    0    0    0  501 -0.00000000000E+00 -0.00000000000E+00 -0.95941813340E+02  0.95941813340E+02  0.00000000000E+00 0.  1.
         23    2    1    2    0    0  0.68561763460E+02 -0.64988573614E+02  0.16166830277E+02  0.15759203387E+03  0.12509857166E+03 0.  0.
         23    2    1    2    0    0 -0.68561763460E+02  0.64988573614E+02  0.14362541049E+03  0.19408383357E+03  0.90089099268E+02 0.  0.
          5    1    3    3  502    0 -0.78582171102E+01 -0.21271547723E+02  0.56229813782E+02  0.60774128349E+02  0.41800000000E+01 0.  1.
         -5    1    3    3    0  502  0.76419980571E+02 -0.43717025891E+02 -0.40062983504E+02  0.96817905526E+02  0.41800000000E+01 0.  1.
        -11    1    4    4    0    0 -0.38898605582E+02  0.77051018542E+02  0.13614470749E+03  0.16119969712E+03  0.00000000000E+00 0. -1.
         11    1    4    4    0    0 -0.29663157878E+02 -0.12062444928E+02  0.74807030050E+01  0.32884136455E+02  0.00000000000E+00 0.  1.
</event>
<event>
 8    1  0.5951278E-006  0.9997062E+02  0.7561462E-02  0.1280358E+00
          1   -1    0    0  501    0  0.00000000000E+00  0.00000000000E+00  0.51499469708E+03  0.51499469708E+03  0.00000000000E+00 0. -1.
         -1   -1    0    0    0  501 -0.00000000000E+00 -0.00000000000E+00 -0.29729768519E+02  0.29729768519E+02  0.00000000000E+00 0.  1.
         23    2    1    2    0    0 -0.24315303929E+02  0.21251710696E+02  0.16282442861E+03  0.20785193538E+03  0.12509101997E+03 0.  0.
         23    2    1    2    0    0  0.24315303929E+02 -0.21251710696E+02  0.32244049995E+03  0.33687253022E+03  0.92045403982E+02 0.  0.
          5    1    3    3  502    0 -0.11670790731E+02  0.60436804741E+02  0.29755773360E+02  0.68495935440E+02  0.41800000000E+01 0.  1.
         -5    1    3    3    0  502 -0.12644513198E+02 -0.39185094045E+02  0.13306865525E+03  0.13935599994E+03  0.41800000000E+01 0.  1.
        -11    1    4    4    0    0 -0.18378697507E+02 -0.44571652173E+02  0.18044907913E+03  0.18677868952E+03  0.00000000000E+00 0.  1.
         11    1    4    4    0    0  0.42694001436E+02  0.23319941477E+02  0.14199142082E+03  0.15009384070E+03  0.00000000000E+00 0. -1.
</event>
<event>
 8    1  0.5951278E-006  0.1092744E+03  0.7561462E-02  0.1261919E+00
          2   -1    0    0  501    0  0.00000000000E+00  0.00000000000E+00  0.28146490425E+03  0.28146490425E+03  0.00000000000E+00 0.  1.
         -2   -1    0    0    0  501 -0.00000000000E+00 -0.00000000000E+00 -0.77598143791E+02  0.77598143791E+02  0.00000000000E+00 0. -1.
         23    2    1    2    0    0  0.77945395921E+01 -0.77388949920E+02  0.32035399292E+02  0.15074404248E+03  0.12509074754E+03 0.  0.
         23    2    1    2    0    0 -0.77945395921E+01  0.77388949920E+02  0.17183136117E+03  0.20831900556E+03  0.88436344222E+02 0.  0.
          5    1    3    3  502    0  0.56436365924E+02 -0.50417938926E+02  0.51539977624E+02  0.91656279969E+02  0.41800000000E+01 0.  1.
         -5    1    3    3    0  502 -0.48641826332E+02 -0.26971010994E+02 -0.19504578333E+02  0.59087762514E+02  0.41800000000E+01 0.  1.
        -11    1    4    4    0    0 -0.20101975842E+02  0.20258233194E+02  0.13773034737E+03  0.14065608423E+03  0.00000000000E+00 0.  1.
         11    1    4    4    0    0  0.12307436250E+02  0.57130716726E+02  0.34101013802E+02  0.67662921330E+02  0.00000000000E+00 0. -1.
</event>
<event>
 8    1  0.5951278E-006  0.1774351E+03  0.7561462E-02  0.1170309E+00
          2   -1    0    0  501    0  0.00000000000E+00  0.00000000000E+00  0.44215400864E+03  0.44215400864E+03  0.00000000000E+00 0. -1.
         -2   -1    0    0    0  501 -0.00000000000E+00 -0.00000000000E+00 -0.88043649058E+02  0.88043649058E+02  0.00000000000E+00 0.  1.
         23    2    1    2    0    0 -0.29101329468E+02  0.13900144496E+03  0.74115484475E+02  0.20324817011E+03  0.12509366305E+03 0.  0.
         23    2    1    2    0    0  0.29101329468E+02 -0.13900144496E+03  0.27999487511E+03  0.32694948759E+03  0.91271837222E+02 0.  0.
          5    1    3    3  502    0  0.46579837798E+02  0.70365268103E+02  0.50045487907E+02  0.98198653271E+02  0.41800000000E+01 0.  1.
         -5    1    3    3    0  502 -0.75681167266E+02  0.68636176862E+02  0.24069996568E+02  0.10504951684E+03  0.41800000000E+01 0.  1.
        -11    1    4    4    0    0  0.57812220975E+02 -0.56763421753E+02  0.14972359959E+03  0.17023952308E+03  0.00000000000E+00 0.  1.
         11    1    4    4    0    0 -0.28710891506E+02 -0.82238023212E+02  0.13027127552E+03  0.15670996451E+03  0.00000000000E+00 0. -1.
</event>
<event>
 7    1  0.5951278E-006  0.1178679E+03  0.7561462E-02  0.1246656E+00
          1   -1    0    0  501    0  0.00000000000E+00  0.00000000000E+00  0.55560970069E+02  0.55560970069E+02  0.00000000000E+00 0. -1.
         -1   -1    0    0    0  501 -0.00000000000E+00 -0.00000000000E+00 -0.33438506190E+03  0.33438506190E+03  0.00000000000E+00 0.  1.
         23    2    1    2    0    0 -0.40908270418E+02 -0.62322811642E+02 -0.90891097317E+02  0.14592802831E+03  0.86464897127E+02 0.  0.
          5    1    1    2  502    0 -0.36136368661E+02  0.11656992075E+02 -0.42359915842E+01  0.38433561231E+02  0.41800000000E+01 0. -1.
         -5    1    1    2    0  502  0.77044639079E+02  0.50665819566E+02 -0.18369700294E+03  0.20558444243E+03  0.41800000000E+01 0.  1.
        -11    1    3    3    0    0 -0.49873638819E+02 -0.74778157419E+02 -0.94227824178E+02  0.13022302226E+03  0.00000000000E+00 0. -1.
         11    1    3    3    0    0  0.89653684010E+01  0.12455345777E+02  0.33367268611E+01  0.15705006054E+02  0.00000000000E+00 0.  1.
</event>
<event>
 8    1  0.5951278E-006  0.1142855E+03  0.7561462E-02  0.1252833E+00
          2   -1    0    0  501    0  0.00000000000E+00  0.00000000000E+00  0.37872547872E+03  0.37872547872E+03  0.00000000000E+00 0.  1.
         -2   -1    0    0    0  501 -0.00000000000E+00 -0.00000000000E+00 -0.35237175656E+02  0.35237175656E+02  0.00000000000E+00 0. -1.
         23    2    1    2    0    0 -0.81083697138E+01 -0.38993235715E+02  0.19153114145E+03  0.23220200425E+03  0.12508946615E+03 0.  0.
         23    2    1    2    0    0  0.81083697138E+01  0.38993235715E+02  0.15195716161E+03  0.18176065012E+03  0.91431596711E+02 0.  0.
          5    1    3    3  502    0  0.75069151241E+01 -0.83473502619E+02  0.11985015677E+03  0.14630690993E+03  0.41800000000E+01 0. -1.
         -5    1    3    3    0  502 -0.15615284838E+02  0.44480266904E+02  0.71680984681E+02  0.85895094326E+02  0.41800000000E+01 0. -1.
        -11    1    4    4    0    0  0.44980416799E+02  0.18883241141E+01  0.50795936264E+02  0.67875111818E+02  0.00000000000E+00 0.  1.
         11    1    4    4    0    0 -0.36872047085E+02  0.37104911601E+02  0.10116122534E+03  0.11388553830E+03  0.00000000000E+00 0. -1.
</event>
<event>
 8    1  0.5951278E-006  0.1412761E+03  0.7561462E-02  0.1211622E+00
         -1   -1    0    0    0  501 -0.00000000000E+00  0.00000000000E+00  0.19781675553E+03  0.19781675553E+03  0.00000000000E+00 0.  1.
          1   -1    0    0  501    0  0.00000000000E+00 -0.00000000000E+00 -0.15378756090E+03  0.15378756090E+03  0.00000000000E+00 0. -1.
         23    2    1    2    0    0 -0.10678665954E+03 -0.31651393715E+02  0.10417346934E+03  0.19724292799E+03  0.12508980594E+03 0.  0.
         23    2    1    2    0    0  0.10678665954E+03  0.31651393715E+02 -0.60144274705E+02  0.15436138843E+03  0.88345362520E+02 0.  0.
          5    1    3    3  502    0 -0.94713689421E+02  0.33561650838E+02  0.69860794621E+02  0.12245436046E+03  0.41800000000E+01 0.  1.
         -5    1    3    3    0  502 -0.12072970119E+02 -0.65213044553E+02  0.34312674716E+02  0.74788567532E+02  0.41800000000E+01 0.  1.
        -11    1    4    4    0    0  0.42452792995E+02 -0.28104508175E+01  0.19094186458E+02  0.46633959980E+02  0.00000000000E+00 0. -1.
         11    1    4    4    0    0  0.64333866544E+02  0.34461844532E+02 -0.79238461163E+02  0.10772742845E+03  0.00000000000E+00 0.  1.
</event>
<event>
 8    1  0.5951278E-006  0.7388805E+02  0.7561462E-02  0.1347349E+00
         -1   -1    0    0    0  501 -0.00000000000E+00  0.00000000000E+00  0.31759891750E+02  0.31759891750E+02  0.00000000000E+00 0.  1.
          1   -1    0    0  501    0  0.00000000000E+00 -0.00000000000E+00 -0.38049580821E+03  0.38049580821E+03  0.00000000000E+00 0. -1.
         23    2    1    2    0    0  0.27866273014E+02  0.28761943696E+02 -0.15993845038E+03  0.19845782991E+03  0.11046005507E+03 0.  0.
         23    2    1    2    0    0 -0.27866273014E+02 -0.28761943696E+02 -0.18879746608E+03  0.21379787005E+03  0.91985148050E+02 0.  0.
          5    1    3    3  502    0  0.18597487324E+01  0.24201349035E+02 -0.16857523737E+03  0.17036504047E+03  0.41800000000E+01 0. -1.
         -5    1    3    3    0  502  0.26006524281E+02  0.45605946610E+01  0.86367869934E+01  0.28092789438E+02  0.41800000000E+01 0.  1.
        -11    1    4    4    0    0 -0.97586103674E+01 -0.59739986596E+02 -0.14533810058E+03  0.15743970260E+03  0.00000000000E+00 0.  1.
         11    1    4    4    0    0 -0.18107662646E+02  0.30978042899E+02 -0.43459365505E+02  0.56358167452E+02  0.00000000000E+00 0. -1.
</event>
<event>
 8    1  0.5951278E-006  0.1149662E+03  0.7561462E-02  0.1251640E+00
          1   -1    0    0  501    0  0.00000000000E+00  0.00000000000E+00  0.25176807934E+02  0.25176807934E+02  0.00000000000E+00 0. -1.
         -1   -1    0    0    0  501 -0.00000000000E+00 -0.00000000000E+00 -0.69610876867E+03  0.69610876867E+03  0.00000000000E+00 0.  1.
         23    2    1    2    0    0 -0.27781240625E+02  0.64332696221E+02 -0.44969688611E+03  0.47200188664E+03  0.12509196010E+03 0.  0.
         23    2    1    2    0    0  0.27781240625E+02 -0.64332696221E+02 -0.22123507463E+03  0.24928368996E+03  0.91032448628E+02 0.  0.
          5    1    3    3  502    0  0.76080784850E+01  0.95527043076E+02 -0.29258246166E+03  0.30790464123E+03  0.41800000000E+01 0.  1.
         -5    1    3    3    0  502 -0.35389319110E+02 -0.31194346854E+02 -0.15711442445E+03  0.16409724541E+03  0.41800000000E+01 0.  1.
        -11    1    4    4    0    0  0.50438336896E+01 -0.63706438079E+02 -0.21691265974E+03  0.22613060931E+03  0.00000000000E+00 0.  1.
         11    1    4    4    0    0  0.22737406936E+02 -0.62625814239E+00 -0.43224148883E+01  0.23153080657E+02  0.00000000000E+00 0. -1.
</event>
<event>
 8    1  0.5951278E-006  0.1120867E+03  0.7561462E-02  0.1256754E+00
          2   -1    0    0  501    0  0.00000000000E+00  0.00000000000E+00  0.98946956901E+02  0.98946956901E+02  0.00000000000E+00 0. -1.
         -2   -1    0    0    0  501 -0.00000000000E+00 -0.00000000000E+00 -0.14572177697E+03  0.14572177697E+03  0.00000000000E+00 0.  1.
         23    2    1    2    0    0  0.33421487176E+02 -0.38260749734E+02 -0.39322740224E+02  0.14062193368E+03  0.12508944623E+03 0.  0.
         23    2    1    2    0    0 -0.33421487176E+02  0.38260749734E+02 -0.74520798453E+01  0.10404680019E+03  0.90494874779E+02 0.  0.
          5    1    3    3  502    0 -0.20080844157E+02 -0.60547122940E+02 -0.50475835736E+02  0.81452297645E+02  0.41800000000E+01 0.  1.
         -5    1    3    3    0  502  0.53502331333E+02  0.22286373206E+02  0.11153095512E+02  0.59169636033E+02  0.41800000000E+01 0.  1.
        -11    1    4    4    0    0 -0.94560353191E+01  0.65314437017E+02 -0.13609434869E+02  0.67384041169E+02  0.00000000000E+00 0.  1.
         11    1    4    4    0    0 -0.23965451857E+02 -0.27053687284E+02  0.61573550241E+01  0.36662759024E+02  0.00000000000E+00 0. -1.
</event>
<event>
 8    1  0.5951278E-006  0.1399453E+03  0.7561462E-02  0.1213403E+00
         -1   -1    0    0    0  501 -0.00000000000E+00  0.00000000000E+00  0.19272866922E+02  0.19272866922E+02  0.00000000000E+00 0.  1.
          1   -1    0    0  501    0  0.00000000000E+00 -0.00000000000E+00 -0.10245154468E+04  0.10245154468E+04  0.00000000000E+00 0. -1.
         23    2    1    2    0    0 -0.72283363807E+02  0.52410705258E+02 -0.57050328171E+03  0.59084200355E+03  0.12509401267E+03 0.  0.
         23    2    1    2    0    0  0.72283363807E+02 -0.52410705258E+02 -0.43473929816E+03  0.45294631017E+03  0.90500474146E+02 0.  0.
          5    1    3    3  502    0 -0.94040189735E+02 -0.22478142121E+01 -0.32598287857E+03  0.33930947449E+03  0.41800000000E+01 0. -1.
         -5    1    3    3    0  502  0.21756825928E+02  0.54658519470E+02 -0.24452040314E+03  0.25153252906E+03  0.41800000000E+01 0. -1.
        -11    1    4    4    0    0  0.93348764733E+02 -0.36000842757E+02 -0.35664917266E+03  0.37041690689E+03  0.00000000000E+00 0.  1.
         11    1    4    4    0    0 -0.21065400926E+02 -0.16409862501E+02 -0.78090125504E+02  0.82529403274E+02  0.00000000000E+00 0. -1.
</event>
<event>
 8    1  0.5951278E-006  0.1306263E+03  0.7561462E-02  0.1226529E+00
          3   -1    0    0  501    0  0.00000000000E+00  0.00000000000E+00  0.45402524307E+03  0.45402524307E+03  0.00000000000E+00 0. -1.
         -3   -1    0    0    0  501 -0.00000000000E+00 -0.00000000000E+00 -0.45647202512E+02  0.45647202512E+02  0.00000000000E+00 0.  1.
         23    2    1    2    0    0 -0.67943586373E+02 -0.57473122939E+02  0.16905228972E+03  0.22835540677E+03  0.12509206351E+03 0.  0.
         23    2    1    2    0    0  0.67943586373E+02  0.57473122939E+02  0.23932575084E+03  0.27131703881E+03  0.91742191735E+02 0.  0.
          5    1    3    3  502    0 -0.13414036307E+02  0.39405630221E+02  0.54050791627E+02  0.68349839346E+02  0.41800000000E+01 0.  1.
         -5    1    3    3    0  502 -0.54529550066E+02 -0.96878753160E+02  0.11500149809E+03  0.16000556743E+03  0.41800000000E+01 0.  1.
        -11    1    4    4    0    0 -0.54296758805E+00  0.36553268409E+02  0.16138495126E+03  0.16547367990E+03  0.00000000000E+00 0. -1.
         11    1    4    4    0    0  0.68486553961E+02  0.20919854529E+02  0.77940799576E+02  0.10584335891E+03  0.00000000000E+00 0.  1.
</event>
<event>
 8    1  0.5951278E-006  0.8677414E+02  0.7561462E-02  0.1310857E+00
         -4   -1    0    0    0  501 -0.00000000000E+00  0.00000000000E+00  0.49654241668E+03  0.49654241668E+03  0.00000000000E+00 0.  1.
          4   -1    0    0  501    0  0.00000000000E+00 -0.00000000000E+00 -0.24538821758E+02  0.24538821758E+02  0.00000000000E+00 0. -1.
         23    2    1    2    0    0 -0.12566018811E+02  0.17797338172E+02  0.27621100434E+03  0.30399850524E+03  0.12509165517E+03 0.  0.
         23    2    1    2    0    0  0.12566018811E+02 -0.17797338172E+02  0.19579259058E+03  0.21708273319E+03  0.91189497486E+02 0.  0.
          5    1    3    3  502    0  0.32489332839E+02  0.55075189309E+02  0.18287730805E+03  0.19377929565E+03  0.41800000000E+01 0. -1.
         -5    1    3    3    0  502 -0.45055351650E+02 -0.37277851137E+02  0.93333696296E+02  0.11021920959E+03  0.41800000000E+01 0. -1.
        -11    1    4    4    0    0  0.26398049983E+02 -0.24004487786E+02  0.19850061965E+03  0.20168184965E+03  0.00000000000E+00 0.  1.
         11    1    4    4    0    0 -0.13832031172E+02  0.62071496146E+01 -0.27080290682E+01  0.15400883550E+02  0.00000000000E+00 0. -1.
</event>
<event>
 8    1  0.5951278E-006  0.1009633E+03  0.7561462E-02  0.1278283E+00
         -3   -1    0    0    0  501 -0.00000000000E+00  0.00000000000E+00  0.41752668601E+02  0.41752668601E+02  0.00000000000E+00 0.  1.
          3   -1    0    0  501    0  0.00000000000E+00 -0.00000000000E+00 -0.26871418866E+03  0.26871418866E+03  0.00000000000E+00 0. -1.
         23    2    1    2    0    0 -0.17067333771E+01  0.45587690526E+01 -0.11446136452E+03  0.16381908075E+03  0.11709650693E+03 0.  0.
         23    2    1    2    0    0  0.17067333771E+01 -0.45587690526E+01 -0.11250015554E+03  0.14664777651E+03  0.93944611581E+02 0.  0.
          5    1    3    3  502    0  0.71234572652E+01 -0.54654913869E+02 -0.40246514405E+02  0.68375123950E+02  0.41800000000E+01 0. -1.
         -5    1    3    3    0  502 -0.88301906423E+01  0.59213682922E+02 -0.74214850117E+02  0.95443956801E+02  0.41800000000E+01 0.  1.
        -11    1    4    4    0    0  0.43570443280E+02  0.45065722109E+01 -0.85350406856E+02  0.95934272663E+02  0.00000000000E+00 0. -1.
         11    1    4    4    0    0 -0.41863709903E+02 -0.90653412635E+01 -0.27149748683E+02  0.50713503849E+02  0.00000000000E+00 0.  1.
</event>
<event>
 8    1  0.5951278E-006  0.1025608E+03  0.7561462E-02  0.1275001E+00
          3   -1    0    0  501    0  0.00000000000E+00  0.00000000000E+00  0.16209683562E+03  0.16209683562E+03  0.00000000000E+00 0. -1.
         -3   -1    0    0    0  501 -0.00000000000E+00 -0.00000000000E+00 -0.11895614410E+03  0.11895614410E+03  0.00000000000E+00 0.  1.
         23    2    1    2    0    0 -0.18945015035E+02 -0.57583496553E+02 -0.38016406899E+02  0.14411589413E+03  0.12509744633E+03 0.  0.
         23    2    1    2    0    0  0.18945015035E+02  0.57583496553E+02  0.81157098420E+02  0.13693708558E+03  0.92144007477E+02 0.  0.
          5    1    3    3  502    0 -0.16543818800E+01 -0.92907421137E+02 -0.45998430834E+02  0.10376827030E+03  0.41800000000E+01 0.  1.
         -5    1    3    3    0  502 -0.17290633155E+02  0.35323924584E+02  0.79820239351E+01  0.40347623833E+02  0.41800000000E+01 0.  1.
        -11    1    4    4    0    0  0.12349333509E+02 -0.20842896152E+01 -0.17458921087E+02  0.21486373050E+02  0.00000000000E+00 0.  1.
         11    1    4    4    0    0  0.65956815256E+01  0.59667786168E+02  0.98616019507E+02  0.11545071253E+03  0.00000000000E+00 0. -1.
</event>
<event>
 8    1  0.5951278E-006  0.1180628E+03  0.7561462E-02  0.1246327E+00
          1   -1    0    0  501    0  0.00000000000E+00  0.00000000000E+00  0.32777983734E+03  0.32777983734E+03  0.00000000000E+00 0.  1.
         -1   -1    0    0    0  501 -0.00000000000E+00 -0.00000000000E+00 -0.58513460324E+02  0.58513460324E+02  0.00000000000E+00 0. -1.
         23    2    1    2    0    0  0.36760382362E+02 -0.71274867483E+02  0.10807541137E+03  0.18373712860E+03  0.12509038907E+03 0.  0.
         23    2    1    2    0    0 -0.36760382362E+02  0.71274867483E+02  0.16119096565E+03  0.20255616907E+03  0.92817249327E+02 0.  0.
          5    1    3    3  502    0  0.65783693420E+02 -0.72077129304E+02  0.11762211361E+03  0.15288898226E+03  0.41800000000E+01 0. -1.
         -5    1    3    3    0  502 -0.29023311058E+02  0.80226182134E+00 -0.95467022380E+01  0.30848146337E+02  0.41800000000E+01 0. -1.
        -11    1    4    4    0    0 -0.30619038144E+02  0.87003141210E+02  0.16114210623E+03  0.18567135072E+03  0.00000000000E+00 0.  1.
         11    1    4    4    0    0 -0.61413442177E+01 -0.15728273727E+02  0.48859416702E-01  0.16884818343E+02  0.00000000000E+00 0. -1.
</event>
<event>
 8    1  0.5951278E-006  0.1090177E+03  0.7561462E-02  0.1262400E+00
          3   -1    0    0  501    0  0.00000000000E+00  0.00000000000E+00  0.40405329338E+03  0.40405329338E+03  0.00000000000E+00 0. -1.
         -3   -1    0    0    0  501 -0.00000000000E+00 -0.00000000000E+00 -0.51713232617E+02  0.51713232617E+02  0.00000000000E+00 0.  1.
         23    2    1    2    0    0 -0.70918385444E+02  0.62740630517E+02  0.20800795205E+03  0.26055735774E+03  0.12512803221E+03 0.  0.
         23    2    1    2    0    0  0.70918385444E+02 -0.62740630517E+02  0.14433210871E+03  0.19520916825E+03  0.91154032573E+02 0.  0.
          5    1    3    3  502    0 -0.52232498699E+02  0.58823466549E+02  0.34582391190E+02  0.86033995128E+02  0.41800000000E+01 0. -1.
         -5    1    3    3    0  502 -0.18685886745E+02  0.39171639675E+01  0.17342556086E+03  0.17452336261E+03  0.41800000000E+01 0. -1.
        -11    1    4    4    0    0  0.21700111091E+02 -0.66888746964E+02  0.42856114248E+02  0.82350748754E+02  0.00000000000E+00 0.  1.
         11    1    4    4    0    0  0.49218274353E+02  0.41481164474E+01  0.10147599446E+03  0.11285841950E+03  0.00000000000E+00 0. -1.
</event>
<event>
 8    1  0.5951278E-006  0.1245296E+03  0.7561462E-02  0.1235806E+00
          4   -1    0    0  501    0  0.00000000000E+00  0.00000000000E+00  0.10265646632E+03  0.10265646632E+03  0.00000000000E+00 0. -1.
         -4   -1    0    0    0  501 -0.00000000000E+00 -0.00000000000E+00 -0.30888683950E+03  0.30888683950E+03  0.00000000000E+00 0.  1.
         23    2    1    2    0    0 -0.70052615957E+02 -0.39968140759E+02 -0.21293737438E+03  0.25980050450E+03  0.12509658449E+03 0.  0.
         23    2    1    2    0    0  0.70052615957E+02  0.39968140759E+02  0.67070012037E+01  0.15174280132E+03  0.12835915475E+03 0.  0.
          5    1    3    3  502    0 -0.44659002680E+02 -0.56687243334E+02 -0.21711104838E+03  0.22882864726E+03  0.41800000000E+01 0.  1.
         -5    1    3    3    0  502 -0.25393613277E+02  0.16719102575E+02  0.41736739994E+01  0.30971857239E+02  0.41800000000E+01 0.  1.
        -11    1    4    4    0    0 -0.44825274277E+01  0.66736721712E+02 -0.17113646752E+02  0.69041726385E+02  0.00000000000E+00 0.  1.
         11    1    4    4    0    0  0.74535143385E+02 -0.26768580953E+02  0.23820647956E+02  0.82701074931E+02  0.00000000000E+00 0. -1.
</event>
<event>
 8    1  0.5951278E-006  0.9196634E+02  0.7561462E-02  0.1298159E+00
         -2   -1    0    0    0  501 -0.00000000000E+00  0.00000000000E+00  0.41748677722E+02  0.41748677722E+02  0.00000000000E+00 0.  1.
          2   -1    0    0  501    0  0.00000000000E+00 -0.00000000000E+00 -0.29501454692E+03  0.29501454692E+03  0.00000000000E+00 0. -1.
         23    2    1    2    0    0 -0.73887239787E+01 -0.18217682601E+02 -0.16430286257E+03  0.20743443353E+03  0.12508851412E+03 0.  0.
         23    2    1    2    0    0  0.73887239787E+01  0.18217682601E+02 -0.88963006630E+02  0.12932879111E+03  0.91788030052E+02 0.  0.
          5    1    3    3  502    0  0.52565038717E+02  0.16030612550E+02 -0.92911820789E+02  0.10802843457E+03  0.41800000000E+01 0. -1.
         -5    1    3    3    0  502 -0.59953762696E+02 -0.34248295151E+02 -0.71391041782E+02  0.99405998958E+02  0.41800000000E+01 0. -1.
        -11    1    4    4    0    0  0.16379139694E+02 -0.16817580081E+02  0.88142007113E+01  0.25075832012E+02  0.00000000000E+00 0.  1.
         11    1    4    4    0    0 -0.89904157151E+01  0.35035262682E+02 -0.97777207341E+02  0.10425295910E+03  0.00000000000E+00 0. -1.
</event>
<event>
 8    1  0.5951278E-006  0.1691868E+03  0.7561462E-02  0.1178699E+00
         -1   -1    0    0    0  501 -0.00000000000E+00  0.00000000000E+00  0.14234032676E+03  0.14234032676E+03  0.00000000000E+00 0.  1.
          1   -1    0    0  501    0  0.00000000000E+00 -0.00000000000E+00 -0.23446407357E+03  0.23446407357E+03  0.00000000000E+00 0. -1.
         23    2    1    2    0    0  0.65962230913E+02  0.12666128440E+03 -0.11970048635E+02  0.19024758665E+03  0.12512699665E+03 0.  0.
         23    2    1    2    0    0 -0.65962230913E+02 -0.12666128440E+03 -0.80153698174E+02  0.18655681368E+03  0.89357330578E+02 0.  0.
          5    1    3    3  502    0  0.96800392089E+02  0.88956723408E+02 -0.35139564944E+02  0.13614652391E+03  0.41800000000E+01 0. -1.
         -5    1    3    3    0  502 -0.30838161175E+02  0.37704560988E+02  0.23169516308E+02  0.54101062743E+02  0.41800000000E+01 0. -1.
        -11    1    4    4    0    0 -0.65796156826E+02 -0.53533091329E+02 -0.75037036334E+02  0.11324964875E+03  0.00000000000E+00 0. -1.
         11    1    4    4    0    0 -0.16607408701E+00 -0.73128193067E+02 -0.51166618405E+01  0.73307164931E+02  0.00000000000E+00 0.  1.
</event>
<event>
 8    1  0.5951278E-006  0.1181397E+03  0.7561462E-02  0.1246198E+00
          1   -1    0    0  501    0  0.00000000000E+00  0.00000000000E+00  0.41341306883E+03  0.41341306883E+03  0.00000000000E+00 0. -1.
         -1   -1    0    0    0  501 -0.00000000000E+00 -0.00000000000E+00 -0.59812667945E+02  0.59812667945E+02  0.00000000000E+00 0.  1.
         23    2    1    2    0    0  0.66126739591E+02  0.36233824578E+02  0.61942922674E+02  0.15865207873E+03  0.12509164913E+03 0.  0.
         23    2    1    2    0    0 -0.66126739591E+02 -0.36233824578E+02  0.29165747821E+03  0.31457365805E+03  0.90591754638E+02 0.  0.
          5    1    3    3  502    0  0.27921867686E+02  0.64786927112E+02  0.80664150946E+02  0.10724343461E+03  0.41800000000E+01 0. -1.
         -5    1    3    3    0  502  0.38204871905E+02 -0.28553102534E+02 -0.18721228272E+02  0.51408644114E+02  0.41800000000E+01 0. -1.
        -11    1    4    4    0    0 -0.76795616722E+02  0.32153410794E+01  0.18308947185E+03  0.19856903049E+03  0.00000000000E+00 0. -1.
         11    1    4    4    0    0  0.10668877131E+02 -0.39449165658E+02  0.10856800636E+03  0.11600462756E+03  0.00000000000E+00 0.  1.
</event>
<event>
 7    1  0.5951278E-006  0.1542334E+03  0.7561462E-02  0.1195365E+00
          1   -1    0    0  501    0  0.00000000000E+00  0.00000000000E+00  0.78270237694E+03  0.78270237694E+03  0.00000000000E+00 0. -1.
         -1   -1    0    0    0  501 -0.00000000000E+00 -0.00000000000E+00 -0.32148434919E+02  0.32148434919E+02  0.00000000000E+00 0.  1.
         23    2    1    2    0    0 -0.89800666205E+02  0.62867225017E+02  0.41610912271E+03  0.44008902585E+03  0.92277305110E+02 0.  0.
          5    1    1    2  502    0  0.10716636189E+03 -0.84976706529E+02  0.30246684628E+03  0.33197791384E+03  0.41800000000E+01 0. -1.
         -5    1    1    2    0  502 -0.17365695687E+02  0.22109481513E+02  0.31977973032E+02  0.42783872180E+02  0.41800000000E+01 0.  1.
        -11    1    3    3    0    0 -0.92376655959E+02  0.13010949701E+02  0.26410714929E+03  0.28009876416E+03  0.00000000000E+00 0.  1.
         11    1    3    3    0    0  0.25759897546E+01  0.49856275315E+02  0.15200197342E+03  0.15999026169E+03  0.00000000000E+00 0. -1.
</event>
<event>
 8    1  0.5951278E-006  0.1197266E+03  0.7561462E-02  0.1243549E+00
          3   -1    0    0  501    0  0.00000000000E+00  0.00000000000E+00  0.15947215371E+02  0.15947215371E+02  0.00000000000E+00 0. -1.
         -3   -1    0    0    0  501 -0.00000000000E+00 -0.00000000000E+00 -0.98381104519E+03  0.98381104519E+03  0.00000000000E+00 0.  1.
         23    2    1    2    0    0  0.34950998619E+02  0.44121337772E+02 -0.68495386214E+03  0.69855369039E+03  0.12508876984E+03 0.  0.
         23    2    1    2    0    0 -0.34950998619E+02 -0.44121337772E+02 -0.28290996768E+03  0.30120457018E+03  0.86705700685E+02 0.  0.
          5    1    3    3  502    0  0.50625991775E+02 -0.30810611722E+02 -0.25614424455E+03  0.26294415995E+03  0.41800000000E+01 0.  1.
         -5    1    3    3    0  502 -0.15674993156E+02  0.74931949494E+02 -0.42880961759E+03  0.43560953043E+03  0.41800000000E+01 0.  1.
        -11    1    4    4    0    0 -0.59619134762E+02 -0.50232190301E+02 -0.21369166489E+03  0.22746833146E+03  0.00000000000E+00 0.  1.
         11    1    4    4    0    0  0.24668136143E+02  0.61108525297E+01 -0.69218302790E+02  0.73736238719E+02  0.00000000000E+00 0. -1.
</event>
<event>
 8    1  0.5951278E-006  0.8920170E+02  0.7561462E-02  0.1304796E+00
          2   -1    0    0  501    0  0.00000000000E+00  0.00000000000E+00  0.67157884781E+03  0.67157884781E+03  0.00000000000E+00 0. -1.
         -2   -1    0    0    0  501 -0.00000000000E+00 -0.00000000000E+00 -0.19825134724E+02  0.19825134724E+02  0.00000000000E+00 0.  1.
         23    2    1    2    0    0 -0.15210607480E+02 -0.23632476856E+02  0.44960661567E+03  0.46753011263E+03  0.12509372814E+03 0.  0.
         23    2    1    2    0    0  0.15210607480E+02  0.23632476856E+02  0.20214709742E+03  0.22387386991E+03  0.92011977972E+02 0.  0.
          5    1    3    3  502    0 -0.44190050840E+02  0.59488161414E+01  0.40119326848E+03  0.40368510014E+03  0.41800000000E+01 0. -1.
         -5    1    3    3    0  502  0.28979443360E+02 -0.29581292997E+02  0.48413347189E+02  0.63845012482E+02  0.41800000000E+01 0. -1.
        -11    1    4    4    0    0  0.39845124823E+02  0.44486546661E+02  0.16003663189E+03  0.17081689130E+03  0.00000000000E+00 0.  1.
         11    1    4    4    0    0 -0.24634517343E+02 -0.20854069805E+02  0.42110465531E+02  0.53056978612E+02  0.00000000000E+00 0. -1.
</event>
<event>
 8    1  0.5951278E-006  0.1043883E+03  0.7561462E-02  0.1271330E+00
          2   -1    0    0  501    0  0.00000000000E+00  0.00000000000E+00  0.94162280731E+03  0.94162280731E+03  0.00000000000E+00 0. -1.
         -2   -1    0    0    0  501 -0.00000000000E+00 -0.00000000000E+00 -0.17477656817E+02  0.17477656817E+02  0.00000000000E+00 0.  1.
         23    2    1    2    0    0  0.60052284440E+02 -0.16945326427E+02  0.40215775867E+03  0.42575925083E+03  0.12508659343E+03 0.  0.
         23    2    1    2    0    0 -0.60052284440E+02  0.16945326427E+02  0.52198739182E+03  0.53334121329E+03  0.89936597795E+02 0.  0.
          5    1    3    3  502    0  0.67413375372E+02 -0.40155168343E+02  0.39070499313E+03  0.39852837387E+03  0.41800000000E+01 0.  1.
         -5    1    3    3    0  502 -0.73610909316E+01  0.23209841916E+02  0.11452765539E+02  0.27230876959E+02  0.41800000000E+01 0.  1.
        -11    1    4    4    0    0 -0.16664756092E+02 -0.34428373055E+02  0.12575193893E+03  0.13144039376E+03  0.00000000000E+00 0.  1.
         11    1    4    4    0    0 -0.43387528349E+02  0.51373699482E+02  0.39623545289E+03  0.40190081953E+03  0.00000000000E+00 0. -1.
</event>
<event>
 8    1  0.5951278E-006  0.8579580E+02  0.7561462E-02  0.1313364E+00
          1   -1    0    0  501    0  0.00000000000E+00  0.00000000000E+00  0.30352877934E+03  0.30352877934E+03  0.00000000000E+00 0. -1.
         -1   -1    0    0    0  501 -0.00000000000E+00 -0.00000000000E+00 -0.39633225757E+02  0.39633225757E+02  0.00000000000E+00 0.  1.
         23    2    1    2    0    0  0.16513280690E+02 -0.74737160024E+01  0.16760022929E+03  0.20991863146E+03  0.12508976820E+03 0.  0.
         23    2    1    2    0    0 -0.16513280690E+02  0.74737160024E+01  0.96295324292E+02  0.13324337363E+03  0.90290986627E+02 0.  0.
          5    1    3    3  502    0 -0.45307681195E+02  0.26235530712E+02  0.48459929875E+02  0.71462761286E+02  0.41800000000E+01 0.  1.
         -5    1    3    3    0  502  0.61820961885E+02 -0.33709246715E+02  0.11914029941E+03  0.13845587018E+03  0.41800000000E+01 0.  1.
        -11    1    4    4    0    0  0.14990662547E+02  0.80641642244E+01 -0.11758874987E+02  0.20688688920E+02  0.00000000000E+00 0.  1.
         11    1    4    4    0    0 -0.31503943237E+02 -0.59044822204E+00  0.10805419928E+03  0.11255468471E+03  0.00000000000E+00 0. -1.
</event>
<event>
 8    1  0.5951278E-006  0.1238882E+03  0.7561462E-02  0.1236817E+00
          1   -1    0    0  501    0  0.00000000000E+00  0.00000000000E+00  0.37337553501E+03  0.37337553501E+03  0.00000000000E+00 0. -1.
         -1   -1    0    0    0  501 -0.00000000000E+00 -0.00000000000E+00 -0.49621463488E+02  0.49621463488E+02  0.00000000000E+00 0.  1.
         23    2    1    2    0    0  0.61908172657E+01 -0.75191319872E+02  0.13822361692E+03  0.20002327680E+03  0.12333483767E+03 0.  0.
         23    2    1    2    0    0 -0.61908172657E+01  0.75191319872E+02  0.18553045460E+03  0.22297372170E+03  0.97998317245E+02 0.  0.
          5    1    3    3  502    0  0.20158133299E+02  0.31065937161E+02  0.33158765511E+02  0.49884054767E+02  0.41800000000E+01 0. -1.
         -5    1    3    3    0  502 -0.13967316034E+02 -0.10625725703E+03  0.10506485141E+03  0.15013922203E+03  0.41800000000E+01 0.  1.
        -11    1    4    4    0    0  0.18774978327E+02 -0.48662217036E+01  0.10476552018E+03  0.10654573733E+03  0.00000000000E+00 0.  1.
         11    1    4    4    0    0 -0.24965795593E+02  0.80057541575E+02  0.80764934418E+02  0.11642798437E+03  0.00000000000E+00 0. -1.
</event>
<event>
 8    1  0.5951278E-006  0.1577705E+03  0.7561462E-02  0.1191237E+00
          2   -1    0    0  501    0  0.00000000000E+00  0.00000000000E+00  0.19090282077E+03  0.19090282077E+03  0.00000000000E+00 0. -1.
         -2   -1    0    0    0  501 -0.00000000000E+00 -0.00000000000E+00 -0.18534906922E+03  0.18534906922E+03  0.00000000000E+00 0.  1.
         23    2    1    2    0    0  0.14562113648E+03 -0.47466749851E+02  0.16589385259E+01  0.19775906012E+03  0.12508911244E+03 0.  0.
         23    2    1    2    0    0 -0.14562113648E+03  0.47466749851E+02  0.38948130200E+01  0.17849282987E+03  0.91574630859E+02 0.  0.
          5    1    3    3  502    0  0.12705811157E+03 -0.56411287099E+02  0.47790096503E+02  0.14706244508E+03  0.41800000000E+01 0. -1.
         -5    1    3    3    0  502  0.18563024900E+02  0.89445372482E+01 -0.46131157977E+02  0.50696615038E+02  0.41800000000E+01 0. -1.
        -11    1    4    4    0    0 -0.25459756595E+02 -0.18942841502E+01  0.36515150005E+02  0.44554951444E+02  0.00000000000E+00 0. -1.
         11    1    4    4    0    0 -0.12016137988E+03  0.49361034001E+02 -0.32620336985E+02  0.13393787843E+03  0.00000000000E+00 0.  1.
</event>
<event>
 8    1  0.5951278E-006  0.8072770E+02  0.7561462E-02  0.1326999E+00
         -2   -1    0    0    0  501 -0.00000000000E+00  0.00000000000E+00  0.33679370986E+02  0.33679370986E+02  0.00000000000E+00 0.  1.
          2   -1    0    0  501    0  0.00000000000E+00 -0.00000000000E+00 -0.32903427282E+03  0.32903427282E+03  0.00000000000E+00 0. -1.
         23    2    1    2    0    0 -0.42745659372E+01  0.20119204811E+02 -0.13887998426E+03  0.17897899677E+03  0.11100800395E+03 0.  0.
         23    2    1    2    0    0  0.42745659372E+01 -0.20119204811E+02 -0.15647491758E+03  0.18373464704E+03  0.94079574696E+02 0.  0.
          5    1    3    3  502    0 -0.33703092836E+02  0.84018930442E+01  0.14918735116E+01  0.35016972457E+02  0.41800000000E+01 0. -1.
         -5    1    3    3    0  502  0.29428526899E+02  0.11717311767E+02 -0.14037185777E+03  0.14396202431E+03  0.41800000000E+01 0.  1.
        -11    1    4    4    0    0 -0.43799281079E+02 -0.47846508465E+01 -0.55583676684E+02  0.70928238526E+02  0.00000000000E+00 0.  1.
         11    1    4    4    0    0  0.48073847016E+02 -0.15334553964E+02 -0.10089124089E+03  0.11280640851E+03  0.00000000000E+00 0. -1.
</event>
<event>
 7    1  0.5951278E-006  0.9052915E+02  0.7561462E-02  0.1301575E+00
         -1   -1    0    0    0  501 -0.00000000000E+00  0.00000000000E+00  0.42934998445E+03  0.42934998445E+03  0.00000000000E+00 0.  1.
          1   -1    0    0  501    0  0.00000000000E+00 -0.00000000000E+00 -0.83112795378E+02  0.83112795378E+02  0.00000000000E+00 0. -1.
         23    2    1    2    0    0 -0.74329510845E+02  0.35365461037E+02 -0.62227973354E+01  0.11936518311E+03  0.86219091363E+02 0.  0.
          5    1    1    2  502    0  0.21736542173E+02  0.38990224013E+01 -0.10085958276E+02  0.24634906042E+02  0.41800000000E+01 0. -1.
         -5    1    1    2    0  502  0.52592968671E+02 -0.39264483438E+02  0.36254594469E+03  0.36846269068E+03  0.41800000000E+01 0.  1.
        -11    1    3    3    0    0 -0.28832067236E+02  0.37459957671E+02  0.34298461599E+02  0.58403090653E+02  0.00000000000E+00 0.  1.
         11    1    3    3    0    0 -0.45497443609E+02 -0.20944966340E+01 -0.40521258934E+02  0.60962092457E+02  0.00000000000E+00 0. -1.
</event>
<event>
 8    1  0.5951278E-006  0.1326359E+03  0.7561462E-02  0.1223596E+00
         -2   -1    0    0    0  501 -0.00000000000E+00  0.00000000000E+00  0.20812582454E+03  0.20812582454E+03  0.00000000000E+00 0. -1.
          2   -1    0    0  501    0  0.00000000000E+00 -0.00000000000E+00 -0.12937146419E+03  0.12937146419E+03  0.00000000000E+00 0.  1.
         23    2    1    2    0    0 -0.77707049028E+02 -0.77584315754E+02  0.10017775793E+03  0.19426895302E+03  0.12508849429E+03 0.  0.
         23    2    1    2    0    0  0.77707049028E+02  0.77584315754E+02 -0.21423397581E+02  0.14322833570E+03  0.89429763858E+02 0.  0.
          5    1    3    3  502    0 -0.76136293148E+02 -0.27226895033E+02 -0.12109609233E+01  0.80975167637E+02  0.41800000000E+01 0. -1.
         -5    1    3    3    0  502 -0.15707558804E+01 -0.50357420721E+02  0.10138871886E+03  0.11329378539E+03  0.41800000000E+01 0. -1.
        -11    1    4    4    0    0  0.32092337482E+02 -0.11153607282E+02  0.14829848442E+02  0.37070817165E+02  0.00000000000E+00 0.  1.
         11    1    4    4    0    0  0.45614711546E+02  0.88737923037E+02 -0.36253246023E+02  0.10615751854E+03  0.00000000000E+00 0. -1.
</event>
<event>
 8    1  0.5951278E-006  0.1281898E+03  0.7561462E-02  0.1230167E+00
         -1   -1    0    0    0  501 -0.00000000000E+00  0.00000000000E+00  0.11358661072E+03  0.11358661072E+03  0.00000000000E+00 0.  1.
          1   -1    0    0  501    0  0.00000000000E+00 -0.00000000000E+00 -0.21666103946E+03  0.21666103946E+03  0.00000000000E+00 0. -1.
         23    2    1    2    0    0  0.92438249147E+02 -0.47607161466E+02 -0.88855482541E+01  0.16290254571E+03  0.12508802782E+03 0.  0.
         23    2    1    2    0    0 -0.92438249147E+02  0.47607161466E+02 -0.94188880486E+02  0.16734510447E+03  0.91222623589E+02 0.  0.
          5    1    3    3  502    0  0.15386828295E+02  0.31191664218E+02  0.29835167983E+02  0.46013954951E+02  0.41800000000E+01 0.  1.
         -5    1    3    3    0  502  0.77051420851E+02 -0.78798825685E+02 -0.38720716237E+02  0.11688859076E+03  0.41800000000E+01 0.  1.
        -11    1    4    4    0    0 -0.81276249640E+01  0.21209486319E+02 -0.73056994543E+02  0.76506372605E+02  0.00000000000E+00 0. -1.
         11    1    4    4    0    0 -0.84310624183E+02  0.26397675148E+02 -0.21131885943E+02  0.90838731865E+02  0.00000000000E+00 0.  1.
</event>
<event>
 8    1  0.5951278E-006  0.9522957E+02  0.7561462E-02  0.1290660E+00
          2   -1    0    0  501    0  0.00000000000E+00  0.00000000000E+00  0.39082554068E+03  0.39082554068E+03  0.00000000000E+00 0. -1.
         -2   -1    0    0    0  501 -0.00000000000E+00 -0.00000000000E+00 -0.45124048085E+02  0.45124048085E+02  0.00000000000E+00 0.  1.
         23    2    1    2    0    0 -0.13580354307E+02  0.76727690593E+02  0.12046898429E+03  0.18091155516E+03  0.11020276806E+03 0.  0.
         23    2    1    2    0    0  0.13580354307E+02 -0.76727690593E+02  0.22523250831E+03  0.25503803361E+03  0.90791801724E+02 0.  0.
          5    1    3    3  502    0 -0.56486423575E+01  0.29171459704E+02  0.12841103125E+03  0.13187018833E+03  0.41800000000E+01 0. -1.
         -5    1    3    3    0  502 -0.79317119496E+01  0.47556230889E+02 -0.79420469651E+01  0.49041366833E+02  0.41800000000E+01 0.  1.
        -11    1    4    4    0    0  0.44904136749E+02 -0.24485750675E+02  0.59473919011E+02  0.78441573963E+02  0.00000000000E+00 0.  1.
         11    1    4    4    0    0 -0.31323782442E+02 -0.52241939918E+02  0.16575858930E+03  0.17659645964E+03  0.00000000000E+00 0. -1.
</event>
<event>
 8    1  0.5951278E-006  0.9918808E+02  0.7561462E-02  0.1282013E+00
         -2   -1    0    0    0  501 -0.00000000000E+00  0.00000000000E+00  0.29152326833E+02  0.29152326833E+02  0.00000000000E+00 0.  1.
          2   -1    0    0  501    0  0.00000000000E+00 -0.00000000000E+00 -0.47517624336E+03  0.47517624336E+03  0.00000000000E+00 0. -1.
         23    2    1    2    0    0 -0.16988897795E+02  0.37491747319E+02 -0.21916142293E+03  0.25568390830E+03  0.12509307694E+03 0.  0.
         23    2    1    2    0    0  0.16988897795E+02 -0.37491747319E+02 -0.22686249360E+03  0.24864466190E+03  0.93076974170E+02 0.  0.
          5    1    3    3  502    0 -0.57563935287E+02  0.54304496655E+01 -0.43375858100E+02  0.72401891517E+02  0.41800000000E+01 0. -1.
         -5    1    3    3    0  502  0.40575037492E+02  0.32061297654E+02 -0.17578556483E+03  0.18328201678E+03  0.41800000000E+01 0. -1.
        -11    1    4    4    0    0  0.99409418953E+01 -0.62118236510E+02 -0.92516561599E+02  0.11187855828E+03  0.00000000000E+00 0.  1.
         11    1    4    4    0    0  0.70479559000E+01  0.24626489191E+02 -0.13434593200E+03  0.13676610362E+03  0.00000000000E+00 0. -1.
</event>
<event>
 8    1  0.5951278E-006  0.1025910E+03  0.7561462E-02  0.1274940E+00
          3   -1    0    0  501    0  0.00000000000E+00  0.00000000000E+00  0.24767398547E+02  0.24767398547E+02  0.00000000000E+00 0. -1.
         -3   -1    0    0    0  501 -0.00000000000E+00 -0.00000000000E+00 -0.43676703011E+03  0.43676703011E+03  0.00000000000E+00 0.  1.
         23    2    1    2    0    0  0.39710766476E+02  0.16671941955E+01 -0.28009986465E+03  0.30932724204E+03  0.12509070299E+03 0.  0.
         23    2    1    2    0    0 -0.39710766476E+02 -0.16671941955E+01 -0.13189976691E+03  0.15220718662E+03  0.64728314035E+02 0.  0.
          5    1    3    3  502    0  0.63200958192E+02 -0.45215607321E+02 -0.18379306808E+03  0.19959002113E+03  0.41800000000E+01 0. -1.
         -5    1    3    3    0  502 -0.23490191717E+02  0.46882801516E+02 -0.96306796574E+02  0.10973722090E+03  0.41800000000E+01 0. -1.
        -11    1    4    4    0    0  0.16429758648E+02  0.71647830437E+01 -0.21121234007E+02  0.27701581386E+02  0.00000000000E+00 0.  1.
         11    1    4    4    0    0 -0.56140525124E+02 -0.88319772392E+01 -0.11077853290E+03  0.12450560524E+03  0.00000000000E+00 0. -1.
</event>
<event>
 8    1  0.5951278E-006  0.1222007E+03  0.7561462E-02  0.1239510E+00
         -2   -1    0    0    0  501 -0.00000000000E+00  0.00000000000E+00  0.10678460881E+04  0.10678460881E+04  0.00000000000E+00 0.  1.
          2   -1    0    0  501    0  0.00000000000E+00 -0.00000000000E+00 -0.19620820719E+02  0.19620820719E+02  0.00000000000E+00 0. -1.
         23    2    1    2    0    0 -0.39948088647E+02  0.55842533832E+02  0.81016574077E+03  0.82263666824E+03  0.12509325337E+03 0.  0.
         23    2    1    2    0    0  0.39948088647E+02 -0.55842533832E+02  0.23805952660E+03  0.26483024057E+03  0.93533308208E+02 0.  0.
          5    1    3    3  502    0  0.40654740006E+02  0.45637794075E+02  0.33433839563E+03  0.33990476802E+03  0.41800000000E+01 0. -1.
         -5    1    3    3    0  502 -0.80602828654E+02  0.10204739758E+02  0.47582734515E+03  0.48273190022E+03  0.41800000000E+01 0. -1.
        -11    1    4    4    0    0 -0.21195205506E+01 -0.59519484952E+02  0.19747805751E+03  0.20626353205E+03  0.00000000000E+00 0.  1.
         11    1    4    4    0    0  0.42067609198E+02  0.36769511201E+01  0.40581469086E+02  0.58566708516E+02  0.00000000000E+00 0. -1.
</event>
<event>
 8    1  0.5951278E-006  0.1049391E+03  0.7561462E-02  0.1270240E+00
          2   -1    0    0  501    0  0.00000000000E+00  0.00000000000E+00  0.13869317015E+03  0.13869317015E+03  0.00000000000E+00 0.  1.
         -2   -1    0    0    0  501 -0.00000000000E+00 -0.00000000000E+00 -0.23113384010E+03  0.23113384010E+03  0.00000000000E+00 0. -1.
         23    2    1    2    0    0 -0.96191558632E+01 -0.63483762959E+02 -0.17674629767E+03  0.22584629671E+03  0.12507829420E+03 0.  0.
         23    2    1    2    0    0  0.96191558632E+01  0.63483762959E+02  0.84305627725E+02  0.14398071354E+03  0.97469434621E+02 0.  0.
          5    1    3    3  502    0  0.13764895342E+02  0.97668359642E+01  0.12578054812E+02  0.21460272398E+02  0.41800000000E+01 0. -1.
         -5    1    3    3    0  502 -0.23384051205E+02 -0.73250598923E+02 -0.18932435248E+03  0.20438602432E+03  0.41800000000E+01 0. -1.
        -11    1    4    4    0    0  0.23469528169E+02  0.85947333631E+02  0.73362629097E+02  0.11541160366E+03  0.00000000000E+00 0.  1.
         11    1    4    4    0    0 -0.13850372306E+02 -0.22463570671E+02  0.10942998627E+02  0.28569109879E+02  0.00000000000E+00 0. -1.
</event>
<event>
 8    1  0.5951278E-006  0.9778331E+02  0.7561462E-02  0.1285028E+00
          3   -1    0    0  501    0  0.00000000000E+00  0.00000000000E+00  0.28315150275E+03  0.28315150275E+03  0.00000000000E+00 0. -1.
         -3   -1    0    0    0  501 -0.00000000000E+00 -0.00000000000E+00 -0.59152449923E+02  0.59152449923E+02  0.00000000000E+00 0.  1.
         23    2    1    2    0    0  0.20735985443E+02  0.11656664063E+02  0.37896958654E+02  0.13284868896E+03  0.12508691288E+03 0.  0.
         23    2    1    2    0    0 -0.20735985443E+02 -0.11656664063E+02  0.18610209418E+03  0.20945526372E+03  0.93121743616E+02 0.  0.
          5    1    3    3  502    0  0.52484189935E+02  0.42663595070E+02 -0.87503929947E+01  0.68328722474E+02  0.41800000000E+01 0. -1.
         -5    1    3    3    0  502 -0.31748204492E+02 -0.31006931008E+02  0.46647351649E+02  0.64519966482E+02  0.41800000000E+01 0. -1.
        -11    1    4    4    0    0  0.29501686181E+02  0.57534520234E+01  0.12451937574E+03  0.12809577133E+03  0.00000000000E+00 0.  1.
         11    1    4    4    0    0 -0.50237671624E+02 -0.17410116086E+02  0.61582718439E+02  0.81359492394E+02  0.00000000000E+00 0. -1.
</event>
<event>
 8    1  0.5951278E-006  0.1025700E+03  0.7561462E-02  0.1274983E+00
         -2   -1    0    0    0  501 -0.00000000000E+00  0.00000000000E+00  0.10848736224E+03  0.10848736224E+03  0.00000000000E+00 0.  1.
          2   -1    0    0  501    0  0.00000000000E+00 -0.00000000000E+00 -0.13109039539E+03  0.13109039539E+03  0.00000000000E+00 0. -1.
         23    2    1    2    0    0 -0.10478153713E+02 -0.22566387320E+01  0.27572432611E+02  0.12855082189E+03  0.12510072200E+03 0.  0.
         23    2    1    2    0    0  0.10478153713E+02  0.22566387320E+01 -0.50175465753E+02  0.11102693574E+03  0.98460748384E+02 0.  0.
          5    1    3    3  502    0  0.34515763202E+02 -0.36077108573E+02 -0.20767754600E+02  0.54237143209E+02  0.41800000000E+01 0. -1.
         -5    1    3    3    0  502 -0.44993916915E+02  0.33820469841E+02  0.48340187211E+02  0.74313678681E+02  0.41800000000E+01 0. -1.
        -11    1    4    4    0    0  0.44225203556E+02 -0.28763452758E+02 -0.21568142731E+02  0.56994645582E+02  0.00000000000E+00 0.  1.
         11    1    4    4    0    0 -0.33747049843E+02  0.31020091490E+02 -0.28607323022E+02  0.54032290157E+02  0.00000000000E+00 0. -1.
</event>
<event>
 8    1  0.5951278E-006  0.9922472E+02  0.7561462E-02  0.1281935E+00
          2   -1    0    0  501    0  0.00000000000E+00  0.00000000000E+00  0.35501309075E+03  0.35501309075E+03  0.00000000000E+00 0.  1.
         -2   -1    0    0    0  501 -0.00000000000E+00 -0.00000000000E+00 -0.50172421560E+02  0.50172421560E+02  0.00000000000E+00 0. -1.
         23    2    1    2    0    0 -0.55588081610E+02  0.28375030850E+02  0.96316726895E+02  0.16975982461E+03  0.12508520688E+03 0.  0.
         23    2    1    2    0    0  0.55588081610E+02 -0.28375030850E+02  0.20852394230E+03  0.23542568770E+03  0.89709769391E+02 0.  0.
          5    1    3    3  502    0  0.10243948979E+02  0.34745400661E+02  0.96849054405E+02  0.10348619762E+03  0.41800000000E+01 0.  1.
         -5    1    3    3    0  502 -0.65832030589E+02 -0.63703698114E+01 -0.53232750970E+00  0.66273626999E+02  0.41800000000E+01 0.  1.
        -11    1    4    4    0    0  0.68243471038E+02 -0.41348698567E+01  0.19119765516E+03  0.20305371660E+03  0.00000000000E+00 0.  1.
         11    1    4    4    0    0 -0.12655389428E+02 -0.24240160993E+02  0.17326287137E+02  0.32371971094E+02  0.00000000000E+00 0. -1.
</event>
<event>
 8    1  0.5951278E-006  0.7910169E+02  0.7561462E-02  0.1331620E+00
          2   -1    0    0  501    0  0.00000000000E+00  0.00000000000E+00  0.28657914039E+02  0.28657914039E+02  0.00000000000E+00 0. -1.
         -2   -1    0    0    0  501 -0.00000000000E+00 -0.00000000000E+00 -0.46508610618E+03  0.46508610618E+03  0.00000000000E+00 0.  1.
         23    2    1    2    0    0  0.27520400572E+02 -0.26287431913E+02 -0.35889628669E+03  0.38197236007E+03  0.12509171729E+03 0.  0.
         23    2    1    2    0    0 -0.27520400572E+02  0.26287431913E+02 -0.77531905452E+02  0.11177166015E+03  0.70945797092E+02 0.  0.
          5    1    3    3  502    0 -0.22069192630E+02 -0.25692963041E+01 -0.41719208960E+01  0.22989734031E+02  0.41800000000E+01 0.  1.
         -5    1    3    3    0  502  0.49589593202E+02 -0.23718135609E+02 -0.35472436579E+03  0.35898262604E+03  0.41800000000E+01 0.  1.
        -11    1    4    4    0    0 -0.42925941109E+02 -0.72746196495E+01 -0.43749477450E+02  0.61721740807E+02  0.00000000000E+00 0.  1.
         11    1    4    4    0    0  0.15405540537E+02  0.33562051563E+02 -0.33782428002E+02  0.50049919341E+02  0.00000000000E+00 0. -1.
</event>
<event>
 8    1  0.5951278E-006  0.1160647E+03  0.7561462E-02  0.1249734E+00
          1   -1    0    0  501    0  0.00000000000E+00  0.00000000000E+00  0.74510916521E+03  0.74510916521E+03  0.00000000000E+00 0. -1.
         -1   -1    0    0    0  501 -0.00000000000E+00 -0.00000000000E+00 -0.19594211155E+02  0.19594211155E+02  0.00000000000E+00 0.  1.
         23    2    1    2    0    0 -0.29939452235E+02  0.44411113229E+02  0.40950765773E+03  0.43152472453E+03  0.12509335858E+03 0.  0.
         23    2    1    2    0    0  0.29939452235E+02 -0.44411113229E+02  0.31600729633E+03  0.33317865184E+03  0.90987278959E+02 0.  0.
          5    1    3    3  502    0 -0.45058524996E+02 -0.28708263091E+02  0.10397476160E+03  0.11697289641E+03  0.41800000000E+01 0.  1.
         -5    1    3    3    0  502  0.15119072761E+02  0.73119376320E+02  0.30553289613E+03  0.31455182812E+03  0.41800000000E+01 0.  1.
        -11    1    4    4    0    0  0.19235905398E+02  0.26108132470E+02  0.72127316271E+02  0.79082263435E+02  0.00000000000E+00 0.  1.
         11    1    4    4    0    0  0.10703546837E+02 -0.70519245699E+02  0.24387998006E+03  0.25409638841E+03  0.00000000000E+00 0. -1.
</event>
<event>
 8    1  0.5951278E-006  0.2819594E+03  0.7561462E-02  0.1094624E+00
          1   -1    0    0  501    0  0.00000000000E+00  0.00000000000E+00  0.93380513688E+03  0.93380513688E+03  0.00000000000E+00 0. -1.
         -1   -1    0    0    0  501 -0.00000000000E+00 -0.00000000000E+00 -0.10084796065E+03  0.10084796065E+03  0.00000000000E+00 0.  1.
         23    2    1    2    0    0 -0.13819563158E+03 -0.24464606003E+03  0.52087567828E+03  0.60490359918E+03  0.12508862777E+03 0.  0.
         23    2    1    2    0    0  0.13819563158E+03  0.24464606003E+03  0.31208149795E+03  0.42974949835E+03  0.91323834185E+02 0.  0.
          5    1    3    3  502    0 -0.56466820980E+02 -0.12541313374E+03  0.13478285698E+03  0.19261580133E+03  0.41800000000E+01 0.  1.
         -5    1    3    3    0  502 -0.81728810603E+02 -0.11923292629E+03  0.38609282130E+03  0.41228779785E+03  0.41800000000E+01 0.  1.
        -11    1    4    4    0    0  0.11066878804E+03  0.17805892405E+03  0.16800282957E+03  0.26865872743E+03  0.00000000000E+00 0. -1.
         11    1    4    4    0    0  0.27526843542E+02  0.66587135985E+02  0.14407866838E+03  0.16109077092E+03  0.00000000000E+00 0.  1.
</event>
<event>
 8    1  0.5951278E-006  0.8243382E+02  0.7561462E-02  0.1322283E+00
         -1   -1    0    0    0  501 -0.00000000000E+00  0.00000000000E+00  0.67696424504E+02  0.67696424504E+02  0.00000000000E+00 0.  1.
          1   -1    0    0  501    0  0.00000000000E+00 -0.00000000000E+00 -0.21457181359E+03  0.21457181359E+03  0.00000000000E+00 0. -1.
         23    2    1    2    0    0  0.43845155209E+01  0.23456268840E+02 -0.25181774767E+02  0.12979431415E+03  0.12507206595E+03 0.  0.
         23    2    1    2    0    0 -0.43845155209E+01 -0.23456268840E+02 -0.12169361432E+03  0.15247392394E+03  0.88710434516E+02 0.  0.
          5    1    3    3  502    0  0.95551765890E+01 -0.23826574278E+02  0.40777668902E+02  0.48366287045E+02  0.41800000000E+01 0.  1.
         -5    1    3    3    0  502 -0.51706610681E+01  0.47282843118E+02 -0.65959443669E+02  0.81428027105E+02  0.41800000000E+01 0.  1.
        -11    1    4    4    0    0  0.11192067805E+02 -0.54895067280E+02 -0.84089333425E+02  0.10104329166E+03  0.00000000000E+00 0. -1.
         11    1    4    4    0    0 -0.15576583326E+02  0.31438798440E+02 -0.37604280890E+02  0.51430632280E+02  0.00000000000E+00 0.  1.
</event>
<event>
 8    1  0.5951278E-006  0.1264801E+03  0.7561462E-02  0.1232774E+00
         -2   -1    0    0    0  501 -0.00000000000E+00  0.00000000000E+00  0.62734431024E+03  0.62734431024E+03  0.00000000000E+00 0.  1.
          2   -1    0    0  501    0  0.00000000000E+00 -0.00000000000E+00 -0.31293801687E+02  0.31293801687E+02  0.00000000000E+00 0. -1.
         23    2    1    2    0    0 -0.64511702270E+02 -0.61345105863E+02  0.32671697398E+03  0.36099450516E+03  0.12509224567E+03 0.  0.
         23    2    1    2    0    0  0.64511702270E+02  0.61345105863E+02  0.26933353458E+03  0.29764360677E+03  0.90145338536E+02 0.  0.
          5    1    3    3  502    0  0.16626814819E+02  0.27822568348E+02  0.77902056486E+02  0.84479281988E+02  0.41800000000E+01 0.  1.
         -5    1    3    3    0  502 -0.81138517089E+02 -0.89167674211E+02  0.24881491749E+03  0.27651522317E+03  0.41800000000E+01 0.  1.
        -11    1    4    4    0    0  0.41436539154E+02  0.89424459663E+01  0.21350594393E+03  0.21767347613E+03  0.00000000000E+00 0.  1.
         11    1    4    4    0    0  0.23075163116E+02  0.52402659897E+02  0.55827590648E+02  0.79970130641E+02  0.00000000000E+00 0. -1.
</event>
<event>
 7    1  0.5951278E-006  0.1956795E+03  0.7561462E-02  0.1153436E+00
          1   -1    0    0  501    0  0.00000000000E+00  0.00000000000E+00  0.83671905027E+03  0.83671905027E+03  0.00000000000E+00 0. -1.
         -1   -1    0    0    0  501 -0.00000000000E+00 -0.00000000000E+00 -0.50733715050E+02  0.50733715050E+02  0.00000000000E+00 0.  1.
         23    2    1    2    0    0  0.29949580101E+02  0.13078231289E+02  0.31052453755E+03  0.32524521837E+03  0.91054632882E+02 0.  0.
          5    1    1    2  502    0 -0.21691065578E+02  0.14246327729E+03  0.23317226049E+03  0.27414059015E+03  0.41800000000E+01 0. -1.
         -5    1    1    2    0  502 -0.82585145234E+01 -0.15554150858E+03  0.24228853718E+03  0.28806695680E+03  0.41800000000E+01 0.  1.
        -11    1    3    3    0    0  0.52623175653E+02 -0.15535569288E+02  0.13066169195E+03  0.14171460853E+03  0.00000000000E+00 0.  1.
         11    1    3    3    0    0 -0.22673595552E+02  0.28613800577E+02  0.17986284560E+03  0.18353060984E+03  0.00000000000E+00 0. -1.
</event>
<event>
 8    1  0.5951278E-006  0.1080883E+03  0.7561462E-02  0.1264152E+00
         -1   -1    0    0    0  501 -0.00000000000E+00  0.00000000000E+00  0.64499469402E+02  0.64499469402E+02  0.00000000000E+00 0.  1.
          1   -1    0    0  501    0  0.00000000000E+00 -0.00000000000E+00 -0.23721001317E+03  0.23721001317E+03  0.00000000000E+00 0. -1.
         23    2    1    2    0    0  0.94882684200E+01  0.15058140100E+02 -0.27287004107E+02  0.12926439630E+03  0.12509168133E+03 0.  0.
         23    2    1    2    0    0 -0.94882684200E+01 -0.15058140100E+02 -0.14542353966E+03  0.17244508627E+03  0.90953433528E+02 0.  0.
          5    1    3    3  502    0 -0.37987210546E+02 -0.37466949873E+02 -0.70900792478E+00  0.53523598441E+02  0.41800000000E+01 0. -1.
         -5    1    3    3    0  502  0.47475478966E+02  0.52525089972E+02 -0.26577996182E+02  0.75740797862E+02  0.41800000000E+01 0. -1.
        -11    1    4    4    0    0 -0.36681945106E+02 -0.40395357636E+02 -0.74156725796E+02  0.92068289851E+02  0.00000000000E+00 0.  1.
         11    1    4    4    0    0  0.27193676686E+02  0.25337217537E+02 -0.71266813868E+02  0.80376796422E+02  0.00000000000E+00 0. -1.
</event>
<event>
 8    1  0.5951278E-006  0.1069803E+03  0.7561462E-02  0.1266266E+00
          2   -1    0    0  501    0  0.00000000000E+00  0.00000000000E+00  0.49545704585E+03  0.49545704585E+03  0.00000000000E+00 0. -1.
         -2   -1    0    0    0  501 -0.00000000000E+00 -0.00000000000E+00 -0.66304741952E+02  0.66304741952E+02  0.00000000000E+00 0.  1.
         23    2    1    2    0    0  0.21045778760E+02 -0.61821533867E+02  0.26412688999E+02  0.14355322374E+03  0.12508025845E+03 0.  0.
         23    2    1    2    0    0 -0.21045778760E+02  0.61821533867E+02  0.40273961490E+03  0.41820856406E+03  0.91838874076E+02 0.  0.
          5    1    3    3  502    0 -0.41768800255E+02 -0.32700273021E+02  0.47214868100E+02  0.71138292783E+02  0.41800000000E+01 0.  1.
         -5    1    3    3    0  502  0.62814579015E+02 -0.29121260845E+02 -0.20802179101E+02  0.72414930957E+02  0.41800000000E+01 0.  1.
        -11    1    4    4    0    0  0.94658028665E+01 -0.97462276205E+01  0.77739704517E+01  0.15653274205E+02  0.00000000000E+00 0.  1.
         11    1    4    4    0    0 -0.30511581626E+02  0.71567761487E+02  0.39496564445E+03  0.40255528986E+03  0.00000000000E+00 0. -1.
</event>
<event>
 8    1  0.5951278E-006  0.1466267E+03  0.7561462E-02  0.1204680E+00
         -1   -1    0    0    0  501 -0.00000000000E+00  0.00000000000E+00  0.26461345470E+02  0.26461345470E+02  0.00000000000E+00 0.  1.
          1   -1    0    0  501    0  0.00000000000E+00 -0.00000000000E+00 -0.10589205891E+04  0.10589205891E+04  0.00000000000E+00 0. -1.
         23    2    1    2    0    0 -0.11445486940E+03 -0.51381673601E+02 -0.58544215377E+03  0.61166094168E+03  0.12508636478E+03 0.  0.
         23    2    1    2    0    0  0.11445486940E+03  0.51381673601E+02 -0.44701708986E+03  0.47372099289E+03  0.94060124212E+02 0.  0.
          5    1    3    3  502    0 -0.75527379829E+02  0.33402745961E+01 -0.12363670304E+03  0.14497947881E+03  0.41800000000E+01 0. -1.
         -5    1    3    3    0  502 -0.38927489571E+02 -0.54721948197E+02 -0.46180545073E+03  0.46668146287E+03  0.41800000000E+01 0. -1.
        -11    1    4    4    0    0  0.68183413145E+02  0.72380476202E+02 -0.22550845656E+03  0.24645887110E+03  0.00000000000E+00 0.  1.
         11    1    4    4    0    0  0.46271456256E+02 -0.20998802602E+02 -0.22150863330E+03  0.22726212179E+03  0.00000000000E+00 0. -1.
</event>
<event>
 8    1  0.5951278E-006  0.1428019E+03  0.7561462E-02  0.1209608E+00
          2   -1    0    0  501    0  0.00000000000E+00  0.00000000000E+00  0.34617460280E+03  0.34617460280E+03  0.00000000000E+00 0. -1.
         -2   -1    0    0    0  501 -0.00000000000E+00 -0.00000000000E+00 -0.68607041592E+02  0.68607041592E+02  0.00000000000E+00 0.  1.
         23    2    1    2    0    0  0.10743887915E+03 -0.60194926413E+01  0.13251433926E+03  0.21162979378E+03  0.12509105668E+03 0.  0.
         23    2    1    2    0    0 -0.10743887915E+03  0.60194926413E+01  0.14505322195E+03  0.20315185061E+03  0.93010161617E+02 0.  0.
          5    1    3    3  502    0  0.41117425690E+02 -0.50332364893E+02  0.11135571727E+03  0.12900216208E+03  0.41800000000E+01 0. -1.
         -5    1    3    3    0  502  0.66321453463E+02  0.44312872252E+02  0.21158621986E+02  0.82627631704E+02  0.41800000000E+01 0. -1.
        -11    1    4    4    0    0 -0.39895382872E+02 -0.41849130345E+02  0.44852781197E+02  0.73176247965E+02  0.00000000000E+00 0. -1.
         11    1    4    4    0    0 -0.67543496281E+02  0.47868622987E+02  0.10020044075E+03  0.12997560265E+03  0.00000000000E+00 0.  1.
</event>
<event>
 8    1  0.5951278E-006  0.1294817E+03  0.7561462E-02  0.1228227E+00
         -3   -1    0    0    0  501 -0.00000000000E+00  0.00000000000E+00  0.86614678857E+03  0.86614678857E+03  0.00000000000E+00 0.  1.
          3   -1    0    0  501    0  0.00000000000E+00 -0.00000000000E+00 -0.23210488357E+02  0.23210488357E+02  0.00000000000E+00 0. -1.
         23    2    1    2    0    0  0.44720376569E+02 -0.74523756529E+02  0.54504395468E+03  0.56592783093E+03  0.12509074675E+03 0.  0.
         23    2    1    2    0    0 -0.44720376569E+02  0.74523756529E+02  0.29789234553E+03  0.32342944599E+03  0.91175954289E+02 0.  0.
          5    1    3    3  502    0  0.76481956235E+02 -0.86399734966E+02  0.37063040312E+03  0.38819939715E+03  0.41800000000E+01 0.  1.
         -5    1    3    3    0  502 -0.31761579666E+02  0.11875978437E+02  0.17441355156E+03  0.17772843378E+03  0.41800000000E+01 0.  1.
        -11    1    4    4    0    0 -0.50504529148E+02  0.19707987234E+02  0.22832100334E+03  0.23466911342E+03  0.00000000000E+00 0.  1.
         11    1    4    4    0    0  0.57841525792E+01  0.54815769295E+02  0.69571342186E+02  0.88760332570E+02  0.00000000000E+00 0. -1.
</event>
<event>
 8    1  0.5951278E-006  0.9103758E+02  0.7561462E-02  0.1300358E+00
         -1   -1    0    0    0  501 -0.00000000000E+00  0.00000000000E+00  0.24467231748E+02  0.24467231748E+02  0.00000000000E+00 0.  1.
          1   -1    0    0  501    0  0.00000000000E+00 -0.00000000000E+00 -0.51184977570E+03  0.51184977570E+03  0.00000000000E+00 0. -1.
         23    2    1    2    0    0 -0.24767934600E+02  0.30804629014E+02 -0.26432423579E+03  0.29508438058E+03  0.12508043126E+03 0.  0.
         23    2    1    2    0    0  0.24767934600E+02 -0.30804629014E+02 -0.22305830817E+03  0.24123262687E+03  0.82920417698E+02 0.  0.
          5    1    3    3  502    0 -0.91456308467E+01 -0.37538580791E+02 -0.18543390053E+03  0.18946237484E+03  0.41800000000E+01 0. -1.
         -5    1    3    3    0  502 -0.15622303754E+02  0.68343209805E+02 -0.78890335251E+02  0.10562200574E+03  0.41800000000E+01 0. -1.
        -11    1    4    4    0    0  0.45444698097E+02 -0.22362403671E+02 -0.20852165014E+03  0.21458465989E+03  0.00000000000E+00 0. -1.
         11    1    4    4    0    0 -0.20676763496E+02 -0.84422253428E+01 -0.14536658021E+02  0.26647966974E+02  0.00000000000E+00 0.  1.
</event>
<event>
 8    1  0.5951278E-006  0.1035824E+03  0.7561462E-02  0.1272938E+00
         -1   -1    0    0    0  501 -0.00000000000E+00  0.00000000000E+00  0.11625935694E+03  0.11625935694E+03  0.00000000000E+00 0.  1.
          1   -1    0    0  501    0  0.00000000000E+00 -0.00000000000E+00 -0.17825445909E+03  0.17825445909E+03  0.00000000000E+00 0. -1.
         23    2    1    2    0    0  0.48236601305E+02  0.18333957463E+01  0.51904720805E+02  0.14060163651E+03  0.12142729966E+03 0.  0.
         23    2    1    2    0    0 -0.48236601305E+02 -0.18333957463E+01 -0.11389982295E+03  0.15391217951E+03  0.91573240020E+02 0.  0.
          5    1    3    3  502    0  0.85130040880E+02  0.11744407940E+02  0.15027521989E+02  0.87340447648E+02  0.41800000000E+01 0.  1.
         -5    1    3    3    0  502 -0.36893439575E+02 -0.99110121935E+01  0.36877198816E+02  0.53261188861E+02  0.41800000000E+01 0. -1.
        -11    1    4    4    0    0 -0.41226990930E+01  0.28733806047E+02 -0.91078268995E+02  0.95592255653E+02  0.00000000000E+00 0.  1.
         11    1    4    4    0    0 -0.44113902212E+02 -0.30567201793E+02 -0.22821553960E+02  0.58319923860E+02  0.00000000000E+00 0. -1.
</event>
<event>
 8    1  0.5951278E-006  0.8864362E+02  0.7561462E-02  0.1306170E+00
          2   -1    0    0  501    0  0.00000000000E+00  0.00000000000E+00  0.57799452593E+02  0.57799452593E+02  0.00000000000E+00 0. -1.
         -2   -1    0    0    0  501 -0.00000000000E+00 -0.00000000000E+00 -0.22565625255E+03  0.22565625255E+03  0.00000000000E+00 0.  1.
         23    2    1    2    0    0  0.18092905402E+02 -0.83619377083E+01 -0.13667927637E+03  0.18634867834E+03  0.12508928853E+03 0.  0.
         23    2    1    2    0    0 -0.18092905402E+02  0.83619377083E+01 -0.31177523595E+02  0.97107026804E+02  0.89780072673E+02 0.  0.
          5    1    3    3  502    0 -0.41732483388E+02  0.14498873106E+02 -0.11763031973E+02  0.45909245390E+02  0.41800000000E+01 0.  1.
         -5    1    3    3    0  502  0.59825388790E+02 -0.22860810815E+02 -0.12491624439E+03  0.14043943295E+03  0.41800000000E+01 0.  1.
        -11    1    4    4    0    0 -0.40373433584E+02  0.18307486681E+02 -0.49607834314E+02  0.66529057060E+02  0.00000000000E+00 0.  1.
         11    1    4    4    0    0  0.22280528182E+02 -0.99455489731E+01  0.18430310719E+02  0.30577969744E+02  0.00000000000E+00 0. -1.
</event>
<event>
 7    1  0.5951278E-006  0.1289908E+03  0.7561462E-02  0.1228961E+00
          1   -1    0    0  501    0  0.00000000000E+00  0.00000000000E+00  0.52545561808E+03  0.52545561808E+03  0.00000000000E+00 0. -1.
         -1   -1    0    0    0  501 -0.00000000000E+00 -0.00000000000E+00 -0.34489278553E+02  0.34489278553E+02  0.00000000000E+00 0.  1.
         23    2    1    2    0    0  0.28777762823E+02 -0.19185284167E+01  0.20101584580E+03  0.23850911737E+03  0.12508952162E+03 0.  0.
          5    1    3    3  502    0  0.62447350449E+02 -0.35572914868E+02  0.76059688007E+02  0.10472656010E+03  0.41800000000E+01 0.  1.
         -5    1    3    3    0  502 -0.33669587625E+02  0.33654386452E+02  0.12495615780E+03  0.13378255727E+03  0.41800000000E+01 0.  1.
        -11    1    1    2    0    0 -0.43570550046E+02  0.62306576201E+02  0.14530117186E+03  0.16399064856E+03  0.00000000000E+00 0.  1.
         11    1    1    2    0    0  0.14792787223E+02 -0.60388047784E+02  0.14464932186E+03  0.15744513071E+03  0.00000000000E+00 0. -1.
</event>
<event>
 8    1  0.5951278E-006  0.1456199E+03  0.7561462E-02  0.1205961E+00
         -1   -1    0    0    0  501 -0.00000000000E+00  0.00000000000E+00  0.50809105833E+02  0.50809105833E+02  0.00000000000E+00 0.  1.
          1   -1    0    0  501    0  0.00000000000E+00 -0.00000000000E+00 -0.48186925785E+03  0.48186925785E+03  0.00000000000E+00 0. -1.
         23    2    1    2    0    0 -0.30856180445E+02 -0.10683357426E+03 -0.20438883859E+03  0.26417668036E+03  0.12509598172E+03 0.  0.
         23    2    1    2    0    0  0.30856180445E+02  0.10683357426E+03 -0.22667131343E+03  0.26850168332E+03  0.91366039402E+02 0.  0.
          5    1    3    3  502    0  0.57380765080E+00  0.24143075750E+02 -0.68693816851E+02  0.72935109759E+02  0.41800000000E+01 0. -1.
         -5    1    3    3    0  502 -0.31429988096E+02 -0.13097665001E+03 -0.13569502174E+03  0.19124157060E+03  0.41800000000E+01 0. -1.
        -11    1    4    4    0    0  0.53497633459E+02  0.63116136959E+02 -0.85441039748E+02  0.11893617954E+03  0.00000000000E+00 0.  1.
         11    1    4    4    0    0 -0.22641453014E+02  0.43717437305E+02 -0.14123027368E+03  0.14956550378E+03  0.00000000000E+00 0. -1.
</event>
<event>
 8    1  0.6022801E-006  0.2140246E+03  0.7561462E-02  0.1138418E+00
          2   -1    0    0  501    0  0.00000000000E+00  0.00000000000E+00  0.39267516854E+02  0.39267516854E+02  0.00000000000E+00 0. -1.
         -2   -1    0    0    0  501 -0.00000000000E+00 -0.00000000000E+00 -0.13838589454E+04  0.13838589454E+04  0.00000000000E+00 0.  1.
         23    2    1    2    0    0  0.16428675450E+03  0.11764336721E+03 -0.80516905426E+03  0.83950893761E+03  0.12509176963E+03 0.  0.
         23    2    1    2    0    0 -0.16428675450E+03 -0.11764336721E+03 -0.53942237428E+03  0.58361752464E+03  0.93823332111E+02 0.  0.
          5    1    3    3  502    0  0.23134341915E+01  0.40384208414E+02 -0.56448676874E+02  0.69571271282E+02  0.41800000000E+01 0.  1.
         -5    1    3    3    0  502  0.16197332030E+03  0.77259158792E+02 -0.74872037739E+03  0.76993766633E+03  0.41800000000E+01 0.  1.
        -11    1    4    4    0    0 -0.14572364448E+03 -0.80804540539E+02 -0.49808842611E+03  0.52522074841E+03  0.00000000000E+00 0.  1.
         11    1    4    4    0    0 -0.18563110013E+02 -0.36838826667E+02 -0.41333948168E+02  0.58396776236E+02  0.00000000000E+00 0. -1.
</event>
<event>
 8    1  0.5951278E-006  0.1319291E+03  0.7561462E-02  0.1224621E+00
          2   -1    0    0  501    0  0.00000000000E+00  0.00000000000E+00  0.46818662436E+03  0.46818662436E+03  0.00000000000E+00 0. -1.
         -2   -1    0    0    0  501 -0.00000000000E+00 -0.00000000000E+00 -0.42647216048E+02  0.42647216048E+02  0.00000000000E+00 0.  1.
         23    2    1    2    0    0 -0.24842087927E+02 -0.77770577706E+02  0.16207102867E+03  0.22040852531E+03  0.12508999803E+03 0.  0.
         23    2    1    2    0    0  0.24842087927E+02  0.77770577706E+02  0.26346837964E+03  0.29042531510E+03  0.90916909806E+02 0.  0.
          5    1    3    3  502    0 -0.69386416489E+02 -0.76292366483E+02  0.98593718747E+02  0.14273469709E+03  0.41800000000E+01 0.  1.
         -5    1    3    3    0  502  0.44544328562E+02 -0.14782112232E+01  0.63477309924E+02  0.77673828222E+02  0.41800000000E+01 0.  1.
        -11    1    4    4    0    0 -0.16499870075E+02  0.72325859633E+02  0.12054191569E+03  0.14154020320E+03  0.00000000000E+00 0.  1.
         11    1    4    4    0    0  0.41341958002E+02  0.54447180733E+01  0.14292646395E+03  0.14888511189E+03  0.00000000000E+00 0. -1.
</event>
<event>
 8    1  0.5951278E-006  0.1468714E+03  0.7561462E-02  0.1204371E+00
          3   -1    0    0  501    0  0.00000000000E+00  0.00000000000E+00  0.92410520892E+03  0.92410520892E+03  0.00000000000E+00 0. -1.
         -3   -1    0    0    0  501 -0.00000000000E+00 -0.00000000000E+00 -0.30378574463E+02  0.30378574463E+02  0.00000000000E+00 0.  1.
         23    2    1    2    0    0  0.88109894546E+02  0.46044400980E+02  0.24983918998E+03  0.29656501313E+03  0.12509095005E+03 0.  0.
         23    2    1    2    0    0 -0.88109894546E+02 -0.46044400980E+02  0.64388744448E+03  0.65791877026E+03  0.91556685811E+02 0.  0.
          5    1    3    3  502    0 -0.18030465960E+02  0.49537982752E+02  0.95655875088E+02  0.10930063255E+03  0.41800000000E+01 0. -1.
         -5    1    3    3    0  502  0.10614036051E+03 -0.34935817720E+01  0.15418331489E+03  0.18726438058E+03  0.41800000000E+01 0. -1.
        -11    1    4    4    0    0  0.13563401168E+02 -0.28282895284E+02  0.12591726001E+03  0.12976534354E+03  0.00000000000E+00 0.  1.
         11    1    4    4    0    0 -0.10167329571E+03 -0.17761505695E+02  0.51797018447E+03  0.52815342671E+03  0.00000000000E+00 0. -1.
</event>
<event>
 8    1  0.5951278E-006  0.8235478E+02  0.7561462E-02  0.1322499E+00
          2   -1    0    0  501    0  0.00000000000E+00  0.00000000000E+00  0.24538113429E+03  0.24538113429E+03  0.00000000000E+00 0. -1.
         -2   -1    0    0    0  501 -0.00000000000E+00 -0.00000000000E+00 -0.48856151667E+02  0.48856151667E+02  0.00000000000E+00 0.  1.
         23    2    1    2    0    0  0.48946874263E+01 -0.16454865569E+02  0.11304969734E+03  0.16948379729E+03  0.12509917230E+03 0.  0.
         23    2    1    2    0    0 -0.48946874263E+01  0.16454865569E+02  0.83475285289E+02  0.12475348867E+03  0.91107568929E+02 0.  0.
          5    1    3    3  502    0 -0.38294501345E+01 -0.64135138348E+02  0.10030373196E+03  0.11919014936E+03  0.41800000000E+01 0.  1.
         -5    1    3    3    0  502  0.87241375608E+01  0.47680272779E+02  0.12745965377E+02  0.50293647928E+02  0.41800000000E+01 0.  1.
        -11    1    4    4    0    0  0.33088917708E+01 -0.16952682030E+02 -0.13458375060E+02  0.21896804608E+02  0.00000000000E+00 0.  1.
         11    1    4    4    0    0 -0.82035791971E+01  0.33407547599E+02  0.96933660349E+02  0.10285668407E+03  0.00000000000E+00 0. -1.
</event>
<event>
 8    1  0.5951278E-006  0.1485005E+03  0.7561462E-02  0.1202328E+00
         -1   -1    0    0    0  501 -0.00000000000E+00  0.00000000000E+00  0.33301124796E+02  0.33301124796E+02  0.00000000000E+00 0.  1.
          1   -1    0    0  501    0  0.00000000000E+00 -0.00000000000E+00 -0.88670215620E+03  0.88670215620E+03  0.00000000000E+00 0. -1.
         23    2    1    2    0    0 -0.85707863153E+02  0.10517584000E+03 -0.44533227491E+03  0.48205358427E+03  0.12508808058E+03 0.  0.
         23    2    1    2    0    0  0.85707863153E+02 -0.10517584000E+03 -0.40806875650E+03  0.43794969673E+03  0.82897718371E+02 0.  0.
          5    1    3    3  502    0 -0.11841223282E+02  0.35180305054E+02 -0.31222139592E+03  0.31444799396E+03  0.41800000000E+01 0.  1.
         -5    1    3    3    0  502 -0.73866639871E+02  0.69995534948E+02 -0.13311087898E+03  0.16760559031E+03  0.41800000000E+01 0.  1.
        -11    1    4    4    0    0  0.19727905922E+02 -0.87213390091E+02 -0.20422861826E+03  0.22294549603E+03  0.00000000000E+00 0.  1.
         11    1    4    4    0    0  0.65979957231E+02 -0.17962449911E+02 -0.20384013823E+03  0.21500420070E+03  0.00000000000E+00 0. -1.
</event>
<event>
 8    1  0.5951278E-006  0.1786979E+03  0.7561462E-02  0.1169069E+00
         -1   -1    0    0    0  501 -0.00000000000E+00  0.00000000000E+00  0.97890917222E+02  0.97890917222E+02  0.00000000000E+00 0.  1.
          1   -1    0    0  501    0  0.00000000000E+00 -0.00000000000E+00 -0.41956351708E+03  0.41956351708E+03  0.00000000000E+00 0. -1.
         23    2    1    2    0    0 -0.15624807609E+03  0.26719472217E+02 -0.82424269540E+02  0.21810799107E+03  0.12509973653E+03 0.  0.
         23    2    1    2    0    0  0.15624807609E+03 -0.26719472217E+02 -0.23924833032E+03  0.29934644324E+03  0.85094876699E+02 0.  0.
          5    1    3    3  502    0 -0.15413738191E+03  0.56632240915E+02 -0.45683376357E+02  0.17049922724E+03  0.41800000000E+01 0.  1.
         -5    1    3    3    0  502 -0.21106941794E+01 -0.29912768698E+02 -0.36740893183E+02  0.47608763825E+02  0.41800000000E+01 0.  1.
        -11    1    4    4    0    0  0.11846597437E+03 -0.36249842406E+02 -0.11465330098E+03  0.16880052602E+03  0.00000000000E+00 0.  1.
         11    1    4    4    0    0  0.37782101720E+02  0.95303701892E+01 -0.12459502934E+03  0.13054591722E+03  0.00000000000E+00 0. -1.
</event>
<event>
 8    1  0.5951278E-006  0.6763898E+02  0.7561462E-02  0.1368311E+00
         -1   -1    0    0    0  501 -0.00000000000E+00  0.00000000000E+00  0.65702545359E+03  0.65702545359E+03  0.00000000000E+00 0.  1.
          1   -1    0    0  501    0  0.00000000000E+00 -0.00000000000E+00 -0.40744849349E+02  0.40744849349E+02  0.00000000000E+00 0. -1.
         23    2    1    2    0    0  0.24336773400E+02  0.49303615930E+01  0.58147930902E+03  0.59530012553E+03  0.12508983024E+03 0.  0.
         23    2    1    2    0    0 -0.24336773400E+02 -0.49303615930E+01  0.34801295221E+02  0.10247017741E+03  0.93125829419E+02 0.  0.
          5    1    3    3  502    0 -0.31664179051E+02 -0.75911875469E+01  0.44773895174E+02  0.55519550182E+02  0.41800000000E+01 0. -1.
         -5    1    3    3    0  502  0.56000952451E+02  0.12521549140E+02  0.53670541385E+03  0.53978057535E+03  0.41800000000E+01 0. -1.
        -11    1    4    4    0    0 -0.28952706827E+01 -0.19031665628E+02  0.62092543106E+02  0.65008236387E+02  0.00000000000E+00 0.  1.
         11    1    4    4    0    0 -0.21441502718E+02  0.14101304035E+02 -0.27291247885E+02  0.37461941025E+02  0.00000000000E+00 0. -1.
</event>
<event>
 7    1  0.5951278E-006  0.1292254E+03  0.7561462E-02  0.1228610E+00
          2   -1    0    0  501    0  0.00000000000E+00  0.00000000000E+00  0.11840062469E+03  0.11840062469E+03  0.00000000000E+00 0. -1.
         -2   -1    0    0    0  501 -0.00000000000E+00 -0.00000000000E+00 -0.65499683510E+03  0.65499683510E+03  0.00000000000E+00 0.  1.
         23    2    1    2    0    0 -0.27485996901E+02 -0.67176712031E+02  0.76547851699E+02  0.14117980678E+03  0.93829492044E+02 0.  0.
          5    1    1    2  502    0 -0.40826060934E+01 -0.40950632745E+02 -0.17084522459E+03  0.17578164056E+03  0.41800000000E+01 0. -1.
         -5    1    1    2    0  502  0.31568602994E+02  0.10812734478E+03 -0.44229883752E+03  0.45643601245E+03  0.41800000000E+01 0.  1.
        -11    1    3    3    0    0 -0.28296823363E+02  0.78261605560E+01 -0.56553201242E+01  0.29898856955E+02  0.00000000000E+00 0.  1.
         11    1    3    3    0    0  0.81082646234E+00 -0.75002872587E+02  0.82203171823E+02  0.11128094982E+03  0.00000000000E+00 0. -1.
</event>
<event>
 8    1  0.5951278E-006  0.6758995E+02  0.7561462E-02  0.1368486E+00
          1   -1    0    0  501    0  0.00000000000E+00  0.00000000000E+00  0.23223646899E+03  0.23223646899E+03  0.00000000000E+00 0. -1.
         -1   -1    0    0    0  501 -0.00000000000E+00 -0.00000000000E+00 -0.58187980028E+02  0.58187980028E+02  0.00000000000E+00 0.  1.
         23    2    1    2    0    0 -0.21520071664E+02  0.30910324021E+02  0.67435742519E+02  0.14701310698E+03  0.12508682040E+03 0.  0.
         23    2    1    2    0    0  0.21520071664E+02 -0.30910324021E+02  0.10661274644E+03  0.14341134204E+03  0.88215495839E+02 0.  0.
          5    1    3    3  502    0  0.10149615740E+02  0.80049360566E+01  0.96925556104E+02  0.97873027577E+02  0.41800000000E+01 0. -1.
         -5    1    3    3    0  502 -0.31669687404E+02  0.22905387965E+02 -0.29489813586E+02  0.49140079400E+02  0.41800000000E+01 0. -1.
        -11    1    4    4    0    0  0.44347046028E+02 -0.61143756839E+00  0.93129506367E+02  0.10315105091E+03  0.00000000000E+00 0. -1.
         11    1    4    4    0    0 -0.22826974365E+02 -0.30298886453E+02  0.13483240072E+02  0.40260291129E+02  0.00000000000E+00 0.  1.
</event>
<event>
 8    1  0.5951278E-006  0.1236086E+03  0.7561462E-02  0.1237260E+00
          2   -1    0    0  501    0  0.00000000000E+00  0.00000000000E+00  0.38271783759E+03  0.38271783759E+03  0.00000000000E+00 0.  1.
         -2   -1    0    0    0  501 -0.00000000000E+00 -0.00000000000E+00 -0.55187994548E+02  0.55187994548E+02  0.00000000000E+00 0. -1.
         23    2    1    2    0    0  0.78607861177E+02 -0.26718361484E+01  0.96248017290E+02  0.17634485102E+03  0.12508993206E+03 0.  0.
         23    2    1    2    0    0 -0.78607861177E+02  0.26718361484E+01  0.23128182575E+03  0.26156098112E+03  0.93469403407E+02 0.  0.
          5    1    3    3  502    0 -0.29194740576E+02 -0.20841706644E+02  0.11318518743E+02  0.37845619029E+02  0.41800000000E+01 0.  1.
         -5    1    3    3    0  502  0.10780260175E+03  0.18169870496E+02  0.84929498547E+02  0.13849923199E+03  0.41800000000E+01 0.  1.
        -11    1    4    4    0    0 -0.67332485831E+02  0.28807794182E+02  0.21833496636E+03  0.23029049088E+03  0.00000000000E+00 0.  1.
         11    1    4    4    0    0 -0.11275375346E+02 -0.26135958034E+02  0.12946859387E+02  0.31270490235E+02  0.00000000000E+00 0. -1.
</event>
<event>
 8    1  0.5951278E-006  0.6606000E+02  0.7561462E-02  0.1374028E+00
         -1   -1    0    0    0  501 -0.00000000000E+00  0.00000000000E+00  0.20440283168E+03  0.20440283168E+03  0.00000000000E+00 0.  1.
          1   -1    0    0  501    0  0.00000000000E+00 -0.00000000000E+00 -0.49247866348E+02  0.49247866348E+02  0.00000000000E+00 0. -1.
         23    2    1    2    0    0  0.26365858420E+02 -0.18541789579E+02  0.12604317141E+03  0.18046530495E+03  0.12506753689E+03 0.  0.
         23    2    1    2    0    0 -0.26365858420E+02  0.18541789579E+02  0.29111793928E+02  0.73185393077E+02  0.58903724526E+02 0.  0.
          5    1    3    3  502    0  0.54113978968E+02  0.69254389084E+01  0.65483072703E+01  0.55105690740E+02  0.41800000000E+01 0. -1.
         -5    1    3    3    0  502 -0.27748120548E+02 -0.25467228488E+02  0.11949486414E+03  0.12535961421E+03  0.41800000000E+01 0. -1.
        -11    1    4    4    0    0 -0.17854278871E+02 -0.13182834954E+01 -0.15458812854E+02  0.23653499535E+02  0.00000000000E+00 0. -1.
         11    1    4    4    0    0 -0.85115795492E+01  0.19860073075E+02  0.44570606782E+02  0.49531893542E+02  0.00000000000E+00 0.  1.
</event>
<event>
 8    1  0.5951278E-006  0.1162306E+03  0.7561462E-02  0.1249448E+00
         -2   -1    0    0    0  501 -0.00000000000E+00  0.00000000000E+00  0.73581476394E+02  0.73581476394E+02  0.00000000000E+00 0.  1.
          2   -1    0    0  501    0  0.00000000000E+00 -0.00000000000E+00 -0.27028587579E+03  0.27028587579E+03  0.00000000000E+00 0. -1.
         23    2    1    2    0    0 -0.78208839884E+02  0.44303504260E+02 -0.12847708805E+03  0.20057903550E+03  0.12508462816E+03 0.  0.
         23    2    1    2    0    0  0.78208839884E+02 -0.44303504260E+02 -0.68227311343E+02  0.14328831669E+03  0.88301486737E+02 0.  0.
          5    1    3    3  502    0  0.10592456066E+00  0.48228074653E+02 -0.10960397496E+03  0.11981845489E+03  0.41800000000E+01 0. -1.
         -5    1    3    3    0  502 -0.78314764445E+02 -0.39245703932E+01 -0.18873113095E+02  0.80760580612E+02  0.41800000000E+01 0. -1.
        -11    1    4    4    0    0  0.19183898938E+02 -0.42325217131E+02 -0.70211630283E+02  0.84196906182E+02  0.00000000000E+00 0. -1.
         11    1    4    4    0    0  0.59024940947E+02 -0.19782871287E+01  0.19843189401E+01  0.59091410504E+02  0.00000000000E+00 0.  1.
</event>
<event>
 8    1  0.5951278E-006  0.1596057E+03  0.7561462E-02  0.1189143E+00
          2   -1    0    0  501    0  0.00000000000E+00  0.00000000000E+00  0.41973294150E+03  0.41973294150E+03  0.00000000000E+00 0. -1.
         -2   -1    0    0    0  501 -0.00000000000E+00 -0.00000000000E+00 -0.71853293153E+02  0.71853293153E+02  0.00000000000E+00 0.  1.
         23    2    1    2    0    0  0.70765895620E+02 -0.10015712856E+03  0.10225988639E+03  0.20283983792E+03  0.12509057957E+03 0.  0.
         23    2    1    2    0    0 -0.70765895620E+02  0.10015712856E+03  0.24561976196E+03  0.28874639674E+03  0.89477101987E+02 0.  0.
          5    1    3    3  502    0 -0.31030264751E+02 -0.55802825692E+02  0.34579883214E+02  0.72732890832E+02  0.41800000000E+01 0. -1.
         -5    1    3    3    0  502  0.10179616037E+03 -0.44354302873E+02  0.67680003175E+02  0.13010694708E+03  0.41800000000E+01 0. -1.
        -11    1    4    4    0    0  0.49644798287E+01  0.56451459353E+02  0.14363759555E+03  0.15441234465E+03  0.00000000000E+00 0. -1.
         11    1    4    4    0    0 -0.75730375448E+02  0.43705669212E+02  0.10198216641E+03  0.13433405209E+03  0.00000000000E+00 0.  1.
</event>
<event>
 8    1  0.5951278E-006  0.1132609E+03  0.7561462E-02  0.1254648E+00
          3   -1    0    0  501    0  0.00000000000E+00  0.00000000000E+00  0.15180833213E+03  0.15180833213E+03  0.00000000000E+00 0. -1.
         -3   -1    0    0    0  501 -0.00000000000E+00 -0.00000000000E+00 -0.10359033182E+03  0.10359033182E+03  0.00000000000E+00 0.  1.
         23    2    1    2    0    0 -0.34436402899E+02 -0.63124553283E+02  0.67646650548E+01  0.14444898174E+03  0.12509665288E+03 0.  0.
         23    2    1    2    0    0  0.34436402899E+02  0.63124553283E+02  0.41453335259E+02  0.11094968220E+03  0.73626611395E+02 0.  0.
          5    1    3    3  502    0 -0.75727642458E+02 -0.37610188731E+02  0.30850624722E+02  0.90102361647E+02  0.41800000000E+01 0. -1.
         -5    1    3    3    0  502  0.41291239558E+02 -0.25514364552E+02 -0.24085959667E+02  0.54346620096E+02  0.41800000000E+01 0. -1.
        -11    1    4    4    0    0  0.34811690378E+02  0.74255444777E+02  0.16542132548E+02  0.83662219760E+02  0.00000000000E+00 0.  1.
         11    1    4    4    0    0 -0.37528747855E+00 -0.11130891494E+02  0.24911202711E+02  0.27287462444E+02  0.00000000000E+00 0. -1.
</event>
<event>
 8    1  0.5951278E-006  0.1275084E+03  0.7561462E-02  0.1231200E+00
         -1   -1    0    0    0  501 -0.00000000000E+00  0.00000000000E+00  0.36737492030E+02  0.36737492030E+02  0.00000000000E+00 0.  1.
          1   -1    0    0  501    0  0.00000000000E+00 -0.00000000000E+00 -0.46621819381E+03  0.46621819381E+03  0.00000000000E+00 0. -1.
         23    2    1    2    0    0  0.55633412486E+02  0.56490839656E+01 -0.27844770835E+03  0.31033453393E+03  0.12508959959E+03 0.  0.
         23    2    1    2    0    0 -0.55633412486E+02 -0.56490839656E+01 -0.15103299343E+03  0.19262115191E+03  0.10566434747E+03 0.  0.
          5    1    3    3  502    0  0.82919410003E+02  0.39753046762E+02 -0.16947380264E+03  0.19285947076E+03  0.41800000000E+01 0. -1.
         -5    1    3    3    0  502 -0.27285997517E+02 -0.34103962797E+02 -0.10897390571E+03  0.11747506316E+03  0.41800000000E+01 0. -1.
        -11    1    4    4    0    0  0.27701823312E+02  0.17290469310E+02 -0.34145003588E+02  0.47246509012E+02  0.00000000000E+00 0. -1.
         11    1    4    4    0    0 -0.83335235797E+02 -0.22939553276E+02 -0.11688798984E+03  0.14537464290E+03  0.00000000000E+00 0.  1.
</event>
<event>
 8    1  0.5951278E-006  0.1013652E+03  0.7561462E-02  0.1277451E+00
         -1   -1    0    0    0  501 -0.00000000000E+00  0.00000000000E+00  0.14648800325E+03  0.14648800325E+03  0.00000000000E+00 0.  1.
          1   -1    0    0  501    0  0.00000000000E+00 -0.00000000000E+00 -0.13153390612E+03  0.13153390612E+03  0.00000000000E+00 0. -1.
         23    2    1    2    0    0 -0.26194957090E+02 -0.69862284465E+02  0.50911087237E+02  0.15429601079E+03  0.12509358726E+03 0.  0.
         23    2    1    2    0    0  0.26194957090E+02  0.69862284465E+02 -0.35956990104E+02  0.12372589858E+03  0.91914516120E+02 0.  0.
          5    1    3    3  502    0 -0.41611357827E+02 -0.58241976273E+02  0.87252079268E+02  0.11293374446E+03  0.41800000000E+01 0. -1.
         -5    1    3    3    0  502  0.15416400737E+02 -0.11620308192E+02 -0.36340992032E+02  0.41362266331E+02  0.41800000000E+01 0. -1.
        -11    1    4    4    0    0 -0.18789403424E+02 -0.87315208920E+01 -0.25059476008E+02  0.32515511312E+02  0.00000000000E+00 0. -1.
         11    1    4    4    0    0  0.44984360514E+02  0.78593805357E+02 -0.10897514097E+02  0.91210387264E+02  0.00000000000E+00 0.  1.
</event>
<event>
 8    1  0.5951278E-006  0.1215481E+03  0.7561462E-02  0.1240565E+00
         -3   -1    0    0    0  501 -0.00000000000E+00  0.00000000000E+00  0.64693757280E+03  0.64693757280E+03  0.00000000000E+00 0. -1.
          3   -1    0    0  501    0  0.00000000000E+00 -0.00000000000E+00 -0.32508177904E+02  0.32508177904E+02  0.00000000000E+00 0.  1.
         23    2    1    2    0    0  0.71867757721E+02 -0.36713592362E+02  0.45107610754E+03  0.47500654972E+03  0.12509478416E+03 0.  0.
         23    2    1    2    0    0 -0.71867757721E+02  0.36713592362E+02  0.16335328736E+03  0.20443920098E+03  0.92726630175E+02 0.  0.
          5    1    3    3  502    0 -0.22257811224E+02 -0.15126642840E+02  0.21522542422E+02  0.34711924700E+02  0.41800000000E+01 0. -1.
         -5    1    3    3    0  502  0.94125568945E+02 -0.21586949522E+02  0.42955356511E+03  0.44029462502E+03  0.41800000000E+01 0. -1.
        -11    1    4    4    0    0 -0.92348567456E+02  0.25279709855E+02  0.10805500874E+03  0.14437176509E+03  0.00000000000E+00 0.  1.
         11    1    4    4    0    0  0.20480809735E+02  0.11433882507E+02  0.55298278612E+02  0.60067435887E+02  0.00000000000E+00 0. -1.
</event>
<event>
 8    1  0.5951278E-006  0.1795910E+03  0.7561462E-02  0.1168199E+00
          2   -1    0    0  501    0  0.00000000000E+00  0.00000000000E+00  0.13312033009E+04  0.13312033009E+04  0.00000000000E+00 0. -1.
         -2   -1    0    0    0  501 -0.00000000000E+00 -0.00000000000E+00 -0.35252211269E+02  0.35252211269E+02  0.00000000000E+00 0.  1.
         23    2    1    2    0    0  0.11403785497E+03  0.13348907647E+03  0.87782185925E+03  0.90390432288E+03  0.12509133641E+03 0.  0.
         23    2    1    2    0    0 -0.11403785497E+03 -0.13348907647E+03  0.41812923033E+03  0.46255118924E+03  0.91091072580E+02 0.  0.
          5    1    3    3  502    0  0.68666330907E+02  0.10973986439E+03  0.80150510518E+03  0.81190258582E+03  0.41800000000E+01 0. -1.
         -5    1    3    3    0  502  0.45371524061E+02  0.23749212081E+02  0.76316754071E+02  0.92001737060E+02  0.41800000000E+01 0. -1.
        -11    1    4    4    0    0 -0.54682167916E+02 -0.40843394010E+02  0.26716381365E+03  0.27574413076E+03  0.00000000000E+00 0. -1.
         11    1    4    4    0    0 -0.59355687052E+02 -0.92645682464E+02  0.15096541668E+03  0.18680705848E+03  0.00000000000E+00 0.  1.
</event>
<event>
 8    1  0.5951278E-006  0.9136790E+02  0.7561462E-02  0.1299573E+00
         -2   -1    0    0    0  501 -0.00000000000E+00  0.00000000000E+00  0.92387805648E+02  0.92387805648E+02  0.00000000000E+00 0.  1.
          2   -1    0    0  501    0  0.00000000000E+00 -0.00000000000E+00 -0.13402052112E+03  0.13402052112E+03  0.00000000000E+00 0. -1.
         23    2    1    2    0    0 -0.15610897926E+02  0.19987271710E+02 -0.12436672720E+02  0.12823537439E+03  0.12508576758E+03 0.  0.
         23    2    1    2    0    0  0.15610897926E+02 -0.19987271710E+02 -0.29196042748E+02  0.98172952375E+02  0.90234851922E+02 0.  0.
          5    1    3    3  502    0 -0.65174108079E+02  0.10102358332E+02  0.18760171614E+02  0.68695985666E+02  0.41800000000E+01 0. -1.
         -5    1    3    3    0  502  0.49563210153E+02  0.98849133786E+01 -0.31196844334E+02  0.59539388723E+02  0.41800000000E+01 0. -1.
        -11    1    4    4    0    0 -0.13629251469E+02 -0.31649294875E+02  0.19943818279E+02  0.39814447745E+02  0.00000000000E+00 0.  1.
         11    1    4    4    0    0  0.29240149395E+02  0.11662023164E+02 -0.49139861027E+02  0.58358504630E+02  0.00000000000E+00 0. -1.
</event>
<event>
 8    1  0.5951278E-006  0.1089096E+03  0.7561462E-02  0.1262603E+00
          3   -1    0    0  501    0  0.00000000000E+00  0.00000000000E+00  0.35646150476E+03  0.35646150476E+03  0.00000000000E+00 0. -1.
         -3   -1    0    0    0  501 -0.00000000000E+00 -0.00000000000E+00 -0.46109819597E+02  0.46109819597E+02  0.00000000000E+00 0.  1.
         23    2    1    2    0    0  0.16581327564E+02  0.36938929402E+02  0.84930518533E+02  0.15652638234E+03  0.12509152834E+03 0.  0.
         23    2    1    2    0    0 -0.16581327564E+02 -0.36938929402E+02  0.22542116663E+03  0.24604494202E+03  0.89910990411E+02 0.  0.
          5    1    3    3  502    0 -0.26401898817E+02 -0.31668095334E+02  0.57634269720E+02  0.70986688677E+02  0.41800000000E+01 0. -1.
         -5    1    3    3    0  502  0.42983226381E+02  0.68607024736E+02  0.27296248813E+02  0.85539693666E+02  0.41800000000E+01 0. -1.
        -11    1    4    4    0    0  0.35639723807E+02 -0.15020226575E+02  0.61849688521E+02  0.72946426160E+02  0.00000000000E+00 0.  1.
         11    1    4    4    0    0 -0.52221051371E+02 -0.21918702827E+02  0.16357147811E+03  0.17309851586E+03  0.00000000000E+00 0. -1.
</event>
<event>
 6    1  0.5951278E-006  0.1456158E+03  0.7561462E-02  0.1205966E+00
         -2   -1    0    0    0  501 -0.00000000000E+00  0.00000000000E+00  0.28080447327E+02  0.28080447327E+02  0.00000000000E+00 0. -1.
          2   -1    0    0  501    0  0.00000000000E+00 -0.00000000000E+00 -0.87668821274E+03  0.87668821274E+03  0.00000000000E+00 0.  1.
          5    1    1    2  502    0  0.34469706017E+01  0.62030136684E+02 -0.10438890814E+03  0.12154890376E+03  0.41800000000E+01 0. -1.
         -5    1    1    2    0  502  0.74161063618E+01 -0.74348868454E+02 -0.14687289408E+03  0.16483892832E+03  0.41800000000E+01 0.  1.
        -11    1    1    2    0    0  0.32822362507E+02  0.72605622141E+02 -0.39044450166E+03  0.39849189794E+03  0.00000000000E+00 0. -1.
         11    1    1    2    0    0 -0.43685439470E+02 -0.60286890371E+02 -0.20690146154E+03  0.21988893005E+03  0.00000000000E+00 0.  1.
</event>
<event>
 8    1  0.5951278E-006  0.1682308E+03  0.7561462E-02  0.1179706E+00
         -2   -1    0    0    0  501 -0.00000000000E+00  0.00000000000E+00  0.12305330509E+03  0.12305330509E+03  0.00000000000E+00 0.  1.
          2   -1    0    0  501    0  0.00000000000E+00 -0.00000000000E+00 -0.26416732938E+03  0.26416732938E+03  0.00000000000E+00 0. -1.
         23    2    1    2    0    0 -0.13245843313E+03 -0.34184355240E+02 -0.21631136452E+02  0.18662563034E+03  0.12508962060E+03 0.  0.
         23    2    1    2    0    0  0.13245843313E+03  0.34184355240E+02 -0.11948288784E+03  0.20059500414E+03  0.85137468528E+02 0.  0.
          5    1    3    3  502    0 -0.83649912030E+01  0.32917968361E+02 -0.29626509924E+02  0.45263320792E+02  0.41800000000E+01 0. -1.
         -5    1    3    3    0  502 -0.12409344193E+03 -0.67102323601E+02  0.79953734722E+01  0.14136230954E+03  0.41800000000E+01 0. -1.
        -11    1    4    4    0    0  0.84358591421E+02 -0.21964112249E+02 -0.62968513608E+02  0.10753524017E+03  0.00000000000E+00 0.  1.
         11    1    4    4    0    0  0.48099841712E+02  0.56148467489E+02 -0.56514374230E+02  0.93059763962E+02  0.00000000000E+00 0. -1.
</event>
<event>
 8    1  0.5951278E-006  0.1103576E+03  0.7561462E-02  0.1259909E+00
          2   -1    0    0  501    0  0.00000000000E+00  0.00000000000E+00  0.16814055452E+03  0.16814055452E+03  0.00000000000E+00 0. -1.
         -2   -1    0    0    0  501 -0.00000000000E+00 -0.00000000000E+00 -0.98251072753E+02  0.98251072753E+02  0.00000000000E+00 0.  1.
         23    2    1    2    0    0 -0.18561067348E+02 -0.46797182664E+02 -0.89303564287E+01  0.13513734094E+03  0.12509140707E+03 0.  0.
         23    2    1    2    0    0  0.18561067348E+02  0.46797182664E+02  0.78819838200E+02  0.13125428634E+03  0.92090342937E+02 0.  0.
          5    1    3    3  502    0  0.34308794330E+02 -0.61453285048E+02 -0.29455052208E+02  0.76411204101E+02  0.41800000000E+01 0. -1.
         -5    1    3    3    0  502 -0.52869861678E+02  0.14656102385E+02  0.20524695780E+02  0.58726136837E+02  0.41800000000E+01 0. -1.
        -11    1    4    4    0    0  0.91914691683E+01  0.69771997793E+02  0.30022634196E+02  0.76511262867E+02  0.00000000000E+00 0.  1.
         11    1    4    4    0    0  0.93695981802E+01 -0.22974815129E+02  0.48797204004E+02  0.54743023472E+02  0.00000000000E+00 0. -1.
</event>
<event>
 8    1  0.5951278E-006  0.1294361E+03  0.7561462E-02  0.1228295E+00
         -3   -1    0    0    0  501 -0.00000000000E+00  0.00000000000E+00  0.44636378661E+02  0.44636378661E+02  0.00000000000E+00 0.  1.
          3   -1    0    0  501    0  0.00000000000E+00 -0.00000000000E+00 -0.41722331010E+03  0.41722331010E+03  0.00000000000E+00 0. -1.
         23    2    1    2    0    0 -0.80525935404E+02  0.13531249451E+01 -0.22654307186E+03  0.27102613660E+03  0.12508855300E+03 0.  0.
         23    2    1    2    0    0  0.80525935404E+02 -0.13531249451E+01 -0.14604385958E+03  0.19083355216E+03  0.92749008027E+02 0.  0.
          5    1    3    3  502    0 -0.25944594538E+02 -0.59344239666E+02 -0.77912730367E+02  0.10140378060E+03  0.41800000000E+01 0. -1.
         -5    1    3    3    0  502 -0.54581340866E+02  0.60697364611E+02 -0.14863034149E+03  0.16962235599E+03  0.41800000000E+01 0. -1.
        -11    1    4    4    0    0  0.55750525454E+02 -0.38378870278E+02 -0.12367168287E+03  0.14098136017E+03  0.00000000000E+00 0.  1.
         11    1    4    4    0    0  0.24775409951E+02  0.37025745333E+02 -0.22372176716E+02  0.49852191995E+02  0.00000000000E+00 0. -1.
</event>
<event>
 8    1  0.5951278E-006  0.1169753E+03  0.7561462E-02  0.1248172E+00
          4   -1    0    0  501    0  0.00000000000E+00  0.00000000000E+00  0.39687136640E+02  0.39687136640E+02  0.00000000000E+00 0.  1.
         -4   -1    0    0    0  501 -0.00000000000E+00 -0.00000000000E+00 -0.94026821876E+03  0.94026821876E+03  0.00000000000E+00 0. -1.
         23    2    1    2    0    0  0.75732970615E+02  0.26031362002E+02 -0.82360572769E+03  0.83689105679E+03  0.12508849512E+03 0.  0.
         23    2    1    2    0    0 -0.75732970615E+02 -0.26031362002E+02 -0.76975354434E+02  0.14306429861E+03  0.90161375881E+02 0.  0.
          5    1    3    3  502    0  0.10997961605E+03  0.16217008074E+02 -0.66837241373E+03  0.67756746021E+03  0.41800000000E+01 0.  1.
         -5    1    3    3    0  502 -0.34246645431E+02  0.98143539282E+01 -0.15523331396E+03  0.15932359658E+03  0.41800000000E+01 0.  1.
        -11    1    4    4    0    0 -0.69083108056E+02 -0.10419518717E+02 -0.60372318113E+01  0.70124819835E+02  0.00000000000E+00 0.  1.
         11    1    4    4    0    0 -0.66498625593E+01 -0.15611843285E+02 -0.70938122622E+02  0.72939478775E+02  0.00000000000E+00 0. -1.
</event>
<event>
 8    1  0.5951278E-006  0.1265794E+03  0.7561462E-02  0.1232621E+00
         -4   -1    0    0    0  501 -0.00000000000E+00  0.00000000000E+00  0.80458048540E+02  0.80458048540E+02  0.00000000000E+00 0.  1.
          4   -1    0    0  501    0  0.00000000000E+00 -0.00000000000E+00 -0.34964715684E+03  0.34964715684E+03  0.00000000000E+00 0. -1.
         23    2    1    2    0    0 -0.65166427151E+02  0.10696062015E+03 -0.13782932004E+03  0.22434672550E+03  0.12508914538E+03 0.  0.
         23    2    1    2    0    0  0.65166427151E+02 -0.10696062015E+03 -0.13135978826E+03  0.20575847988E+03  0.96922239857E+02 0.  0.
          5    1    3    3  502    0 -0.68325287838E+01  0.30291566603E+02  0.21577164101E+02  0.38043512818E+02  0.41800000000E+01 0.  1.
         -5    1    3    3    0  502 -0.58333898367E+02  0.76669053548E+02 -0.15940648414E+03  0.18630321269E+03  0.41800000000E+01 0.  1.
        -11    1    4    4    0    0  0.48343382296E+02 -0.73993729215E+02 -0.14198881933E+03  0.16725124630E+03  0.00000000000E+00 0. -1.
         11    1    4    4    0    0  0.16823044855E+02 -0.32966890936E+02  0.10629031069E+02  0.38507233576E+02  0.00000000000E+00 0.  1.
</event>
<event>
 8    1  0.5951278E-006  0.1065929E+03  0.7561462E-02  0.1267013E+00
          2   -1    0    0  501    0  0.00000000000E+00  0.00000000000E+00  0.32398451583E+03  0.32398451583E+03  0.00000000000E+00 0. -1.
         -2   -1    0    0    0  501 -0.00000000000E+00 -0.00000000000E+00 -0.87447208204E+02  0.87447208204E+02  0.00000000000E+00 0.  1.
         23    2    1    2    0    0  0.55768472263E+02 -0.83444468969E+02  0.27239830382E+02  0.16267296373E+03  0.12508949944E+03 0.  0.
         23    2    1    2    0    0 -0.55768472263E+02  0.83444468969E+02  0.20929747724E+03  0.24875876030E+03  0.89456050359E+02 0.  0.
          5    1    3    3  502    0 -0.84182286414E+00 -0.61788701711E+01 -0.43108164486E+02  0.43756980560E+02  0.41800000000E+01 0. -1.
         -5    1    3    3    0  502  0.56610295127E+02 -0.77265598798E+02  0.70347994868E+02  0.11891598317E+03  0.41800000000E+01 0. -1.
        -11    1    4    4    0    0 -0.16040737377E+01  0.40889460813E+02  0.16670327439E+02  0.44186206842E+02  0.00000000000E+00 0.  1.
         11    1    4    4    0    0 -0.54164398525E+02  0.42555008156E+02  0.19262714981E+03  0.20457255346E+03  0.00000000000E+00 0. -1.
</event>
<event>
 8    1  0.5951278E-006  0.1017967E+03  0.7561462E-02  0.1276562E+00
          2   -1    0    0  501    0  0.00000000000E+00  0.00000000000E+00  0.23857969747E+03  0.23857969747E+03  0.00000000000E+00 0. -1.
         -2   -1    0    0    0  501 -0.00000000000E+00 -0.00000000000E+00 -0.77051182391E+02  0.77051182391E+02  0.00000000000E+00 0.  1.
         23    2    1    2    0    0 -0.36453401633E+02 -0.51024619122E+02  0.29037613461E+02  0.14291174112E+03  0.12509284755E+03 0.  0.
         23    2    1    2    0    0  0.36453401633E+02  0.51024619122E+02  0.13249090162E+03  0.17271913874E+03  0.91354800793E+02 0.  0.
          5    1    3    3  502    0  0.32452376154E+02 -0.44206374195E+02  0.45771892293E+02  0.71553467851E+02  0.41800000000E+01 0. -1.
         -5    1    3    3    0  502 -0.68905777786E+02 -0.68182449265E+01 -0.16734278831E+02  0.71358273271E+02  0.41800000000E+01 0. -1.
        -11    1    4    4    0    0  0.18834396689E+02  0.57460871972E+02  0.14001037543E+03  0.15251029977E+03  0.00000000000E+00 0. -1.
         11    1    4    4    0    0  0.17619004944E+02 -0.64362528502E+01 -0.75194738176E+01  0.20208838968E+02  0.00000000000E+00 0.  1.
</event>
<event>
 8    1  0.5951278E-006  0.1072601E+03  0.7561462E-02  0.1265729E+00
         -1   -1    0    0    0  501 -0.00000000000E+00  0.00000000000E+00  0.24708428670E+02  0.24708428670E+02  0.00000000000E+00 0.  1.
          1   -1    0    0  501    0  0.00000000000E+00 -0.00000000000E+00 -0.65601068966E+03  0.65601068966E+03  0.00000000000E+00 0. -1.
         23    2    1    2    0    0 -0.37693849982E+01 -0.46106681162E+02 -0.22482408737E+03  0.26140750504E+03  0.12509188270E+03 0.  0.
         23    2    1    2    0    0  0.37693849982E+01  0.46106681162E+02 -0.40647817362E+03  0.41931161329E+03  0.91965695244E+02 0.  0.
          5    1    3    3  502    0 -0.52776054650E+02 -0.22640834218E+02 -0.18543033573E+03  0.19416436627E+03  0.41800000000E+01 0. -1.
         -5    1    3    3    0  502  0.49006669652E+02 -0.23465846944E+02 -0.39393751634E+02  0.67243138766E+02  0.41800000000E+01 0. -1.
        -11    1    4    4    0    0 -0.43725022342E+02  0.25990735560E+02 -0.18120134687E+03  0.18820553664E+03  0.00000000000E+00 0.  1.
         11    1    4    4    0    0  0.47494407340E+02  0.20115945602E+02 -0.22527682675E+03  0.23110607665E+03  0.00000000000E+00 0. -1.
</event>
<event>
 8    1  0.5951278E-006  0.1347450E+03  0.7561462E-02  0.1220580E+00
          2   -1    0    0  501    0  0.00000000000E+00  0.00000000000E+00  0.30839474161E+03  0.30839474161E+03  0.00000000000E+00 0. -1.
         -2   -1    0    0    0  501 -0.00000000000E+00 -0.00000000000E+00 -0.76112146802E+02  0.76112146802E+02  0.00000000000E+00 0.  1.
         23    2    1    2    0    0 -0.18359129723E+02 -0.80126502157E+02  0.36340769043E+02  0.15403154461E+03  0.12509097189E+03 0.  0.
         23    2    1    2    0    0  0.18359129723E+02  0.80126502157E+02  0.19594182576E+03  0.23047534380E+03  0.89265732638E+02 0.  0.
          5    1    3    3  502    0  0.49639711574E+02 -0.98983092059E+01  0.38512704711E+01  0.50935078036E+02  0.41800000000E+01 0.  1.
         -5    1    3    3    0  502 -0.67998841297E+02 -0.70228192951E+02  0.32489498572E+02  0.10309646658E+03  0.41800000000E+01 0.  1.
        -11    1    4    4    0    0  0.19077455372E+02  0.99579864215E+02  0.15619639350E+03  0.18621872088E+03  0.00000000000E+00 0.  1.
         11    1    4    4    0    0 -0.71832564942E+00 -0.19453362058E+02  0.39745432258E+02  0.44256622922E+02  0.00000000000E+00 0. -1.
</event>
<event>
 8    1  0.5951278E-006  0.1222723E+03  0.7561462E-02  0.1239395E+00
          1   -1    0    0  501    0  0.00000000000E+00  0.00000000000E+00  0.13999368538E+03  0.13999368538E+03  0.00000000000E+00 0. -1.
         -1   -1    0    0    0  501 -0.00000000000E+00 -0.00000000000E+00 -0.17510120016E+03  0.17510120016E+03  0.00000000000E+00 0.  1.
         23    2    1    2    0    0 -0.97377859738E+02  0.50834832240E+02 -0.35178157595E+02  0.17015323860E+03  0.12509194257E+03 0.  0.
         23    2    1    2    0    0  0.97377859738E+02 -0.50834832240E+02  0.70642815255E-01  0.14494164694E+03  0.94559231654E+02 0.  0.
          5    1    3    3  502    0 -0.68495945063E+02  0.32848957011E+02 -0.82172491060E+02  0.11198454873E+03  0.41800000000E+01 0. -1.
         -5    1    3    3    0  502 -0.28881914675E+02  0.17985875229E+02  0.46994333466E+02  0.58168689868E+02  0.41800000000E+01 0. -1.
        -11    1    4    4    0    0 -0.94142269667E+01 -0.21446966678E+02 -0.21849851869E+02  0.32031485694E+02  0.00000000000E+00 0.  1.
         11    1    4    4    0    0  0.10679208670E+03 -0.29387865562E+02  0.21920494685E+02  0.11291016124E+03  0.00000000000E+00 0. -1.
</event>
<event>
 7    1  0.5951278E-006  0.9139987E+02  0.7561462E-02  0.1299497E+00
         -1   -1    0    0    0  501 -0.00000000000E+00  0.00000000000E+00  0.82772314505E+03  0.82772314505E+03  0.00000000000E+00 0.  1.
          1   -1    0    0  501    0  0.00000000000E+00 -0.00000000000E+00 -0.25446105495E+02  0.25446105495E+02  0.00000000000E+00 0. -1.
         23    2    1    2    0    0 -0.14925643878E+02 -0.45232568819E+02  0.20650907625E+03  0.23167422539E+03  0.93585191177E+02 0.  0.
          5    1    1    2  502    0 -0.29677132469E+02  0.40566541681E+02  0.41266381651E+02  0.65167193818E+02  0.41800000000E+01 0. -1.
         -5    1    1    2    0  502  0.44602776347E+02  0.46660271378E+01  0.55450158165E+03  0.55632783134E+03  0.41800000000E+01 0.  1.
        -11    1    3    3    0    0 -0.36368427794E+02 -0.53203772836E+02  0.78162727933E+02  0.10130506415E+03  0.00000000000E+00 0. -1.
         11    1    3    3    0    0  0.21442783916E+02  0.79712040168E+01  0.12834634832E+03  0.13036916124E+03  0.00000000000E+00 0.  1.
</event>
<event>
 8    1  0.5951278E-006  0.1185238E+03  0.7561462E-02  0.1245552E+00
          1   -1    0    0  501    0  0.00000000000E+00  0.00000000000E+00  0.55802216018E+03  0.55802216018E+03  0.00000000000E+00 0. -1.
         -1   -1    0    0    0  501 -0.00000000000E+00 -0.00000000000E+00 -0.32493665632E+02  0.32493665632E+02  0.00000000000E+00 0.  1.
         23    2    1    2    0    0  0.52350340609E+02  0.57000863037E+02  0.24452265061E+03  0.28535598219E+03  0.12508818233E+03 0.  0.
         23    2    1    2    0    0 -0.52350340609E+02 -0.57000863037E+02  0.28100584394E+03  0.30515984363E+03  0.90380248314E+02 0.  0.
          5    1    3    3  502    0 -0.32124116134E+02  0.25393060060E+02  0.14611756141E+03  0.15180441525E+03  0.41800000000E+01 0.  1.
         -5    1    3    3    0  502  0.84474456743E+02  0.31607802977E+02  0.98405089198E+02  0.13355156694E+03  0.41800000000E+01 0.  1.
        -11    1    4    4    0    0 -0.70075289216E+02 -0.38421028633E+02  0.13474407530E+03  0.15666105906E+03  0.00000000000E+00 0.  1.
         11    1    4    4    0    0  0.17724948607E+02 -0.18579834404E+02  0.14626176864E+03  0.14849878456E+03  0.00000000000E+00 0. -1.
</event>
<event>
 7    1  0.5951278E-006  0.2069396E+03  0.7561462E-02  0.1144013E+00
          1   -1    0    0  501    0  0.00000000000E+00  0.00000000000E+00  0.82814156237E+03  0.82814156237E+03  0.00000000000E+00 0. -1.
         -1   -1    0    0    0  501 -0.00000000000E+00 -0.00000000000E+00 -0.69771589750E+02  0.69771589750E+02  0.00000000000E+00 0.  1.
         23    2    1    2    0    0  0.11035897026E+03  0.16036546652E+03  0.50303020128E+03  0.54861376006E+03  0.10020723108E+03 0.  0.
          5    1    1    2  502    0 -0.52090755827E+02 -0.10954918161E+03  0.24199909322E+03  0.27073142328E+03  0.41800000000E+01 0. -1.
         -5    1    1    2    0  502 -0.58268214432E+02 -0.50816284905E+02  0.13340678121E+02  0.78567968774E+02  0.41800000000E+01 0.  1.
        -11    1    3    3    0    0 -0.67857248172E+01  0.61257598205E+02  0.10129693591E+03  0.11857322051E+03  0.00000000000E+00 0.  1.
         11    1    3    3    0    0  0.11714469508E+03  0.99107868314E+02  0.40173326537E+03  0.43004053955E+03  0.00000000000E+00 0. -1.
</event>
<event>
 8    1  0.5951278E-006  0.1119276E+03  0.7561462E-02  0.1257041E+00
         -2   -1    0    0    0  501 -0.00000000000E+00  0.00000000000E+00  0.11305387314E+03  0.11305387314E+03  0.00000000000E+00 0.  1.
          2   -1    0    0  501    0  0.00000000000E+00 -0.00000000000E+00 -0.16286137911E+03  0.16286137911E+03  0.00000000000E+00 0. -1.
         23    2    1    2    0    0 -0.60734363439E+02 -0.22260129776E+02  0.29097575096E+02  0.14379782607E+03  0.12508784763E+03 0.  0.
         23    2    1    2    0    0  0.60734363439E+02  0.22260129776E+02 -0.78905081073E+02  0.13211742618E+03  0.83933462939E+02 0.  0.
          5    1    3    3  502    0 -0.35922851449E+02  0.43205510839E+02  0.44732418772E+02  0.71941845350E+02  0.41800000000E+01 0. -1.
         -5    1    3    3    0  502 -0.24811511990E+02 -0.65465640615E+02 -0.15634843676E+02  0.71855980719E+02  0.41800000000E+01 0. -1.
        -11    1    4    4    0    0  0.31245361190E+02 -0.26115193154E+02 -0.59759364050E+02  0.72314988080E+02  0.00000000000E+00 0. -1.
         11    1    4    4    0    0  0.29489002249E+02  0.48375322929E+02 -0.19145717023E+02  0.59802438098E+02  0.00000000000E+00 0.  1.
</event>
<event>
 8    1  0.5951278E-006  0.1386474E+03  0.7561462E-02  0.1215161E+00
         -1   -1    0    0    0  501 -0.00000000000E+00  0.00000000000E+00  0.48586719038E+02  0.48586719038E+02  0.00000000000E+00 0.  1.
          1   -1    0    0  501    0  0.00000000000E+00 -0.00000000000E+00 -0.55513955289E+03  0.55513955289E+03  0.00000000000E+00 0. -1.
         23    2    1    2    0    0  0.23222816864E+02  0.12827754397E+03 -0.27443689151E+03  0.32856860058E+03  0.12508912964E+03 0.  0.
         23    2    1    2    0    0 -0.23222816864E+02 -0.12827754397E+03 -0.23211594234E+03  0.27515767135E+03  0.69566557369E+02 0.  0.
          5    1    3    3  502    0 -0.11597612632E+02  0.38000062261E+02 -0.20634687493E+03  0.21017853017E+03  0.41800000000E+01 0.  1.
         -5    1    3    3    0  502  0.34820429496E+02  0.90277481706E+02 -0.68090016583E+02  0.11839007041E+03  0.41800000000E+01 0.  1.
        -11    1    4    4    0    0 -0.27557997217E+02 -0.25251058740E+02 -0.28795684860E+02  0.47183160605E+02  0.00000000000E+00 0.  1.
         11    1    4    4    0    0  0.43351803535E+01 -0.10302648523E+03 -0.20332025748E+03  0.22797451074E+03  0.00000000000E+00 0. -1.
</event>
<event>
 8    1  0.5951278E-006  0.1161932E+03  0.7561462E-02  0.1249513E+00
         -1   -1    0    0    0  501 -0.00000000000E+00  0.00000000000E+00  0.64386046418E+03  0.64386046418E+03  0.00000000000E+00 0.  1.
          1   -1    0    0  501    0  0.00000000000E+00 -0.00000000000E+00 -0.24655951247E+02  0.24655951247E+02  0.00000000000E+00 0. -1.
         23    2    1    2    0    0  0.31978782412E+02  0.49778439702E+02  0.38750673121E+03  0.41147204164E+03  0.12508892329E+03 0.  0.
         23    2    1    2    0    0 -0.31978782412E+02 -0.49778439702E+02  0.23169778172E+03  0.25704437379E+03  0.94273073887E+02 0.  0.
          5    1    3    3  502    0  0.42040259215E+02  0.86179403211E+02  0.31909490768E+03  0.33321660439E+03  0.41800000000E+01 0. -1.
         -5    1    3    3    0  502 -0.10061476804E+02 -0.36400963509E+02  0.68411823532E+02  0.78255437248E+02  0.41800000000E+01 0. -1.
        -11    1    4    4    0    0  0.26340544288E+02 -0.12155401968E+02  0.22733085813E+02  0.36856088520E+02  0.00000000000E+00 0.  1.
         11    1    4    4    0    0 -0.58319326700E+02 -0.37623037734E+02  0.20896469591E+03  0.22018828527E+03  0.00000000000E+00 0. -1.
</event>
<event>
 8    1  0.5951278E-006  0.1096561E+03  0.7561462E-02  0.1261208E+00
          2   -1    0    0  501    0  0.00000000000E+00  0.00000000000E+00  0.14947652447E+03  0.14947652447E+03  0.00000000000E+00 0.  1.
         -2   -1    0    0    0  501 -0.00000000000E+00 -0.00000000000E+00 -0.10260458068E+03  0.10260458068E+03  0.00000000000E+00 0. -1.
         23    2    1    2    0    0 -0.49988237675E+02 -0.73587919272E+01 -0.88595691339E+01  0.13519663341E+03  0.12508661797E+03 0.  0.
         23    2    1    2    0    0  0.49988237675E+02  0.73587919272E+01  0.55731512926E+02  0.11688447174E+03  0.89459501879E+02 0.  0.
          5    1    3    3  502    0 -0.16825596184E+02  0.58339115970E+02 -0.87367562355E+01  0.61484603346E+02  0.41800000000E+01 0. -1.
         -5    1    3    3    0  502 -0.33162641491E+02 -0.65697907897E+02 -0.12281289845E+00  0.73712030061E+02  0.41800000000E+01 0. -1.
        -11    1    4    4    0    0  0.14736776521E+02  0.36269434397E+02  0.59406457902E+02  0.71146129158E+02  0.00000000000E+00 0.  1.
         11    1    4    4    0    0  0.35251461154E+02 -0.28910642470E+02 -0.36749449758E+01  0.45738342582E+02  0.00000000000E+00 0. -1.
</event>
<event>
 8    1  0.5951278E-006  0.9675932E+02  0.7561462E-02  0.1287262E+00
         -2   -1    0    0    0  501 -0.00000000000E+00  0.00000000000E+00  0.28600938721E+02  0.28600938721E+02  0.00000000000E+00 0.  1.
          2   -1    0    0  501    0  0.00000000000E+00 -0.00000000000E+00 -0.74416408551E+03  0.74416408551E+03  0.00000000000E+00 0. -1.
         23    2    1    2    0    0 -0.81808323721E+02  0.60187199049E+01 -0.25085931312E+03  0.29207608857E+03  0.12509684136E+03 0.  0.
         23    2    1    2    0    0  0.81808323721E+02 -0.60187199049E+01 -0.46470383367E+03  0.48068893566E+03  0.91560761339E+02 0.  0.
          5    1    3    3  502    0 -0.41600464600E+02  0.15420292365E+01 -0.24778062762E+03  0.25128805848E+03  0.41800000000E+01 0. -1.
         -5    1    3    3    0  502 -0.40207859121E+02  0.44766906684E+01 -0.30786854946E+01  0.40788030092E+02  0.41800000000E+01 0. -1.
        -11    1    4    4    0    0 -0.38677605203E+01  0.20859728976E+02 -0.29608416301E+02  0.36424527180E+02  0.00000000000E+00 0. -1.
         11    1    4    4    0    0  0.85676084241E+02 -0.26878448881E+02 -0.43509541737E+03  0.44426440848E+03  0.00000000000E+00 0.  1.
</event>
<event>
 8    1  0.5951278E-006  0.1745003E+03  0.7561462E-02  0.1173234E+00
          2   -1    0    0  501    0  0.00000000000E+00  0.00000000000E+00  0.32777926090E+03  0.32777926090E+03  0.00000000000E+00 0. -1.
         -2   -1    0    0    0  501 -0.00000000000E+00 -0.00000000000E+00 -0.11248934722E+03  0.11248934722E+03  0.00000000000E+00 0.  1.
         23    2    1    2    0    0 -0.42165196523E+01  0.14005067611E+03  0.28235677391E+02  0.18994080043E+03  0.12509309843E+03 0.  0.
         23    2    1    2    0    0  0.42165196523E+01 -0.14005067611E+03  0.18705423628E+03  0.25032780769E+03  0.89681397579E+02 0.  0.
          5    1    3    3  502    0 -0.60077760721E+02  0.99036061974E+02  0.26204740087E+01  0.11593885539E+03  0.41800000000E+01 0.  1.
         -5    1    3    3    0  502  0.55861241069E+02  0.41014614136E+02  0.25615203382E+02  0.74001945047E+02  0.41800000000E+01 0.  1.
        -11    1    4    4    0    0  0.44450584783E+02 -0.73055067379E+02  0.12001056885E+03  0.14736157570E+03  0.00000000000E+00 0. -1.
         11    1    4    4    0    0 -0.40234065131E+02 -0.66995608730E+02  0.67043667438E+02  0.10296623199E+03  0.00000000000E+00 0.  1.
</event>
<event>
 8    1  0.5951278E-006  0.9213111E+02  0.7561462E-02  0.1297771E+00
          2   -1    0    0  501    0  0.00000000000E+00  0.00000000000E+00  0.98735047749E+02  0.98735047749E+02  0.00000000000E+00 0. -1.
         -2   -1    0    0    0  501 -0.00000000000E+00 -0.00000000000E+00 -0.16419336362E+03  0.16419336362E+03  0.00000000000E+00 0.  1.
         23    2    1    2    0    0  0.54805689430E+02 -0.24152033268E+02 -0.51456969359E+02  0.14792784430E+03  0.12509133911E+03 0.  0.
         23    2    1    2    0    0 -0.54805689430E+02  0.24152033268E+02 -0.14001346509E+02  0.11500056707E+03  0.97170512072E+02 0.  0.
          5    1    3    3  502    0  0.30502985381E+01  0.78050160659E+01  0.38296176709E+02  0.39424512013E+02  0.41800000000E+01 0. -1.
         -5    1    3    3    0  502  0.51755390892E+02 -0.31957049334E+02 -0.89753146068E+02  0.10850333229E+03  0.41800000000E+01 0. -1.
        -11    1    4    4    0    0 -0.96206858117E+01  0.57164066572E+02 -0.10670546016E+02  0.58941909154E+02  0.00000000000E+00 0.  1.
         11    1    4    4    0    0 -0.45185003618E+02 -0.33012033303E+02 -0.33308004934E+01  0.56058657911E+02  0.00000000000E+00 0. -1.
</event>
<event>
 8    1  0.5951278E-006  0.1003150E+03  0.7561462E-02  0.1279635E+00
          2   -1    0    0  501    0  0.00000000000E+00  0.00000000000E+00  0.38455266885E+03  0.38455266885E+03  0.00000000000E+00 0. -1.
         -2   -1    0    0    0  501 -0.00000000000E+00 -0.00000000000E+00 -0.69159665563E+02  0.69159665563E+02  0.00000000000E+00 0.  1.
         23    2    1    2    0    0  0.28189471842E+02 -0.83691108158E+02  0.53547327413E+02  0.16221446640E+03  0.12508944372E+03 0.  0.
         23    2    1    2    0    0 -0.28189471842E+02  0.83691108158E+02  0.26184567587E+03  0.29149786801E+03  0.92784703333E+02 0.  0.
          5    1    3    3  502    0  0.36712886935E+02 -0.10611253406E+02 -0.31485669482E+02  0.49691594346E+02  0.41800000000E+01 0. -1.
         -5    1    3    3    0  502 -0.85234150926E+01 -0.73079854752E+02  0.85032996895E+02  0.11252287206E+03  0.41800000000E+01 0. -1.
        -11    1    4    4    0    0 -0.11901166467E+02  0.44201013618E+02  0.27735183332E+02  0.53522030629E+02  0.00000000000E+00 0.  1.
         11    1    4    4    0    0 -0.16288305375E+02  0.39490094539E+02  0.23411049254E+03  0.23797583738E+03  0.00000000000E+00 0. -1.
</event>
<event>
 7    1  0.5951278E-006  0.1204546E+03  0.7561462E-02  0.1242349E+00
         -1   -1    0    0    0  501 -0.00000000000E+00  0.00000000000E+00  0.15798157760E+04  0.15798157760E+04  0.00000000000E+00 0.  1.
          1   -1    0    0  501    0  0.00000000000E+00 -0.00000000000E+00 -0.15858694432E+03  0.15858694432E+03  0.00000000000E+00 0. -1.
         23    2    1    2    0    0  0.59594795993E+02 -0.11224877889E+02 -0.13464123682E+03  0.17298546713E+03  0.90100896735E+02 0.  0.
          5    1    1    2  502    0  0.45777377965E+02  0.10560645522E+02  0.20144422758E+03  0.20689210907E+03  0.41800000000E+01 0. -1.
         -5    1    1    2    0  502 -0.10537217396E+03  0.66423236725E+00  0.13544258409E+04  0.13585251441E+04  0.41800000000E+01 0.  1.
        -11    1    3    3    0    0  0.28210449326E+02 -0.37797145845E+02 -0.12066138035E+03  0.12955162057E+03  0.00000000000E+00 0. -1.
         11    1    3    3    0    0  0.31384346667E+02  0.26572267956E+02 -0.13979856477E+02  0.43433846562E+02  0.00000000000E+00 0.  1.
</event>
<event>
 7    1  0.5951278E-006  0.9821735E+02  0.7561462E-02  0.1284090E+00
          1   -1    0    0  501    0  0.00000000000E+00  0.00000000000E+00  0.60428417316E+03  0.60428417316E+03  0.00000000000E+00 0. -1.
         -1   -1    0    0    0  501 -0.00000000000E+00 -0.00000000000E+00 -0.27044952448E+02  0.27044952448E+02  0.00000000000E+00 0.  1.
         23    2    1    2    0    0  0.11360422970E+02 -0.31650987578E+02  0.24447011267E+03  0.26346619810E+03  0.92292780462E+02 0.  0.
          5    1    1    2  502    0 -0.46954818044E+02 -0.65226469010E+01  0.30481434350E+03  0.30850697928E+03  0.41800000000E+01 0. -1.
         -5    1    1    2    0  502  0.35594395075E+02  0.38173634479E+02  0.27954764540E+02  0.59355948232E+02  0.41800000000E+01 0.  1.
        -11    1    3    3    0    0  0.27751429898E+02  0.25096917551E+02  0.11987692334E+03  0.12558054739E+03  0.00000000000E+00 0.  1.
         11    1    3    3    0    0 -0.16391006928E+02 -0.56747905129E+02  0.12459318933E+03  0.13788565071E+03  0.00000000000E+00 0. -1.
</event>
<event>
 8    1  0.5951278E-006  0.8270532E+02  0.7561462E-02  0.1321545E+00
          2   -1    0    0  501    0  0.00000000000E+00  0.00000000000E+00  0.33775981564E+03  0.33775981564E+03  0.00000000000E+00 0. -1.
         -2   -1    0    0    0  501 -0.00000000000E+00 -0.00000000000E+00 -0.87526461632E+02  0.87526461632E+02  0.00000000000E+00 0.  1.
         23    2    1    2    0    0  0.19199697740E+01  0.25835335676E+02 -0.34452887401E+02  0.12489336710E+03  0.11721860280E+03 0.  0.
         23    2    1    2    0    0 -0.19199697740E+01 -0.25835335676E+02  0.28468624141E+03  0.30039291017E+03  0.92295685600E+02 0.  0.
          5    1    3    3  502    0 -0.18349273633E+02 -0.16972018071E+02  0.33470189590E+02  0.41981796429E+02  0.41800000000E+01 0. -1.
         -5    1    3    3    0  502  0.20269243407E+02  0.42807353747E+02 -0.67923076991E+02  0.82911570670E+02  0.41800000000E+01 0.  1.
        -11    1    4    4    0    0  0.37845829293E+02 -0.35180497261E+02  0.19691303564E+03  0.20357975780E+03  0.00000000000E+00 0. -1.
         11    1    4    4    0    0 -0.39765799067E+02  0.93451615856E+01  0.87773205771E+02  0.96813152369E+02  0.00000000000E+00 0.  1.
</event>
<event>
 7    1  0.5951278E-006  0.1772741E+03  0.7561462E-02  0.1170468E+00
          2   -1    0    0  501    0  0.00000000000E+00  0.00000000000E+00  0.11199357743E+04  0.11199357743E+04  0.00000000000E+00 0. -1.
         -2   -1    0    0    0  501 -0.00000000000E+00 -0.00000000000E+00 -0.29090780638E+02  0.29090780638E+02  0.00000000000E+00 0.  1.
         23    2    1    2    0    0 -0.36413870509E+02 -0.14708581373E+02  0.36996474453E+03  0.38305336508E+03  0.91179251877E+02 0.  0.
          5    1    1    2  502    0 -0.85224885726E+02 -0.67419268036E+02  0.24731080099E+03  0.27016428990E+03  0.41800000000E+01 0. -1.
         -5    1    1    2    0  502  0.12163875624E+03  0.82127849408E+02  0.47356944816E+03  0.49580889998E+03  0.41800000000E+01 0.  1.
        -11    1    3    3    0    0  0.94882455424E+01  0.32064077035E+02  0.11116942782E+03  0.11608950651E+03  0.00000000000E+00 0.  1.
         11    1    3    3    0    0 -0.45902116051E+02 -0.46772658408E+02  0.25879531670E+03  0.26696385857E+03  0.00000000000E+00 0. -1.
</event>
<event>
 8    1  0.5951278E-006  0.1012971E+03  0.7561462E-02  0.1277592E+00
          2   -1    0    0  501    0  0.00000000000E+00  0.00000000000E+00  0.38711676303E+03  0.38711676303E+03  0.00000000000E+00 0. -1.
         -2   -1    0    0    0  501 -0.00000000000E+00 -0.00000000000E+00 -0.36520269503E+02  0.36520269503E+02  0.00000000000E+00 0.  1.
         23    2    1    2    0    0 -0.81803047738E+00  0.16246131148E+02  0.11403765938E+03  0.17005129019E+03  0.12509295579E+03 0.  0.
         23    2    1    2    0    0  0.81803047738E+00 -0.16246131148E+02  0.23655883415E+03  0.25358574235E+03  0.89894609152E+02 0.  0.
          5    1    3    3  502    0 -0.52435527156E+01  0.63399573958E+02  0.23793061875E+02  0.68048387317E+02  0.41800000000E+01 0.  1.
         -5    1    3    3    0  502  0.44255222382E+01 -0.47153442810E+02  0.90244597502E+02  0.10200290287E+03  0.41800000000E+01 0.  1.
        -11    1    4    4    0    0 -0.54622133689E+00 -0.53757375365E+02  0.14372955405E+03  0.15345467889E+03  0.00000000000E+00 0. -1.
         11    1    4    4    0    0  0.13642518143E+01  0.37511244218E+02  0.92829280100E+02  0.10013106346E+03  0.00000000000E+00 0.  1.
</event>
<event>
 8    1  0.5951278E-006  0.1620477E+03  0.7561462E-02  0.1186404E+00
          4   -1    0    0  501    0  0.00000000000E+00  0.00000000000E+00  0.64173493454E+02  0.64173493454E+02  0.00000000000E+00 0. -1.
         -4   -1    0    0    0  501 -0.00000000000E+00 -0.00000000000E+00 -0.62669295601E+03  0.62669295601E+03  0.00000000000E+00 0.  1.
         23    2    1    2    0    0 -0.15196471227E+03  0.15018305009E+02 -0.41825418491E+03  0.46249680446E+03  0.12509159716E+03 0.  0.
         23    2    1    2    0    0  0.15196471227E+03 -0.15018305009E+02 -0.14426527764E+03  0.22836964500E+03  0.89562275343E+02 0.  0.
          5    1    3    3  502    0 -0.87335892390E+02 -0.29545280606E+02 -0.10623385664E+03  0.14072521594E+03  0.41800000000E+01 0. -1.
         -5    1    3    3    0  502 -0.64628819881E+02  0.44563585615E+02 -0.31202032828E+03  0.32177158852E+03  0.41800000000E+01 0. -1.
        -11    1    4    4    0    0  0.17727859058E+02 -0.57265914135E+01  0.11995639040E+02  0.22157756926E+02  0.00000000000E+00 0. -1.
         11    1    4    4    0    0  0.13423685321E+03 -0.92917135956E+01 -0.15626091668E+03  0.20621188808E+03  0.00000000000E+00 0.  1.
</event>
<event>
 8    1  0.5951278E-006  0.9316721E+02  0.7561462E-02  0.1295358E+00
         -1   -1    0    0    0  501 -0.00000000000E+00  0.00000000000E+00  0.30613192181E+03  0.30613192181E+03  0.00000000000E+00 0.  1.
          1   -1    0    0  501    0  0.00000000000E+00 -0.00000000000E+00 -0.87567334903E+02  0.87567334903E+02  0.00000000000E+00 0. -1.
         23    2    1    2    0    0 -0.70175558998E+01 -0.51209700105E+02  0.25031151819E+03  0.28280773666E+03  0.12104825608E+03 0.  0.
         23    2    1    2    0    0  0.70175558998E+01  0.51209700105E+02 -0.31746931281E+02  0.11089152005E+03  0.92829855642E+02 0.  0.
          5    1    3    3  502    0 -0.21085867322E+02  0.14878941126E+02  0.29026988591E+01  0.26303892306E+02  0.41800000000E+01 0. -1.
         -5    1    3    3    0  502  0.14068311422E+02 -0.66088641231E+02  0.24740881933E+03  0.25650384435E+03  0.41800000000E+01 0.  1.
        -11    1    4    4    0    0 -0.24193262068E+02  0.55919242515E+02 -0.45916437236E+02  0.76292822869E+02  0.00000000000E+00 0. -1.
         11    1    4    4    0    0  0.31210817968E+02 -0.47095424098E+01  0.14169505955E+02  0.34598697185E+02  0.00000000000E+00 0.  1.
</event>
<event>
 8    1  0.5951278E-006  0.1154072E+03  0.7561462E-02  0.1250872E+00
         -2   -1    0    0    0  501 -0.00000000000E+00  0.00000000000E+00  0.30764334389E+02  0.30764334389E+02  0.00000000000E+00 0. -1.
          2   -1    0    0  501    0  0.00000000000E+00 -0.00000000000E+00 -0.69700159434E+03  0.69700159434E+03  0.00000000000E+00 0.  1.
         23    2    1    2    0    0 -0.41727037004E+02 -0.84853729155E+02 -0.29095297420E+03  0.33051835585E+03  0.12508976534E+03 0.  0.
         23    2    1    2    0    0  0.41727037004E+02  0.84853729155E+02 -0.37528428575E+03  0.39724757287E+03  0.89588158006E+02 0.  0.
          5    1    3    3  502    0 -0.23778273035E+02 -0.98772438811E+02 -0.11687431265E+03  0.15491442248E+03  0.41800000000E+01 0.  1.
         -5    1    3    3    0  502 -0.17948763969E+02  0.13918709656E+02 -0.17407866155E+03  0.17560393337E+03  0.41800000000E+01 0.  1.
        -11    1    4    4    0    0  0.24263195528E+02  0.85184465073E+02 -0.36767855209E+03  0.37819652750E+03  0.00000000000E+00 0.  1.
         11    1    4    4    0    0  0.17463841476E+02 -0.33073591859E+00 -0.76057336634E+01  0.19051045376E+02  0.00000000000E+00 0. -1.
</event>
<event>
 8    1  0.5951278E-006  0.9312496E+02  0.7561462E-02  0.1295456E+00
          1   -1    0    0  501    0  0.00000000000E+00  0.00000000000E+00  0.35346396431E+02  0.35346396431E+02  0.00000000000E+00 0.  1.
         -1   -1    0    0    0  501 -0.00000000000E+00 -0.00000000000E+00 -0.43784344541E+03  0.43784344541E+03  0.00000000000E+00 0. -1.
         23    2    1    2    0    0  0.45857874584E+02 -0.74453052096E+01 -0.30095187316E+03  0.32920837222E+03  0.12509094753E+03 0.  0.
         23    2    1    2    0    0 -0.45857874584E+02  0.74453052096E+01 -0.10154517582E+03  0.14398146962E+03  0.90889293264E+02 0.  0.
          5    1    3    3  502    0  0.62958060563E+02  0.31481440952E+02 -0.26224377691E+03  0.27155859302E+03  0.41800000000E+01 0.  1.
         -5    1    3    3    0  502 -0.17100185979E+02 -0.38926746161E+02 -0.38708096248E+02  0.57649779205E+02  0.41800000000E+01 0.  1.
        -11    1    4    4    0    0 -0.22008470800E+02  0.31964426876E+02 -0.21528675974E+01  0.38868138769E+02  0.00000000000E+00 0.  1.
         11    1    4    4    0    0 -0.23849403784E+02 -0.24519121667E+02 -0.99392308225E+02  0.10511333085E+03  0.00000000000E+00 0. -1.
</event>
<event>
 8    1  0.5951278E-006  0.1173109E+03  0.7561462E-02  0.1247600E+00
         -2   -1    0    0    0  501 -0.00000000000E+00  0.00000000000E+00  0.26796304340E+02  0.26796304340E+02  0.00000000000E+00 0.  1.
          2   -1    0    0  501    0  0.00000000000E+00 -0.00000000000E+00 -0.74153518947E+03  0.74153518947E+03  0.00000000000E+00 0. -1.
         23    2    1    2    0    0  0.30896902167E+02  0.82173513402E+02 -0.33760981986E+03  0.37058717822E+03  0.12508941332E+03 0.  0.
         23    2    1    2    0    0 -0.30896902167E+02 -0.82173513402E+02 -0.37712906527E+03  0.39774431559E+03  0.90923615445E+02 0.  0.
          5    1    3    3  502    0  0.47707201984E+02  0.76920159580E+02 -0.34041689992E+03  0.35226953632E+03  0.41800000000E+01 0.  1.
         -5    1    3    3    0  502 -0.16810299817E+02  0.52533538221E+01  0.28070800546E+01  0.18317641899E+02  0.41800000000E+01 0.  1.
        -11    1    4    4    0    0  0.24887240000E+02 -0.61627657965E+02 -0.18172887906E+03  0.19350123624E+03  0.00000000000E+00 0.  1.
         11    1    4    4    0    0 -0.55784142167E+02 -0.20545855437E+02 -0.19540018621E+03  0.20424307936E+03  0.00000000000E+00 0. -1.
</event>
<event>
 8    1  0.5951278E-006  0.1251863E+03  0.7561462E-02  0.1234778E+00
         -1   -1    0    0    0  501 -0.00000000000E+00  0.00000000000E+00  0.49849851682E+02  0.49849851682E+02  0.00000000000E+00 0.  1.
          1   -1    0    0  501    0  0.00000000000E+00 -0.00000000000E+00 -0.50076613926E+03  0.50076613926E+03  0.00000000000E+00 0. -1.
         23    2    1    2    0    0 -0.11110465548E+03 -0.23430935925E+02 -0.21647662619E+03  0.27458966976E+03  0.12507639195E+03 0.  0.
         23    2    1    2    0    0  0.11110465548E+03  0.23430935925E+02 -0.23443966139E+03  0.27602632118E+03  0.91297984232E+02 0.  0.
          5    1    3    3  502    0 -0.42808139408E+02 -0.11946130699E+02 -0.19774932585E+03  0.20272522071E+03  0.41800000000E+01 0. -1.
         -5    1    3    3    0  502 -0.68296516076E+02 -0.11484805226E+02 -0.18727300343E+02  0.71864449051E+02  0.41800000000E+01 0. -1.
        -11    1    4    4    0    0  0.25439587535E+02  0.41617444912E+02 -0.41123522682E+02  0.63799125799E+02  0.00000000000E+00 0.  1.
         11    1    4    4    0    0  0.85665067950E+02 -0.18186508987E+02 -0.19331613871E+03  0.21222719538E+03  0.00000000000E+00 0. -1.
</event>
<event>
 7    1  0.5951278E-006  0.6812118E+02  0.7561462E-02  0.1366601E+00
         -4   -1    0    0    0  501 -0.00000000000E+00  0.00000000000E+00  0.51502501732E+03  0.51502501732E+03  0.00000000000E+00 0.  1.
          4   -1    0    0  501    0  0.00000000000E+00 -0.00000000000E+00 -0.13832192847E+02  0.13832192847E+02  0.00000000000E+00 0. -1.
         23    2    1    2    0    0 -0.13611237863E+02  0.15398848923E+02  0.38197642956E+03  0.40246343021E+03  0.12509368318E+03 0.  0.
          5    1    3    3  502    0 -0.45875452121E+01  0.54082225777E+02  0.73777129335E+02  0.91686803461E+02  0.41800000000E+01 0. -1.
         -5    1    3    3    0  502 -0.90236926511E+01 -0.38683376853E+02  0.30819930023E+03  0.31077662675E+03  0.41800000000E+01 0. -1.
        -11    1    1    2    0    0  0.25092213573E+02 -0.35100816452E+01  0.67366873339E+02  0.71973852743E+02  0.00000000000E+00 0.  1.
         11    1    1    2    0    0 -0.11480975710E+02 -0.11888767278E+02  0.51849521576E+02  0.54419927217E+02  0.00000000000E+00 0. -1.
</event>
<event>
 8    1  0.5951278E-006  0.9495767E+02  0.7561462E-02  0.1291271E+00
          1   -1    0    0  501    0  0.00000000000E+00  0.00000000000E+00  0.53845071819E+02  0.53845071819E+02  0.00000000000E+00 0. -1.
         -1   -1    0    0    0  501 -0.00000000000E+00 -0.00000000000E+00 -0.32741019447E+03  0.32741019447E+03  0.00000000000E+00 0.  1.
         23    2    1    2    0    0  0.61139685874E+02  0.43644623953E+02 -0.16180462265E+03  0.21788029100E+03  0.12509264929E+03 0.  0.
         23    2    1    2    0    0 -0.61139685874E+02 -0.43644623953E+02 -0.11176050000E+03  0.16337497529E+03  0.92509776786E+02 0.  0.
          5    1    3    3  502    0  0.54330304768E+02  0.23145979207E+02 -0.48610919290E+01  0.59402196797E+02  0.41800000000E+01 0.  1.
         -5    1    3    3    0  502  0.68093811064E+01  0.20498644746E+02 -0.15694353072E+03  0.15847809421E+03  0.41800000000E+01 0.  1.
        -11    1    4    4    0    0 -0.56719231559E+02  0.76447305461E+01 -0.91762908748E+02  0.10814779034E+03  0.00000000000E+00 0.  1.
         11    1    4    4    0    0 -0.44204543156E+01 -0.51289354499E+02 -0.19997591256E+02  0.55227184948E+02  0.00000000000E+00 0. -1.
</event>
<event>
 8    1  0.5951278E-006  0.1188183E+03  0.7561462E-02  0.1245059E+00
         -1   -1    0    0    0  501 -0.00000000000E+00  0.00000000000E+00  0.77361374483E+02  0.77361374483E+02  0.00000000000E+00 0.  1.
          1   -1    0    0  501    0  0.00000000000E+00 -0.00000000000E+00 -0.23146586403E+03  0.23146586403E+03  0.00000000000E+00 0. -1.
         23    2    1    2    0    0 -0.77063240091E+02  0.11522046209E+02 -0.67033808527E+02  0.16190079563E+03  0.12508731198E+03 0.  0.
         23    2    1    2    0    0  0.77063240091E+02 -0.11522046209E+02 -0.87070681019E+02  0.14692644288E+03  0.89076234777E+02 0.  0.
          5    1    3    3  502    0 -0.46987983523E+02 -0.39479351219E+02 -0.80227549119E+02  0.10109610183E+03  0.41800000000E+01 0.  1.
         -5    1    3    3    0  502 -0.30075256568E+02  0.51001397428E+02  0.13193740592E+02  0.60804693799E+02  0.41800000000E+01 0.  1.
        -11    1    4    4    0    0  0.54588117604E+02 -0.48810959764E+02 -0.42727415485E+02  0.84782099589E+02  0.00000000000E+00 0.  1.
         11    1    4    4    0    0  0.22475122486E+02  0.37288913554E+02 -0.44343265534E+02  0.62144343291E+02  0.00000000000E+00 0. -1.
</event>
<event>
 8    1  0.5951278E-006  0.6861005E+02  0.7561462E-02  0.1364884E+00
         -2   -1    0    0    0  501 -0.00000000000E+00  0.00000000000E+00  0.24661746188E+02  0.24661746188E+02  0.00000000000E+00 0.  1.
          2   -1    0    0  501    0  0.00000000000E+00 -0.00000000000E+00 -0.56465672107E+03  0.56465672107E+03  0.00000000000E+00 0. -1.
         23    2    1    2    0    0  0.24070562741E+02  0.96165105425E+01 -0.20779144333E+03  0.24391860522E+03  0.12508849980E+03 0.  0.
         23    2    1    2    0    0 -0.24070562741E+02 -0.96165105425E+01 -0.33220353155E+03  0.34539986205E+03  0.90939590163E+02 0.  0.
          5    1    3    3  502    0  0.25699384655E+02 -0.64007194038E+01  0.76135679414E+01  0.27872323142E+02  0.41800000000E+01 0.  1.
         -5    1    3    3    0  502 -0.16288219144E+01  0.16017229946E+02 -0.21540501128E+03  0.21604628207E+03  0.41800000000E+01 0.  1.
        -11    1    4    4    0    0  0.33510375454E+02 -0.13351414467E+02 -0.10677461088E+03  0.11270325221E+03  0.00000000000E+00 0. -1.
         11    1    4    4    0    0 -0.57580938195E+02  0.37349039243E+01 -0.22542892068E+03  0.23269660983E+03  0.00000000000E+00 0.  1.
</event>
<event>
 8    1  0.5951278E-006  0.8011869E+02  0.7561462E-02  0.1328715E+00
          2   -1    0    0  501    0  0.00000000000E+00  0.00000000000E+00  0.64666056263E+02  0.64666056263E+02  0.00000000000E+00 0. -1.
         -2   -1    0    0    0  501 -0.00000000000E+00 -0.00000000000E+00 -0.18062325682E+03  0.18062325682E+03  0.00000000000E+00 0.  1.
         23    2    1    2    0    0 -0.54394158320E+00 -0.45022140584E+01 -0.58882730015E+02  0.13832946380E+03  0.12508916363E+03 0.  0.
         23    2    1    2    0    0  0.54394158320E+00  0.45022140584E+01 -0.57074470547E+02  0.10695984928E+03  0.90345715818E+02 0.  0.
          5    1    3    3  502    0 -0.54404325898E+02 -0.46392407942E+01  0.46206615190E+01  0.54956129271E+02  0.41800000000E+01 0.  1.
         -5    1    3    3    0  502  0.53860384315E+02  0.13702673589E+00 -0.63503391534E+02  0.83373334533E+02  0.41800000000E+01 0.  1.
        -11    1    4    4    0    0  0.19215054733E+02  0.19595571644E+02 -0.73107974038E+02  0.78089567961E+02  0.00000000000E+00 0.  1.
         11    1    4    4    0    0 -0.18671113150E+02 -0.15093357585E+02  0.16033503491E+02  0.28870281323E+02  0.00000000000E+00 0. -1.
</event>
<event>
 8    1  0.5951278E-006  0.1150870E+03  0.7561462E-02  0.1251429E+00
          2   -1    0    0  501    0  0.00000000000E+00  0.00000000000E+00  0.39025324135E+03  0.39025324135E+03  0.00000000000E+00 0. -1.
         -2   -1    0    0    0  501 -0.00000000000E+00 -0.00000000000E+00 -0.58727808787E+02  0.58727808787E+02  0.00000000000E+00 0.  1.
         23    2    1    2    0    0 -0.72296020179E+02  0.57164236321E+02  0.10355182703E+03  0.18671761523E+03  0.12508406177E+03 0.  0.
         23    2    1    2    0    0  0.72296020179E+02 -0.57164236321E+02  0.22797360553E+03  0.26226343490E+03  0.91190350480E+02 0.  0.
          5    1    3    3  502    0  0.15372082680E+02 -0.16522834499E+02  0.59795575886E+02  0.64049108357E+02  0.41800000000E+01 0. -1.
         -5    1    3    3    0  502 -0.87668102859E+02  0.73687070820E+02  0.43756251145E+02  0.12266850688E+03  0.41800000000E+01 0. -1.
        -11    1    4    4    0    0  0.63279962226E+02 -0.45791465095E+02  0.23389191993E+03  0.24659002839E+03  0.00000000000E+00 0. -1.
         11    1    4    4    0    0  0.90160579530E+01 -0.11372771227E+02 -0.59183143965E+01  0.15673406512E+02  0.00000000000E+00 0.  1.
</event>
<event>
 8    1  0.5951278E-006  0.1709210E+03  0.7561462E-02  0.1176891E+00
         -1   -1    0    0    0  501 -0.00000000000E+00  0.00000000000E+00  0.14375868848E+03  0.14375868848E+03  0.00000000000E+00 0.  1.
          1   -1    0    0  501    0  0.00000000000E+00 -0.00000000000E+00 -0.25043604371E+03  0.25043604371E+03  0.00000000000E+00 0. -1.
         23    2    1    2    0    0  0.12151528342E+03  0.80057156681E+02 -0.24537265493E+01  0.19190432581E+03  0.12508451962E+03 0.  0.
         23    2    1    2    0    0 -0.12151528342E+03 -0.80057156681E+02 -0.10422362868E+03  0.20229040639E+03  0.94253547948E+02 0.  0.
          5    1    3    3  502    0 -0.11804104733E+02 -0.35156727900E+01 -0.29457366072E+02  0.32201019543E+02  0.41800000000E+01 0.  1.
         -5    1    3    3    0  502  0.13331938816E+03  0.83572829471E+02  0.27003639523E+02  0.15970330626E+03  0.41800000000E+01 0.  1.
        -11    1    4    4    0    0 -0.67828408785E+02 -0.94044315256E+02 -0.55932398945E+02  0.12873794904E+03  0.00000000000E+00 0.  1.
         11    1    4    4    0    0 -0.53686874640E+02  0.13987158575E+02 -0.48291229733E+02  0.73552457354E+02  0.00000000000E+00 0. -1.
</event>
<event>
 8    1  0.5951278E-006  0.1160365E+03  0.7561462E-02  0.1249783E+00
         -1   -1    0    0    0  501 -0.00000000000E+00  0.00000000000E+00  0.28810356577E+02  0.28810356577E+02  0.00000000000E+00 0.  1.
          1   -1    0    0  501    0  0.00000000000E+00 -0.00000000000E+00 -0.50583930467E+03  0.50583930467E+03  0.00000000000E+00 0. -1.
         23    2    1    2    0    0 -0.28305918335E+02 -0.41008328771E+02 -0.22149748288E+03  0.25921090690E+03  0.12508497627E+03 0.  0.
         23    2    1    2    0    0  0.28305918335E+02  0.41008328771E+02 -0.25553146521E+03  0.27543875435E+03  0.89929247993E+02 0.  0.
          5    1    3    3  502    0  0.33697798100E+02  0.26289455180E+02 -0.66121693953E+02  0.78843058424E+02  0.41800000000E+01 0.  1.
         -5    1    3    3    0  502 -0.62003716436E+02 -0.67297783951E+02 -0.15537578893E+03  0.18036784847E+03  0.41800000000E+01 0.  1.
        -11    1    4    4    0    0 -0.92937537479E+01  0.56208353066E+02 -0.10409332787E+03  0.11866412146E+03  0.00000000000E+00 0.  1.
         11    1    4    4    0    0  0.37599672083E+02 -0.15200024295E+02 -0.15143813734E+03  0.15677463290E+03  0.00000000000E+00 0. -1.
</event>
<event>
 8    1  0.5951278E-006  0.1831867E+03  0.7561462E-02  0.1164754E+00
         -2   -1    0    0    0  501 -0.00000000000E+00  0.00000000000E+00  0.33220527159E+02  0.33220527159E+02  0.00000000000E+00 0.  1.
          2   -1    0    0  501    0  0.00000000000E+00 -0.00000000000E+00 -0.11564271144E+04  0.11564271144E+04  0.00000000000E+00 0. -1.
         23    2    1    2    0    0 -0.50394711186E+02  0.14543732441E+03 -0.42522585008E+03  0.46920897854E+03  0.12509356387E+03 0.  0.
         23    2    1    2    0    0  0.50394711186E+02 -0.14543732441E+03 -0.69798073721E+03  0.72043866307E+03  0.90349961122E+02 0.  0.
          5    1    3    3  502    0 -0.84698308624E+02  0.96289813425E+02 -0.21316831694E+03  0.24880461290E+03  0.41800000000E+01 0. -1.
         -5    1    3    3    0  502  0.34303597438E+02  0.49147510986E+02 -0.21205753313E+03  0.22040436564E+03  0.41800000000E+01 0. -1.
        -11    1    4    4    0    0 -0.22826954646E+02 -0.66533910280E+02 -0.30245665232E+03  0.31052835234E+03  0.00000000000E+00 0.  1.
         11    1    4    4    0    0  0.73221665832E+02 -0.78903414132E+02 -0.39552408489E+03  0.40991031072E+03  0.00000000000E+00 0. -1.
</event>
<event>
 8    1  0.5951278E-006  0.1469624E+03  0.7561462E-02  0.1204256E+00
          1   -1    0    0  501    0  0.00000000000E+00  0.00000000000E+00  0.10530673867E+03  0.10530673867E+03  0.00000000000E+00 0. -1.
         -1   -1    0    0    0  501 -0.00000000000E+00 -0.00000000000E+00 -0.28832153965E+03  0.28832153965E+03  0.00000000000E+00 0.  1.
         23    2    1    2    0    0  0.15048760406E+02 -0.12503204283E+03 -0.14844676121E+03  0.23139365442E+03  0.12508839062E+03 0.  0.
         23    2    1    2    0    0 -0.15048760406E+02  0.12503204283E+03 -0.34568039762E+02  0.16223462390E+03  0.96258230263E+02 0.  0.
          5    1    3    3  502    0 -0.17946236343E+02 -0.83802592918E+02 -0.14066765753E+02  0.86949918214E+02  0.41800000000E+01 0.  1.
         -5    1    3    3    0  502  0.32994996750E+02 -0.41229449914E+02 -0.13437999546E+03  0.14444373621E+03  0.41800000000E+01 0.  1.
        -11    1    4    4    0    0 -0.46414390010E+02  0.11190111829E+03 -0.40463338410E+02  0.12772406832E+03  0.00000000000E+00 0.  1.
         11    1    4    4    0    0  0.31365629603E+02  0.13130924544E+02  0.58952986477E+01  0.34510555573E+02  0.00000000000E+00 0. -1.
</event>
<event>
 8    1  0.5951278E-006  0.1017138E+03  0.7561462E-02  0.1276733E+00
          2   -1    0    0  501    0  0.00000000000E+00  0.00000000000E+00  0.70817787615E+02  0.70817787615E+02  0.00000000000E+00 0. -1.
         -2   -1    0    0    0  501 -0.00000000000E+00 -0.00000000000E+00 -0.22796098476E+03  0.22796098476E+03  0.00000000000E+00 0.  1.
         23    2    1    2    0    0 -0.44193483041E+01  0.22592113869E+02 -0.16062257601E+03  0.20487860684E+03  0.12508276208E+03 0.  0.
         23    2    1    2    0    0  0.44193483041E+01 -0.22592113869E+02  0.34793788620E+01  0.93900165536E+02  0.90968130474E+02 0.  0.
          5    1    3    3  502    0 -0.20505445187E+02  0.66540874310E+02 -0.53513099914E+02  0.87916355126E+02  0.41800000000E+01 0.  1.
         -5    1    3    3    0  502  0.16086096883E+02 -0.43948760441E+02 -0.10710947610E+03  0.11696225172E+03  0.41800000000E+01 0.  1.
        -11    1    4    4    0    0  0.17623455668E+02  0.28723896695E+02  0.18999686846E+02  0.38686386899E+02  0.00000000000E+00 0. -1.
         11    1    4    4    0    0 -0.13204107364E+02 -0.51316010564E+02 -0.15520307984E+02  0.55213778637E+02  0.00000000000E+00 0.  1.
</event>
<event>
 8    1  0.5951278E-006  0.1183073E+03  0.7561462E-02  0.1245916E+00
         -2   -1    0    0    0  501 -0.00000000000E+00  0.00000000000E+00  0.11376277513E+03  0.11376277513E+03  0.00000000000E+00 0.  1.
          2   -1    0    0  501    0  0.00000000000E+00 -0.00000000000E+00 -0.26092588949E+03  0.26092588949E+03  0.00000000000E+00 0. -1.
         23    2    1    2    0    0 -0.91031975527E+01 -0.64121855575E+02  0.48874151664E+02  0.14909838939E+03  0.12508863438E+03 0.  0.
         23    2    1    2    0    0  0.91031975527E+01  0.64121855575E+02 -0.19603726602E+03  0.22559027522E+03  0.90916896312E+02 0.  0.
          5    1    3    3  502    0 -0.62191496419E+01  0.30713148083E+02 -0.14647273055E+02  0.34842363516E+02  0.41800000000E+01 0. -1.
         -5    1    3    3    0  502 -0.28840479108E+01 -0.94835003658E+02  0.63521424719E+02  0.11425602588E+03  0.41800000000E+01 0. -1.
        -11    1    4    4    0    0 -0.37100918650E+02  0.48902416100E+02 -0.12792693033E+03  0.14189159232E+03  0.00000000000E+00 0.  1.
         11    1    4    4    0    0  0.46204116202E+02  0.15219439475E+02 -0.68110335689E+02  0.83698682902E+02  0.00000000000E+00 0. -1.
</event>
<event>
 8    1  0.5951278E-006  0.1122456E+03  0.7561462E-02  0.1256467E+00
          2   -1    0    0  501    0  0.00000000000E+00  0.00000000000E+00  0.12945224558E+03  0.12945224558E+03  0.00000000000E+00 0.  1.
         -2   -1    0    0    0  501 -0.00000000000E+00 -0.00000000000E+00 -0.97887954354E+02  0.97887954354E+02  0.00000000000E+00 0. -1.
         23    2    1    2    0    0  0.53916395919E+01 -0.33165473283E+02  0.16270011200E+02  0.13053942072E+03  0.12508720439E+03 0.  0.
         23    2    1    2    0    0 -0.53916395919E+01  0.33165473283E+02  0.15294280028E+02  0.96800779217E+02  0.89484397857E+02 0.  0.
          5    1    3    3  502    0  0.64570490947E+02 -0.23257086540E+02  0.23335920104E+01  0.68797953655E+02  0.41800000000E+01 0. -1.
         -5    1    3    3    0  502 -0.59178851355E+02 -0.99083867428E+01  0.13936419190E+02  0.61741467065E+02  0.41800000000E+01 0. -1.
        -11    1    4    4    0    0  0.39511025590E+02  0.31704160060E+02  0.81611824398E+01  0.51311595250E+02  0.00000000000E+00 0. -1.
         11    1    4    4    0    0 -0.44902665182E+02  0.14613132227E+01  0.71330975885E+01  0.45489183967E+02  0.00000000000E+00 0.  1.
</event>
<event>
 8    1  0.5951278E-006  0.1208415E+03  0.7561462E-02  0.1241715E+00
          1   -1    0    0  501    0  0.00000000000E+00  0.00000000000E+00  0.78533335778E+02  0.78533335778E+02  0.00000000000E+00 0. -1.
         -1   -1    0    0    0  501 -0.00000000000E+00 -0.00000000000E+00 -0.20658856672E+03  0.20658856672E+03  0.00000000000E+00 0.  1.
         23    2    1    2    0    0 -0.40331324241E+02 -0.15013069948E+02 -0.11337196110E+03  0.17422020163E+03  0.12508984414E+03 0.  0.
         23    2    1    2    0    0  0.40331324241E+02  0.15013069948E+02 -0.14683269837E+02  0.11090170087E+03  0.10115127710E+03 0.  0.
          5    1    3    3  502    0  0.19649556278E+01 -0.65577160359E+02 -0.49048453898E+02  0.82021023166E+02  0.41800000000E+01 0.  1.
         -5    1    3    3    0  502 -0.42296279868E+02  0.50564090411E+02 -0.64323507205E+02  0.92199178461E+02  0.41800000000E+01 0.  1.
        -11    1    4    4    0    0  0.52272342418E+02  0.50356925986E+02 -0.83459150163E+01  0.73060742359E+02  0.00000000000E+00 0.  1.
         11    1    4    4    0    0 -0.11941018177E+02 -0.35343856039E+02 -0.63373548211E+01  0.37840958509E+02  0.00000000000E+00 0. -1.
</event>
<event>
 8    1  0.5951278E-006  0.1081426E+03  0.7561462E-02  0.1264049E+00
         -4   -1    0    0    0  501 -0.00000000000E+00  0.00000000000E+00  0.20028348443E+03  0.20028348443E+03  0.00000000000E+00 0.  1.
          4   -1    0    0  501    0  0.00000000000E+00 -0.00000000000E+00 -0.11067582429E+03  0.11067582429E+03  0.00000000000E+00 0. -1.
         23    2    1    2    0    0 -0.69281019070E+02 -0.96044367236E+01  0.13178128455E+03  0.18981902902E+03  0.11735779484E+03 0.  0.
         23    2    1    2    0    0  0.69281019070E+02  0.96044367236E+01 -0.42173624408E+02  0.12114027971E+03  0.89466462785E+02 0.  0.
          5    1    3    3  502    0 -0.48613991180E+02 -0.62348377925E+02  0.67534691810E+02  0.10406270882E+03  0.41800000000E+01 0. -1.
         -5    1    3    3    0  502 -0.20667027890E+02  0.52743941202E+02  0.64246592740E+02  0.85756320199E+02  0.41800000000E+01 0.  1.
        -11    1    4    4    0    0  0.27042255119E+02  0.23519778658E+02  0.22746682932E+02  0.42448499790E+02  0.00000000000E+00 0.  1.
         11    1    4    4    0    0  0.42238763951E+02 -0.13915341934E+02 -0.64920307339E+02  0.78691779916E+02  0.00000000000E+00 0. -1.
</event>
<event>
 8    1  0.5951278E-006  0.9403781E+02  0.7561462E-02  0.1293358E+00
         -2   -1    0    0    0  501 -0.00000000000E+00  0.00000000000E+00  0.69879247412E+02  0.69879247412E+02  0.00000000000E+00 0. -1.
          2   -1    0    0  501    0  0.00000000000E+00 -0.00000000000E+00 -0.21323957420E+03  0.21323957420E+03  0.00000000000E+00 0.  1.
         23    2    1    2    0    0 -0.15083865072E+02  0.13329089192E+02 -0.21338221433E+02  0.12848755290E+03  0.12509414036E+03 0.  0.
         23    2    1    2    0    0  0.15083865072E+02 -0.13329089192E+02 -0.12202210536E+03  0.15463126871E+03  0.92823744067E+02 0.  0.
          5    1    3    3  502    0 -0.47228735340E+02 -0.41408046646E+02 -0.13614143556E+02  0.64404946034E+02  0.41800000000E+01 0.  1.
         -5    1    3    3    0  502  0.32144870268E+02  0.54737135838E+02 -0.77240778774E+01  0.64082606870E+02  0.41800000000E+01 0.  1.
        -11    1    4    4    0    0  0.28951802621E+02  0.13012409967E+02 -0.12073139254E+03  0.12483428548E+03  0.00000000000E+00 0.  1.
         11    1    4    4    0    0 -0.13867937549E+02 -0.26341499159E+02 -0.12907128202E+01  0.29796983226E+02  0.00000000000E+00 0. -1.
</event>
<event>
 8    1  0.5951278E-006  0.8209861E+02  0.7561462E-02  0.1323199E+00
         -1   -1    0    0    0  501 -0.00000000000E+00  0.00000000000E+00  0.24954457270E+02  0.24954457270E+02  0.00000000000E+00 0.  1.
          1   -1    0    0  501    0  0.00000000000E+00 -0.00000000000E+00 -0.53919918139E+03  0.53919918139E+03  0.00000000000E+00 0. -1.
         23    2    1    2    0    0  0.12722098955E+02 -0.31203621060E+02 -0.22988501750E+03  0.26387508898E+03  0.12508966202E+03 0.  0.
         23    2    1    2    0    0 -0.12722098955E+02  0.31203621060E+02 -0.28435970662E+03  0.30027854968E+03  0.90394949418E+02 0.  0.
          5    1    3    3  502    0  0.32873031356E+02 -0.40110801716E+02 -0.24923109246E+02  0.57690089091E+02  0.41800000000E+01 0.  1.
         -5    1    3    3    0  502 -0.20150932401E+02  0.89071806563E+01 -0.20496190825E+03  0.20618499989E+03  0.41800000000E+01 0.  1.
        -11    1    4    4    0    0  0.89712346702E+01  0.56047899986E+02 -0.12139499091E+03  0.13400967862E+03  0.00000000000E+00 0.  1.
         11    1    4    4    0    0 -0.21693333625E+02 -0.24844278927E+02 -0.16296471571E+03  0.16626887106E+03  0.00000000000E+00 0. -1.
</event>
<event>
 8    1  0.5951278E-006  0.9515705E+02  0.7561462E-02  0.1290823E+00
         -1   -1    0    0    0  501 -0.00000000000E+00  0.00000000000E+00  0.28963456382E+03  0.28963456382E+03  0.00000000000E+00 0.  1.
          1   -1    0    0  501    0  0.00000000000E+00 -0.00000000000E+00 -0.87440277581E+02  0.87440277581E+02  0.00000000000E+00 0. -1.
         23    2    1    2    0    0  0.70580880030E+02  0.40045380944E+02  0.20015821973E+03  0.24959308725E+03  0.12509237833E+03 0.  0.
         23    2    1    2    0    0 -0.70580880030E+02 -0.40045380944E+02  0.20360665121E+01  0.12748175416E+03  0.98296281288E+02 0.  0.
          5    1    3    3  502    0  0.21032948700E+01  0.21002051973E+02 -0.12807919661E+02  0.25040472089E+02  0.41800000000E+01 0.  1.
         -5    1    3    3    0  502  0.68477585160E+02  0.19043328971E+02  0.21296613939E+03  0.22455261516E+03  0.41800000000E+01 0.  1.
        -11    1    4    4    0    0  0.85322866070E+00 -0.24470970896E+02  0.38619425496E+02  0.45727633236E+02  0.00000000000E+00 0.  1.
         11    1    4    4    0    0 -0.71434108691E+02 -0.15574410048E+02 -0.36583358984E+02  0.81754120920E+02  0.00000000000E+00 0. -1.
</event>
<event>
 8    1  0.5951278E-006  0.1749362E+03  0.7561462E-02  0.1172796E+00
         -1   -1    0    0    0  501 -0.00000000000E+00  0.00000000000E+00  0.28567602240E+02  0.28567602240E+02  0.00000000000E+00 0.  1.
          1   -1    0    0  501    0  0.00000000000E+00 -0.00000000000E+00 -0.12108249280E+04  0.12108249280E+04  0.00000000000E+00 0. -1.
         23    2    1    2    0    0  0.18241550445E+02 -0.15319346682E+03 -0.65450565107E+03  0.68397942160E+03  0.12509680034E+03 0.  0.
         23    2    1    2    0    0 -0.18241550445E+02  0.15319346682E+03 -0.52775167467E+03  0.55541310862E+03  0.78491392308E+02 0.  0.
          5    1    3    3  502    0 -0.47774148034E+02 -0.34876481393E+02 -0.26523785846E+03  0.27178545240E+03  0.41800000000E+01 0. -1.
         -5    1    3    3    0  502  0.66015698480E+02 -0.11831698543E+03 -0.38926779260E+03  0.41219396920E+03  0.41800000000E+01 0. -1.
        -11    1    4    4    0    0  0.12796478825E+01  0.48960936319E+02 -0.69324662758E+02  0.84880619994E+02  0.00000000000E+00 0.  1.
         11    1    4    4    0    0 -0.19521198328E+02  0.10423253050E+03 -0.45842701191E+03  0.47053248863E+03  0.00000000000E+00 0. -1.
</event>
<event>
 8    1  0.5951278E-006  0.6787230E+02  0.7561462E-02  0.1367482E+00
          1   -1    0    0  501    0  0.00000000000E+00  0.00000000000E+00  0.29727932501E+03  0.29727932501E+03  0.00000000000E+00 0. -1.
         -1   -1    0    0    0  501 -0.00000000000E+00 -0.00000000000E+00 -0.40980233968E+02  0.40980233968E+02  0.00000000000E+00 0.  1.
         23    2    1    2    0    0 -0.16213824054E+02 -0.14949302295E+02  0.14296779531E+03  0.19124447196E+03  0.12509311663E+03 0.  0.
         23    2    1    2    0    0  0.16213824054E+02  0.14949302295E+02  0.11333129573E+03  0.14701508702E+03  0.91011447031E+02 0.  0.
          5    1    3    3  502    0  0.84049767627E+01  0.58661811058E+01  0.15587445398E+03  0.15626699433E+03  0.41800000000E+01 0.  1.
         -5    1    3    3    0  502 -0.24618800817E+02 -0.20815483401E+02 -0.12906658666E+02  0.34977477622E+02  0.41800000000E+01 0.  1.
        -11    1    4    4    0    0 -0.24829645295E+02  0.37773487426E+02  0.68628609916E+02  0.82178061165E+02  0.00000000000E+00 0.  1.
         11    1    4    4    0    0  0.41043469349E+02 -0.22824185130E+02  0.44702685815E+02  0.64837025859E+02  0.00000000000E+00 0. -1.
</event>
<event>
 8    1  0.5951278E-006  0.1542573E+03  0.7561462E-02  0.1195337E+00
         -2   -1    0    0    0  501 -0.00000000000E+00  0.00000000000E+00  0.37780536603E+02  0.37780536603E+02  0.00000000000E+00 0.  1.
          2   -1    0    0  501    0  0.00000000000E+00 -0.00000000000E+00 -0.90185688824E+03  0.90185688824E+03  0.00000000000E+00 0. -1.
         23    2    1    2    0    0 -0.72185347359E+00 -0.12466624471E+03 -0.24914583919E+03  0.30539095458E+03  0.12509113601E+03 0.  0.
         23    2    1    2    0    0  0.72185347359E+00  0.12466624471E+03 -0.61493051245E+03  0.63424647027E+03  0.92665291589E+02 0.  0.
          5    1    3    3  502    0 -0.36239458652E+02 -0.11251836607E+03 -0.11112582056E+03  0.16229633841E+03  0.41800000000E+01 0.  1.
         -5    1    3    3    0  502  0.35517605179E+02 -0.12147878639E+02 -0.13802001863E+03  0.14309461616E+03  0.41800000000E+01 0.  1.
        -11    1    4    4    0    0 -0.39691926283E+02  0.93008346938E+02 -0.34666562992E+03  0.36111363943E+03  0.00000000000E+00 0. -1.
         11    1    4    4    0    0  0.40413779756E+02  0.31657897771E+02 -0.26826488253E+03  0.27313283084E+03  0.00000000000E+00 0.  1.
</event>
<event>
 8    1  0.5951278E-006  0.1068502E+03  0.7561462E-02  0.1266516E+00
          1   -1    0    0  501    0  0.00000000000E+00  0.00000000000E+00  0.24830509346E+03  0.24830509346E+03  0.00000000000E+00 0. -1.
         -1   -1    0    0    0  501 -0.00000000000E+00 -0.00000000000E+00 -0.48374921162E+02  0.48374921162E+02  0.00000000000E+00 0.  1.
         23    2    1    2    0    0  0.12140650586E+02 -0.15227171093E+02  0.10818267242E+03  0.16651546546E+03  0.12507856527E+03 0.  0.
         23    2    1    2    0    0 -0.12140650586E+02  0.15227171093E+02  0.91747499886E+02  0.13016454916E+03  0.90254883455E+02 0.  0.
          5    1    3    3  502    0 -0.53997604914E+02 -0.12483420178E+02  0.72015474405E+02  0.90968555389E+02  0.41800000000E+01 0. -1.
         -5    1    3    3    0  502  0.66138255500E+02 -0.27437509149E+01  0.36167198011E+02  0.75546910074E+02  0.41800000000E+01 0. -1.
        -11    1    4    4    0    0 -0.18700997574E+02  0.51574143087E+02  0.47847440627E+02  0.72794210759E+02  0.00000000000E+00 0. -1.
         11    1    4    4    0    0  0.65603469883E+01 -0.36346971994E+02  0.43900059259E+02  0.57370338405E+02  0.00000000000E+00 0.  1.
</event>
<event>
 8    1  0.5951278E-006  0.8598690E+02  0.7561462E-02  0.1312872E+00
          1   -1    0    0  501    0  0.00000000000E+00  0.00000000000E+00  0.24375998402E+03  0.24375998402E+03  0.00000000000E+00 0. -1.
         -1   -1    0    0    0  501 -0.00000000000E+00 -0.00000000000E+00 -0.78188203404E+02  0.78188203404E+02  0.00000000000E+00 0.  1.
         23    2    1    2    0    0 -0.57897668311E+02 -0.33801762852E+02  0.29313476784E+02  0.14491664013E+03  0.12508738345E+03 0.  0.
         23    2    1    2    0    0  0.57897668311E+02  0.33801762852E+02  0.13625830383E+03  0.17703154729E+03  0.90989802758E+02 0.  0.
          5    1    3    3  502    0 -0.54651047567E+02 -0.69935238132E+01 -0.41441131001E+02  0.69068705751E+02  0.41800000000E+01 0. -1.
         -5    1    3    3    0  502 -0.32466207444E+01 -0.26808239039E+02  0.70754607786E+02  0.75847934379E+02  0.41800000000E+01 0. -1.
        -11    1    4    4    0    0  0.82072562845E+01 -0.16660494858E+02  0.91245705640E+02  0.93116646967E+02  0.00000000000E+00 0. -1.
         11    1    4    4    0    0  0.49690412027E+02  0.50462257710E+02  0.45012598187E+02  0.83914900322E+02  0.00000000000E+00 0.  1.
</event>
<event>
 8    1  0.5951278E-006  0.9277721E+02  0.7561462E-02  0.1296262E+00
          2   -1    0    0  501    0  0.00000000000E+00  0.00000000000E+00  0.76059032827E+03  0.76059032827E+03  0.00000000000E+00 0. -1.
         -2   -1    0    0    0  501 -0.00000000000E+00 -0.00000000000E+00 -0.18421849927E+02  0.18421849927E+02  0.00000000000E+00 0.  1.
         23    2    1    2    0    0  0.59233858423E+02  0.11504795751E+02  0.31842099209E+03  0.34241348492E+03  0.11051722100E+03 0.  0.
         23    2    1    2    0    0 -0.59233858423E+02 -0.11504795751E+02  0.42374748625E+03  0.43659869328E+03  0.86113161378E+02 0.  0.
          5    1    3    3  502    0  0.14158086798E+01 -0.19312483008E+02  0.23697705062E+03  0.23780364050E+03  0.41800000000E+01 0. -1.
         -5    1    3    3    0  502  0.57818049743E+02  0.30817278759E+02  0.81443941475E+02  0.10460984442E+03  0.41800000000E+01 0.  1.
        -11    1    4    4    0    0  0.10540460628E+02 -0.26680514914E+02  0.68820488084E+02  0.74560115118E+02  0.00000000000E+00 0. -1.
         11    1    4    4    0    0 -0.69774319050E+02  0.15175719163E+02  0.35492699817E+03  0.36203857816E+03  0.00000000000E+00 0.  1.
</event>
<event>
 8    1  0.5951278E-006  0.1067041E+03  0.7561462E-02  0.1266798E+00
          1   -1    0    0  501    0  0.00000000000E+00  0.00000000000E+00  0.10177391294E+03  0.10177391294E+03  0.00000000000E+00 0. -1.
         -1   -1    0    0    0  501 -0.00000000000E+00 -0.00000000000E+00 -0.15190291703E+03  0.15190291703E+03  0.00000000000E+00 0.  1.
         23    2    1    2    0    0 -0.58066770079E+02  0.69523754583E+01 -0.25284326339E+02  0.14038448029E+03  0.12509364427E+03 0.  0.
         23    2    1    2    0    0  0.58066770079E+02 -0.69523754583E+01 -0.24844677753E+02  0.11329234968E+03  0.93796658632E+02 0.  0.
          5    1    3    3  502    0 -0.89331097931E+02  0.14741898529E+02  0.11435543816E+02  0.91354324978E+02  0.41800000000E+01 0.  1.
         -5    1    3    3    0  502  0.31264327852E+02 -0.77895230710E+01 -0.36719870155E+02  0.49030155312E+02  0.41800000000E+01 0.  1.
        -11    1    4    4    0    0 -0.11569908380E+02 -0.16333992691E+02 -0.36919537941E+02  0.41996599612E+02  0.00000000000E+00 0.  1.
         11    1    4    4    0    0  0.69636678459E+02  0.93816172326E+01  0.12074860188E+02  0.71295750065E+02  0.00000000000E+00 0. -1.
</event>
<event>
 8    1  0.5951278E-006  0.4950064E+02  0.7561462E-02  0.1448054E+00
          1   -1    0    0  501    0  0.00000000000E+00  0.00000000000E+00  0.60092477954E+02  0.60092477954E+02  0.00000000000E+00 0. -1.
         -1   -1    0    0    0  501 -0.00000000000E+00 -0.00000000000E+00 -0.24099519733E+03  0.24099519733E+03  0.00000000000E+00 0.  1.
         23    2    1    2    0    0 -0.20702974942E+02 -0.53358554205E+01 -0.15694277566E+03  0.20182904934E+03  0.12508735268E+03 0.  0.
         23    2    1    2    0    0  0.20702974942E+02  0.53358554205E+01 -0.23959943715E+02  0.99258625945E+02  0.93920771915E+02 0.  0.
          5    1    3    3  502    0  0.12270082671E+02 -0.11794793248E+00 -0.16638178233E+03  0.16688600520E+03  0.41800000000E+01 0. -1.
         -5    1    3    3    0  502 -0.32973057614E+02 -0.52179074880E+01  0.94390066671E+01  0.34943044141E+02  0.41800000000E+01 0. -1.
        -11    1    4    4    0    0  0.21635298227E+02 -0.18544667323E+02 -0.53888644390E+02  0.60958812404E+02  0.00000000000E+00 0.  1.
         11    1    4    4    0    0 -0.93232328413E+00  0.23880522743E+02  0.29928700675E+02  0.38299813541E+02  0.00000000000E+00 0. -1.
</event>
<event>
 8    1  0.5951278E-006  0.1054821E+03  0.7561462E-02  0.1269173E+00
          2   -1    0    0  501    0  0.00000000000E+00  0.00000000000E+00  0.43580826420E+03  0.43580826420E+03  0.00000000000E+00 0. -1.
         -2   -1    0    0    0  501 -0.00000000000E+00 -0.00000000000E+00 -0.40972758417E+02  0.40972758417E+02  0.00000000000E+00 0.  1.
         23    2    1    2    0    0 -0.25250654488E+02  0.55215981445E+02  0.12665777176E+03  0.18808471224E+03  0.12508903898E+03 0.  0.
         23    2    1    2    0    0  0.25250654488E+02 -0.55215981445E+02  0.26817773402E+03  0.28869631037E+03  0.87976487990E+02 0.  0.
          5    1    3    3  502    0 -0.10928917504E+02 -0.22362481205E+02  0.10237018151E+03  0.10543551710E+03  0.41800000000E+01 0.  1.
         -5    1    3    3    0  502 -0.14321736984E+02  0.77578462650E+02  0.24287590248E+02  0.82649195141E+02  0.41800000000E+01 0.  1.
        -11    1    4    4    0    0  0.20138630253E+02 -0.79447703182E+02  0.19888309197E+03  0.21510924257E+03  0.00000000000E+00 0.  1.
         11    1    4    4    0    0  0.51120242354E+01  0.24231721737E+02  0.69294642049E+02  0.73587067797E+02  0.00000000000E+00 0. -1.
</event>
<event>
 8    1  0.5951278E-006  0.1665065E+03  0.7561462E-02  0.1181541E+00
         -1   -1    0    0    0  501 -0.00000000000E+00  0.00000000000E+00  0.20977112089E+03  0.20977112089E+03  0.00000000000E+00 0.  1.
          1   -1    0    0  501    0  0.00000000000E+00 -0.00000000000E+00 -0.21276881150E+03  0.21276881150E+03  0.00000000000E+00 0. -1.
         23    2    1    2    0    0  0.13976059381E+03  0.27865705776E+02  0.11040684281E+03  0.21941881785E+03  0.12508167550E+03 0.  0.
         23    2    1    2    0    0 -0.13976059381E+03 -0.27865705776E+02 -0.11340453342E+03  0.20312111454E+03  0.89933741343E+02 0.  0.
          5    1    3    3  502    0  0.14869451321E+03  0.14988823190E+01  0.57496476433E+02  0.15948549185E+03  0.41800000000E+01 0. -1.
         -5    1    3    3    0  502 -0.89339194078E+01  0.26366823457E+02  0.52910366375E+02  0.59933325997E+02  0.41800000000E+01 0. -1.
        -11    1    4    4    0    0 -0.13258079035E+03 -0.55922020462E+01 -0.11989032795E+03  0.17883687939E+03  0.00000000000E+00 0. -1.
         11    1    4    4    0    0 -0.71798034549E+01 -0.22273503730E+02  0.64857945315E+01  0.24284235149E+02  0.00000000000E+00 0.  1.
</event>
<event>
 8    1  0.5951278E-006  0.1382196E+03  0.7561462E-02  0.1215745E+00
         -2   -1    0    0    0  501 -0.00000000000E+00  0.00000000000E+00  0.52378053412E+03  0.52378053412E+03  0.00000000000E+00 0.  1.
          2   -1    0    0  501    0  0.00000000000E+00 -0.00000000000E+00 -0.46289317217E+02  0.46289317217E+02  0.00000000000E+00 0. -1.
         23    2    1    2    0    0 -0.20521700926E+02 -0.10881693686E+03  0.24677097949E+03  0.29800175333E+03  0.12508742029E+03 0.  0.
         23    2    1    2    0    0  0.20521700926E+02  0.10881693686E+03  0.23072023742E+03  0.27206809801E+03  0.92341518516E+02 0.  0.
          5    1    3    3  502    0 -0.48434161210E+02 -0.18533059930E+02  0.16485511733E+03  0.17286996383E+03  0.41800000000E+01 0.  1.
         -5    1    3    3    0  502  0.27912460284E+02 -0.90283876930E+02  0.81915862153E+02  0.12513178951E+03  0.41800000000E+01 0.  1.
        -11    1    4    4    0    0  0.43497580621E+02  0.47843638777E+02  0.55810347150E+02  0.85415737076E+02  0.00000000000E+00 0.  1.
         11    1    4    4    0    0 -0.22975879695E+02  0.60973298084E+02  0.17490989027E+03  0.18665236093E+03  0.00000000000E+00 0. -1.
</event>
<event>
 8    1  0.5951278E-006  0.1186594E+03  0.7561462E-02  0.1245325E+00
          3   -1    0    0  501    0  0.00000000000E+00  0.00000000000E+00  0.55503388551E+02  0.55503388551E+02  0.00000000000E+00 0. -1.
         -3   -1    0    0    0  501 -0.00000000000E+00 -0.00000000000E+00 -0.32700433302E+03  0.32700433302E+03  0.00000000000E+00 0.  1.
         23    2    1    2    0    0 -0.28274795994E+02  0.71982788201E+02 -0.14268337539E+03  0.20490387634E+03  0.12508423978E+03 0.  0.
         23    2    1    2    0    0  0.28274795994E+02 -0.71982788201E+02 -0.12881756908E+03  0.17760384522E+03  0.94700442714E+02 0.  0.
          5    1    3    3  502    0  0.15765870470E+02  0.71084918690E+02 -0.14314514446E+03  0.16065376784E+03  0.41800000000E+01 0. -1.
         -5    1    3    3    0  502 -0.44040666464E+02  0.89786951148E+00  0.46176907216E+00  0.44250108507E+02  0.41800000000E+01 0. -1.
        -11    1    4    4    0    0 -0.30332773491E+02 -0.43458475746E+01 -0.19486348654E+02  0.36313652015E+02  0.00000000000E+00 0. -1.
         11    1    4    4    0    0  0.58607569485E+02 -0.67636940627E+02 -0.10933122042E+03  0.14129019321E+03  0.00000000000E+00 0.  1.
</event>
<event>
 8    1  0.5951278E-006  0.1075503E+03  0.7561462E-02  0.1265175E+00
          2   -1    0    0  501    0  0.00000000000E+00  0.00000000000E+00  0.85192212585E+02  0.85192212585E+02  0.00000000000E+00 0. -1.
         -2   -1    0    0    0  501 -0.00000000000E+00 -0.00000000000E+00 -0.33932022708E+03  0.33932022708E+03  0.00000000000E+00 0.  1.
         23    2    1    2    0    0 -0.37237269371E+02  0.24083424611E+02 -0.28850621218E+03  0.31668980810E+03  0.12284125740E+03 0.  0.
         23    2    1    2    0    0  0.37237269371E+02 -0.24083424611E+02  0.34378197689E+02  0.10782263156E+03  0.92071894887E+02 0.  0.
          5    1    3    3  502    0 -0.18203248458E+01 -0.44852684852E+02 -0.57960810139E+02  0.73430271911E+02  0.41800000000E+01 0. -1.
         -5    1    3    3    0  502 -0.35416944526E+02  0.68936109463E+02 -0.23054540204E+03  0.24325953619E+03  0.41800000000E+01 0.  1.
        -11    1    4    4    0    0 -0.25532675130E+02 -0.13034401249E+02  0.33486695380E+02  0.44081423328E+02  0.00000000000E+00 0.  1.
         11    1    4    4    0    0  0.62769944501E+02 -0.11049023361E+02  0.89150230903E+00  0.63741208227E+02  0.00000000000E+00 0. -1.
</event>
<event>
 8    1  0.5951278E-006  0.8149641E+02  0.7561462E-02  0.1324858E+00
          2   -1    0    0  501    0  0.00000000000E+00  0.00000000000E+00  0.50265343453E+03  0.50265343453E+03  0.00000000000E+00 0. -1.
         -2   -1    0    0    0  501 -0.00000000000E+00 -0.00000000000E+00 -0.25080374344E+02  0.25080374344E+02  0.00000000000E+00 0.  1.
         23    2    1    2    0    0 -0.20439495492E+02  0.21225010239E+02  0.25457481916E+03  0.28517300888E+03  0.12508809859E+03 0.  0.
         23    2    1    2    0    0  0.20439495492E+02 -0.21225010239E+02  0.22299824103E+03  0.24256079999E+03  0.90770326407E+02 0.  0.
          5    1    3    3  502    0 -0.42683629756E+02  0.33906749186E+02  0.36904316730E+02  0.65961813823E+02  0.41800000000E+01 0. -1.
         -5    1    3    3    0  502  0.22244134265E+02 -0.12681738947E+02  0.21767050243E+03  0.21921119506E+03  0.41800000000E+01 0. -1.
        -11    1    4    4    0    0  0.85347127424E+01 -0.50268527445E+02  0.71336999373E+02  0.87685424403E+02  0.00000000000E+00 0.  1.
         11    1    4    4    0    0  0.11904782749E+02  0.29043517206E+02  0.15166124165E+03  0.15487537559E+03  0.00000000000E+00 0. -1.
</event>
<event>
 8    1  0.5951278E-006  0.2849653E+03  0.7561462E-02  0.1093007E+00
          2   -1    0    0  501    0  0.00000000000E+00  0.00000000000E+00  0.11061724301E+04  0.11061724301E+04  0.00000000000E+00 0. -1.
         -2   -1    0    0    0  501 -0.00000000000E+00 -0.00000000000E+00 -0.79758946183E+02  0.79758946183E+02  0.00000000000E+00 0.  1.
         23    2    1    2    0    0  0.27225579479E+03  0.45316115650E+02  0.49723692625E+03  0.58229806601E+03  0.12509879582E+03 0.  0.
         23    2    1    2    0    0 -0.27225579479E+03 -0.45316115650E+02  0.52917655764E+03  0.60363331025E+03  0.90380174538E+02 0.  0.
          5    1    3    3  502    0  0.17036947639E+03  0.71573173800E+02  0.23003455446E+03  0.29509633400E+03  0.41800000000E+01 0. -1.
         -5    1    3    3    0  502  0.10188631840E+03 -0.26257058149E+02  0.26720237179E+03  0.28720173201E+03  0.41800000000E+01 0. -1.
        -11    1    4    4    0    0 -0.78575989628E+02  0.77959913054E+01  0.23106844814E+03  0.24418761507E+03  0.00000000000E+00 0. -1.
         11    1    4    4    0    0 -0.19367980516E+03 -0.53112106956E+02  0.29810810949E+03  0.35944569517E+03  0.00000000000E+00 0.  1.
</event>
<event>
 8    1  0.5951278E-006  0.2329350E+03  0.7561462E-02  0.1124591E+00
          2   -1    0    0  501    0  0.00000000000E+00  0.00000000000E+00  0.65511804905E+03  0.65511804905E+03  0.00000000000E+00 0. -1.
         -2   -1    0    0    0  501 -0.00000000000E+00 -0.00000000000E+00 -0.94743479140E+02  0.94743479140E+02  0.00000000000E+00 0.  1.
         23    2    1    2    0    0 -0.15713135887E+03  0.14193145407E+03  0.16613587512E+03  0.29678463261E+03  0.12508072419E+03 0.  0.
         23    2    1    2    0    0  0.15713135887E+03 -0.14193145407E+03  0.39423869480E+03  0.45307689558E+03  0.70850005215E+02 0.  0.
          5    1    3    3  502    0 -0.35051109437E+02  0.11124865927E+03  0.55905342684E+02  0.12941299859E+03  0.41800000000E+01 0. -1.
         -5    1    3    3    0  502 -0.12208024943E+03  0.30682794795E+02  0.11023053243E+03  0.16737163403E+03  0.41800000000E+01 0. -1.
        -11    1    4    4    0    0  0.72785674679E+02 -0.20973899725E+02  0.13928859324E+03  0.15855273922E+03  0.00000000000E+00 0. -1.
         11    1    4    4    0    0  0.84345684188E+02 -0.12095755434E+03  0.25495010156E+03  0.29452415636E+03  0.00000000000E+00 0.  1.
</event>
<event>
 8    1  0.5951278E-006  0.2041530E+03  0.7561462E-02  0.1146282E+00
         -3   -1    0    0    0  501 -0.00000000000E+00  0.00000000000E+00  0.62161898468E+03  0.62161898468E+03  0.00000000000E+00 0.  1.
          3   -1    0    0  501    0  0.00000000000E+00 -0.00000000000E+00 -0.86681329809E+02  0.86681329809E+02  0.00000000000E+00 0. -1.
         23    2    1    2    0    0  0.67358809001E+02  0.16903365654E+03  0.42167215058E+03  0.47597980412E+03  0.12505912669E+03 0.  0.
         23    2    1    2    0    0 -0.67358809001E+02 -0.16903365654E+03  0.11326550430E+03  0.23232051037E+03  0.89633469652E+02 0.  0.
          5    1    3    3  502    0  0.60909474569E+02  0.18936253679E+03  0.37576575679E+03  0.42518879431E+03  0.41800000000E+01 0.  1.
         -5    1    3    3    0  502  0.64493344316E+01 -0.20328880257E+02  0.45906393790E+02  0.50791009814E+02  0.41800000000E+01 0.  1.
        -11    1    4    4    0    0  0.34615026935E+01 -0.42227940267E+02  0.68124382467E+02  0.80225385175E+02  0.00000000000E+00 0.  1.
         11    1    4    4    0    0 -0.70820311695E+02 -0.12680571627E+03  0.45141121829E+02  0.15209512519E+03  0.00000000000E+00 0. -1.
</event>
<event>
 8    1  0.5951278E-006  0.7113760E+02  0.7561462E-02  0.1356267E+00
         -1   -1    0    0    0  501 -0.00000000000E+00  0.00000000000E+00  0.54126689769E+03  0.54126689769E+03  0.00000000000E+00 0.  1.
          1   -1    0    0  501    0  0.00000000000E+00 -0.00000000000E+00 -0.40459566751E+02  0.40459566751E+02  0.00000000000E+00 0. -1.
         23    2    1    2    0    0 -0.15395538485E+01  0.58807120260E+02  0.43254169843E+03  0.45409253815E+03  0.12508822770E+03 0.  0.
         23    2    1    2    0    0  0.15395538485E+01 -0.58807120260E+02  0.68265632515E+02  0.12763392629E+03  0.90385700963E+02 0.  0.
          5    1    3    3  502    0 -0.39174250811E+01  0.40766425856E+02  0.29564696553E+02  0.50683245542E+02  0.41800000000E+01 0. -1.
         -5    1    3    3    0  502  0.23778712326E+01  0.18040694404E+02  0.40297700187E+03  0.40340929261E+03  0.41800000000E+01 0. -1.
        -11    1    4    4    0    0  0.29055975308E+02 -0.21815613391E+02  0.72744167260E+02  0.81313495553E+02  0.00000000000E+00 0.  1.
         11    1    4    4    0    0 -0.27516421459E+02 -0.36991506870E+02 -0.44785347443E+01  0.46320430739E+02  0.00000000000E+00 0. -1.
</event>
<event>
 8    1  0.5951278E-006  0.1684751E+03  0.7561462E-02  0.1179447E+00
         -2   -1    0    0    0  501 -0.00000000000E+00  0.00000000000E+00  0.60566363457E+03  0.60566363457E+03  0.00000000000E+00 0.  1.
          2   -1    0    0  501    0  0.00000000000E+00 -0.00000000000E+00 -0.62532314246E+02  0.62532314246E+02  0.00000000000E+00 0. -1.
         23    2    1    2    0    0  0.12348371971E+03 -0.83001510612E+02  0.39715866155E+03  0.44217613716E+03  0.12508898444E+03 0.  0.
         23    2    1    2    0    0 -0.12348371971E+03  0.83001510612E+02  0.14597265878E+03  0.22601981166E+03  0.87403995077E+02 0.  0.
          5    1    3    3  502    0  0.80473903428E+01  0.22697871529E+02  0.13784663885E+02  0.28061418740E+02  0.41800000000E+01 0.  1.
         -5    1    3    3    0  502  0.11543632937E+03 -0.10569938214E+03  0.38337399766E+03  0.41411471842E+03  0.41800000000E+01 0.  1.
        -11    1    4    4    0    0 -0.63532241437E+02  0.70107036151E+02  0.38220220594E+02  0.10203983282E+03  0.00000000000E+00 0. -1.
         11    1    4    4    0    0 -0.59951478276E+02  0.12894474460E+02  0.10775243818E+03  0.12397997884E+03  0.00000000000E+00 0.  1.
</event>
<event>
 8    1  0.5951278E-006  0.1235111E+03  0.7561462E-02  0.1237415E+00
          1   -1    0    0  501    0  0.00000000000E+00  0.00000000000E+00  0.19766321522E+03  0.19766321522E+03  0.00000000000E+00 0. -1.
         -1   -1    0    0    0  501 -0.00000000000E+00 -0.00000000000E+00 -0.13068204511E+03  0.13068204511E+03  0.00000000000E+00 0.  1.
         23    2    1    2    0    0 -0.72222931413E+02 -0.70081926775E+02 -0.29062436674E+02  0.16315029558E+03  0.12508303418E+03 0.  0.
         23    2    1    2    0    0  0.72222931413E+02  0.70081926775E+02  0.96043606783E+02  0.16519496476E+03  0.89091939569E+02 0.  0.
          5    1    3    3  502    0  0.14494307858E+02 -0.55495967527E+02  0.21771878844E+02  0.61492881543E+02  0.41800000000E+01 0.  1.
         -5    1    3    3    0  502 -0.86717239271E+02 -0.14585959247E+02 -0.50834315518E+02  0.10165741403E+03  0.41800000000E+01 0.  1.
        -11    1    4    4    0    0  0.60464073377E+02  0.64670946656E+02  0.23629268672E+02  0.91632842631E+02  0.00000000000E+00 0.  1.
         11    1    4    4    0    0  0.11758858036E+02  0.54109801190E+01  0.72414338111E+02  0.73562122130E+02  0.00000000000E+00 0. -1.
</event>
<event>
 8    1  0.5951278E-006  0.1924407E+03  0.7561462E-02  0.1156278E+00
         -1   -1    0    0    0  501 -0.00000000000E+00  0.00000000000E+00  0.18090065054E+03  0.18090065054E+03  0.00000000000E+00 0.  1.
          1   -1    0    0  501    0  0.00000000000E+00 -0.00000000000E+00 -0.23343049300E+03  0.23343049300E+03  0.00000000000E+00 0. -1.
         23    2    1    2    0    0  0.17405428145E+03 -0.56652614660E+01 -0.22411779415E+02  0.21557399121E+03  0.12507145858E+03 0.  0.
         23    2    1    2    0    0 -0.17405428145E+03  0.56652614660E+01 -0.30118063036E+02  0.19875715234E+03  0.90941298683E+02 0.  0.
          5    1    3    3  502    0  0.16630328634E+03 -0.38991590698E+02 -0.41967675172E+02  0.17594284684E+03  0.41800000000E+01 0. -1.
         -5    1    3    3    0  502  0.77509951030E+01  0.33326329232E+02  0.19555895756E+02  0.39631144369E+02  0.41800000000E+01 0. -1.
        -11    1    4    4    0    0 -0.53346124684E+02 -0.18463380716E+02 -0.48339584905E+02  0.74319720902E+02  0.00000000000E+00 0.  1.
         11    1    4    4    0    0 -0.12070815676E+03  0.24128642182E+02  0.18221521869E+02  0.12443743143E+03  0.00000000000E+00 0. -1.
</event>
<event>
 8    1  0.5951278E-006  0.1031937E+03  0.7561462E-02  0.1273720E+00
         -1   -1    0    0    0  501 -0.00000000000E+00  0.00000000000E+00  0.12519061434E+03  0.12519061434E+03  0.00000000000E+00 0.  1.
          1   -1    0    0  501    0  0.00000000000E+00 -0.00000000000E+00 -0.12936492358E+03  0.12936492358E+03  0.00000000000E+00 0. -1.
         23    2    1    2    0    0  0.55900722985E+01  0.44265159204E+02  0.45261657957E+02  0.14030792262E+03  0.12508813789E+03 0.  0.
         23    2    1    2    0    0 -0.55900722985E+01 -0.44265159204E+02 -0.49435967199E+02  0.11424761530E+03  0.92832911841E+02 0.  0.
          5    1    3    3  502    0  0.39993113597E+02 -0.29106981470E+02  0.54972505426E+01  0.49943544819E+02  0.41800000000E+01 0. -1.
         -5    1    3    3    0  502 -0.34403041299E+02  0.73372140675E+02  0.39764407414E+02  0.90364377798E+02  0.41800000000E+01 0. -1.
        -11    1    4    4    0    0 -0.66921125992E+01  0.14948636845E+02  0.18108097235E+02  0.24416168824E+02  0.00000000000E+00 0.  1.
         11    1    4    4    0    0  0.11020403007E+01 -0.59213796050E+02 -0.67544064434E+02  0.89831446474E+02  0.00000000000E+00 0. -1.
</event>
<event>
 8    1  0.5951278E-006  0.1317984E+03  0.7561462E-02  0.1224811E+00
         -2   -1    0    0    0  501 -0.00000000000E+00  0.00000000000E+00  0.94665834360E+03  0.94665834360E+03  0.00000000000E+00 0.  1.
          2   -1    0    0  501    0  0.00000000000E+00 -0.00000000000E+00 -0.31376469509E+02  0.31376469509E+02  0.00000000000E+00 0. -1.
         23    2    1    2    0    0 -0.33270475020E+02  0.10844413558E+03  0.68203980089E+03  0.70263342737E+03  0.12509351786E+03 0.  0.
         23    2    1    2    0    0  0.33270475020E+02 -0.10844413558E+03  0.23324207320E+03  0.27540138574E+03  0.92612113170E+02 0.  0.
          5    1    3    3  502    0 -0.58446350319E+01  0.94685270464E+02  0.22077171728E+03  0.24032703500E+03  0.41800000000E+01 0.  1.
         -5    1    3    3    0  502 -0.27425839988E+02  0.13758865116E+02  0.46126808362E+03  0.46230639238E+03  0.41800000000E+01 0.  1.
        -11    1    4    4    0    0  0.58689001069E+02 -0.83473760606E+02  0.20816589715E+03  0.23183034377E+03  0.00000000000E+00 0.  1.
         11    1    4    4    0    0 -0.25418526050E+02 -0.24970374973E+02  0.25076176050E+02  0.43571041968E+02  0.00000000000E+00 0. -1.
</event>
<event>
 8    1  0.5951278E-006  0.8354989E+02  0.7561462E-02  0.1319269E+00
         -1   -1    0    0    0  501 -0.00000000000E+00  0.00000000000E+00  0.54372343750E+02  0.54372343750E+02  0.00000000000E+00 0.  1.
          1   -1    0    0  501    0  0.00000000000E+00 -0.00000000000E+00 -0.23950511759E+03  0.23950511759E+03  0.00000000000E+00 0. -1.
         23    2    1    2    0    0 -0.99475525283E+01 -0.82121838903E+01 -0.49726134032E+02  0.13064458195E+03  0.12012045879E+03 0.  0.
         23    2    1    2    0    0  0.99475525283E+01  0.82121838903E+01 -0.13540663981E+03  0.16323287939E+03  0.90242013749E+02 0.  0.
          5    1    3    3  502    0  0.14132852800E+02  0.31638204209E+02 -0.71128274621E+02  0.79230154262E+02  0.41800000000E+01 0. -1.
         -5    1    3    3    0  502 -0.24080405328E+02 -0.39850388099E+02  0.21402140588E+02  0.51414427685E+02  0.41800000000E+01 0.  1.
        -11    1    4    4    0    0 -0.21495231909E+02 -0.29403511008E+02 -0.87087927948E+02  0.94397662305E+02  0.00000000000E+00 0.  1.
         11    1    4    4    0    0  0.31442784437E+02  0.37615694898E+02 -0.48318711861E+02  0.68835217090E+02  0.00000000000E+00 0. -1.
</event>
<event>
 8    1  0.5951278E-006  0.2810945E+03  0.7561462E-02  0.1095093E+00
         -2   -1    0    0    0  501 -0.00000000000E+00  0.00000000000E+00  0.66144001864E+02  0.66144001864E+02  0.00000000000E+00 0.  1.
          2   -1    0    0  501    0  0.00000000000E+00 -0.00000000000E+00 -0.12346027164E+04  0.12346027164E+04  0.00000000000E+00 0. -1.
         23    2    1    2    0    0 -0.23259816813E+03  0.11860346228E+03 -0.52446132444E+03  0.59906281332E+03  0.12509150406E+03 0.  0.
         23    2    1    2    0    0  0.23259816813E+03 -0.11860346228E+03 -0.64399739008E+03  0.70168390493E+03  0.97257261539E+02 0.  0.
          5    1    3    3  502    0 -0.29863418483E+02  0.73243317081E+02 -0.11148796417E+03  0.13676054188E+03  0.41800000000E+01 0. -1.
         -5    1    3    3    0  502 -0.20273474965E+03  0.45360145203E+02 -0.41297336026E+03  0.46230227143E+03  0.41800000000E+01 0. -1.
        -11    1    4    4    0    0  0.21139391380E+03 -0.70864419865E+02 -0.47352881170E+03  0.52339152487E+03  0.00000000000E+00 0.  1.
         11    1    4    4    0    0  0.21204254334E+02 -0.47739042418E+02 -0.17046857838E+03  0.17829238006E+03  0.00000000000E+00 0. -1.
</event>
<event>
 8    1  0.5951278E-006  0.7298941E+02  0.7561462E-02  0.1350213E+00
          1   -1    0    0  501    0  0.00000000000E+00  0.00000000000E+00  0.10138222653E+03  0.10138222653E+03  0.00000000000E+00 0. -1.
         -1   -1    0    0    0  501 -0.00000000000E+00 -0.00000000000E+00 -0.12264633505E+03  0.12264633505E+03  0.00000000000E+00 0.  1.
         23    2    1    2    0    0 -0.23334621000E+02  0.11091231968E+02 -0.17766895563E+02  0.12896030419E+03  0.12509027746E+03 0.  0.
         23    2    1    2    0    0  0.23334621000E+02 -0.11091231968E+02 -0.34972129592E+01  0.95068257396E+02  0.91423318153E+02 0.  0.
          5    1    3    3  502    0  0.27500903449E+02  0.31015979342E+02  0.33870389376E+02  0.53693261602E+02  0.41800000000E+01 0.  1.
         -5    1    3    3    0  502 -0.50835524449E+02 -0.19924747374E+02 -0.51637284939E+02  0.75267042587E+02  0.41800000000E+01 0.  1.
        -11    1    4    4    0    0  0.21370005514E+02  0.13244104030E+02  0.38798348015E+02  0.46231972010E+02  0.00000000000E+00 0. -1.
         11    1    4    4    0    0  0.19646154859E+01 -0.24335335998E+02 -0.42295560975E+02  0.48836285386E+02  0.00000000000E+00 0.  1.
</event>
<event>
 8    1  0.5951278E-006  0.8081876E+02  0.7561462E-02  0.1326744E+00
          1   -1    0    0  501    0  0.00000000000E+00  0.00000000000E+00  0.36700653781E+03  0.36700653781E+03  0.00000000000E+00 0. -1.
         -1   -1    0    0    0  501 -0.00000000000E+00 -0.00000000000E+00 -0.41282778026E+02  0.41282778026E+02  0.00000000000E+00 0.  1.
         23    2    1    2    0    0 -0.34578626981E+02 -0.47353992624E+02  0.17266762546E+03  0.22113092758E+03  0.12508675464E+03 0.  0.
         23    2    1    2    0    0  0.34578626981E+02  0.47353992624E+02  0.15305613432E+03  0.18715838826E+03  0.90354855881E+02 0.  0.
          5    1    3    3  502    0  0.11272824184E+02  0.90576038079E+01 -0.14128250805E+02  0.20644530090E+02  0.41800000000E+01 0.  1.
         -5    1    3    3    0  502 -0.45851451166E+02 -0.56411596432E+02  0.18679587627E+03  0.20048639748E+03  0.41800000000E+01 0.  1.
        -11    1    4    4    0    0  0.17509427523E+02  0.52978647152E+02  0.15877864250E+03  0.16829727990E+03  0.00000000000E+00 0. -1.
         11    1    4    4    0    0  0.17069199459E+02 -0.56246545275E+01 -0.57225081819E+01  0.18861108361E+02  0.00000000000E+00 0.  1.
</event>
<event>
 8    1  0.5951278E-006  0.1122592E+03  0.7561462E-02  0.1256442E+00
          1   -1    0    0  501    0  0.00000000000E+00  0.00000000000E+00  0.28981035711E+02  0.28981035711E+02  0.00000000000E+00 0. -1.
         -1   -1    0    0    0  501 -0.00000000000E+00 -0.00000000000E+00 -0.55413632702E+03  0.55413632702E+03  0.00000000000E+00 0.  1.
         23    2    1    2    0    0  0.37705564547E+02  0.20346717910E+02 -0.38585791257E+03  0.40788414145E+03  0.12508975029E+03 0.  0.
         23    2    1    2    0    0 -0.37705564547E+02 -0.20346717910E+02 -0.13929737874E+03  0.17523322128E+03  0.97299658726E+02 0.  0.
          5    1    3    3  502    0  0.70124491829E+02  0.41207762171E+02 -0.16916786976E+03  0.18775186971E+03  0.41800000000E+01 0.  1.
         -5    1    3    3    0  502 -0.32418927282E+02 -0.20861044261E+02 -0.21669004280E+03  0.22013227174E+03  0.41800000000E+01 0.  1.
        -11    1    4    4    0    0 -0.69992102316E+02 -0.14777768427E+02 -0.78751791227E+02  0.10639135984E+03  0.00000000000E+00 0. -1.
         11    1    4    4    0    0  0.32286537770E+02 -0.55689494827E+01 -0.60545587515E+02  0.68841861444E+02  0.00000000000E+00 0.  1.
</event>
<event>
 8    1  0.5951278E-006  0.1141733E+03  0.7561462E-02  0.1253031E+00
          3   -1    0    0  501    0  0.00000000000E+00  0.00000000000E+00  0.70710763053E+03  0.70710763053E+03  0.00000000000E+00 0. -1.
         -3   -1    0    0    0  501 -0.00000000000E+00 -0.00000000000E+00 -0.26410051530E+02  0.26410051530E+02  0.00000000000E+00 0.  1.
         23    2    1    2    0    0 -0.32811585857E+02 -0.71438117431E+02  0.29467059098E+03  0.32963309296E+03  0.12508882445E+03 0.  0.
         23    2    1    2    0    0  0.32811585857E+02  0.71438117431E+02  0.38602698802E+03  0.40388458910E+03  0.89027641997E+02 0.  0.
          5    1    3    3  502    0 -0.46438238071E+02 -0.91383875479E+01  0.24256499628E+03  0.24717457374E+03  0.41800000000E+01 0. -1.
         -5    1    3    3    0  502  0.13626652214E+02 -0.62299729883E+02  0.52105594695E+02  0.82458519223E+02  0.41800000000E+01 0. -1.
        -11    1    4    4    0    0  0.17869746786E+02 -0.18518763961E+02  0.11787420972E+03  0.12065074300E+03  0.00000000000E+00 0. -1.
         11    1    4    4    0    0  0.14941839071E+02  0.89956881391E+02  0.26815277830E+03  0.28323384610E+03  0.00000000000E+00 0.  1.
</event>
<event>
 8    1  0.5951278E-006  0.8103009E+02  0.7561462E-02  0.1326153E+00
         -2   -1    0    0    0  501 -0.00000000000E+00  0.00000000000E+00  0.99122484646E+02  0.99122484646E+02  0.00000000000E+00 0.  1.
          2   -1    0    0  501    0  0.00000000000E+00 -0.00000000000E+00 -0.14341846768E+03  0.14341846768E+03  0.00000000000E+00 0. -1.
         23    2    1    2    0    0 -0.22796783472E+02  0.50048915269E+01  0.19540501930E+02  0.12873859365E+03  0.12508817691E+03 0.  0.
         23    2    1    2    0    0  0.22796783472E+02 -0.50048915269E+01 -0.63836484964E+02  0.11380235867E+03  0.91275066428E+02 0.  0.
          5    1    3    3  502    0 -0.64411720488E+02  0.36367030479E+02  0.18891636154E+02  0.76457811626E+02  0.41800000000E+01 0. -1.
         -5    1    3    3    0  502  0.41614937015E+02 -0.31362138952E+02  0.64886577602E+00  0.52280782026E+02  0.41800000000E+01 0. -1.
        -11    1    4    4    0    0  0.20451092566E+01 -0.13220323089E+02  0.21650455463E+02  0.25449983029E+02  0.00000000000E+00 0.  1.
         11    1    4    4    0    0  0.20751674216E+02  0.82154315619E+01 -0.85486940427E+02  0.88352375645E+02  0.00000000000E+00 0. -1.
</event>
<event>
 8    1  0.5951278E-006  0.1076059E+03  0.7561462E-02  0.1265069E+00
          1   -1    0    0  501    0  0.00000000000E+00  0.00000000000E+00  0.36772144448E+03  0.36772144448E+03  0.00000000000E+00 0. -1.
         -1   -1    0    0    0  501 -0.00000000000E+00 -0.00000000000E+00 -0.49508766862E+02  0.49508766862E+02  0.00000000000E+00 0.  1.
         23    2    1    2    0    0 -0.21447099544E+02  0.64432909340E+02  0.11092795828E+03  0.18045357033E+03  0.12508757425E+03 0.  0.
         23    2    1    2    0    0  0.21447099544E+02 -0.64432909340E+02  0.20728471933E+03  0.23677664101E+03  0.92112132619E+02 0.  0.
          5    1    3    3  502    0  0.28337471397E+02  0.78348073656E+02  0.94500499932E+02  0.12605256768E+03  0.41800000000E+01 0. -1.
         -5    1    3    3    0  502 -0.49784570940E+02 -0.13915164316E+02  0.16427458353E+02  0.54401002653E+02  0.41800000000E+01 0. -1.
        -11    1    4    4    0    0  0.30629985538E+02 -0.25279890783E+02  0.18601434804E+02  0.43855242205E+02  0.00000000000E+00 0.  1.
         11    1    4    4    0    0 -0.91828859942E+01 -0.39153018557E+02  0.18868328453E+03  0.19292139881E+03  0.00000000000E+00 0. -1.
</event>
<event>
 8    1  0.5951278E-006  0.9285155E+02  0.7561462E-02  0.1296090E+00
          1   -1    0    0  501    0  0.00000000000E+00  0.00000000000E+00  0.24540055925E+03  0.24540055925E+03  0.00000000000E+00 0. -1.
         -1   -1    0    0    0  501 -0.00000000000E+00 -0.00000000000E+00 -0.69351930602E+02  0.69351930602E+02  0.00000000000E+00 0.  1.
         23    2    1    2    0    0 -0.53551533497E+02  0.11921724686E+02  0.38555547075E+02  0.14193030088E+03  0.12509111014E+03 0.  0.
         23    2    1    2    0    0  0.53551533497E+02 -0.11921724686E+02  0.13749308158E+03  0.17282218898E+03  0.89181092520E+02 0.  0.
          5    1    3    3  502    0  0.30729905608E+02  0.42253878606E+01 -0.21586152672E+02  0.38021249170E+02  0.41800000000E+01 0.  1.
         -5    1    3    3    0  502 -0.84281439105E+02  0.76963368256E+01  0.60141699747E+02  0.10390905171E+03  0.41800000000E+01 0.  1.
        -11    1    4    4    0    0  0.50556411565E+02  0.65289214240E+01  0.14421408740E+03  0.15295842759E+03  0.00000000000E+00 0. -1.
         11    1    4    4    0    0  0.29951219318E+01 -0.18450646110E+02 -0.67210058256E+01  0.19863761390E+02  0.00000000000E+00 0.  1.
</event>
<event>
 8    1  0.5951278E-006  0.9417695E+02  0.7561462E-02  0.1293041E+00
         -1   -1    0    0    0  501 -0.00000000000E+00  0.00000000000E+00  0.44520232748E+02  0.44520232748E+02  0.00000000000E+00 0.  1.
          1   -1    0    0  501    0  0.00000000000E+00 -0.00000000000E+00 -0.39908076170E+03  0.39908076170E+03  0.00000000000E+00 0. -1.
         23    2    1    2    0    0  0.63247460348E+02  0.10295854500E+02 -0.12386473293E+03  0.18733927493E+03  0.12508911226E+03 0.  0.
         23    2    1    2    0    0 -0.63247460348E+02 -0.10295854500E+02 -0.23069579602E+03  0.25626171952E+03  0.91341516998E+02 0.  0.
          5    1    3    3  502    0  0.48567059557E+02  0.39323417468E+02 -0.36559759484E+01  0.62736982678E+02  0.41800000000E+01 0.  1.
         -5    1    3    3    0  502  0.14680400791E+02 -0.29027562968E+02 -0.12020875698E+03  0.12460229225E+03  0.41800000000E+01 0.  1.
        -11    1    4    4    0    0 -0.31960010243E+02  0.28683829853E+02 -0.38508611878E+02  0.57681171439E+02  0.00000000000E+00 0.  1.
         11    1    4    4    0    0 -0.31287450106E+02 -0.38979684353E+02 -0.19218718414E+03  0.19858054808E+03  0.00000000000E+00 0. -1.
</event>
<event>
 8    1  0.5951278E-006  0.1049244E+03  0.7561462E-02  0.1270269E+00
          1   -1    0    0  501    0  0.00000000000E+00  0.00000000000E+00  0.66575824595E+02  0.66575824595E+02  0.00000000000E+00 0. -1.
         -1   -1    0    0    0  501 -0.00000000000E+00 -0.00000000000E+00 -0.46932733275E+03  0.46932733275E+03  0.00000000000E+00 0.  1.
         23    2    1    2    0    0 -0.47158511825E+02 -0.28601420609E+02 -0.40752297844E+03  0.42984202628E+03  0.12508886082E+03 0.  0.
         23    2    1    2    0    0  0.47158511825E+02  0.28601420609E+02  0.47714702870E+01  0.10606113106E+03  0.90466734744E+02 0.  0.
          5    1    3    3  502    0  0.43790915130E+01  0.28333904701E+02 -0.21106947183E+02  0.35846369656E+02  0.41800000000E+01 0. -1.
         -5    1    3    3    0  502 -0.51537603338E+02 -0.56935325311E+02 -0.38641603126E+03  0.39399565662E+03  0.41800000000E+01 0. -1.
        -11    1    4    4    0    0 -0.30844309381E+01  0.49465835225E+02 -0.79374595428E+01  0.50193483966E+02  0.00000000000E+00 0.  1.
         11    1    4    4    0    0  0.50242942763E+02 -0.20864414615E+02  0.12708929830E+02  0.55867647097E+02  0.00000000000E+00 0. -1.
</event>
<event>
 8    1  0.5951278E-006  0.9883531E+02  0.7561462E-02  0.1282764E+00
          1   -1    0    0  501    0  0.00000000000E+00  0.00000000000E+00  0.75053074858E+02  0.75053074858E+02  0.00000000000E+00 0. -1.
         -1   -1    0    0    0  501 -0.00000000000E+00 -0.00000000000E+00 -0.17896248934E+03  0.17896248934E+03  0.00000000000E+00 0.  1.
         23    2    1    2    0    0  0.33870170203E+01 -0.37915307146E+02 -0.72372702136E+02  0.14944687293E+03  0.12509003723E+03 0.  0.
         23    2    1    2    0    0 -0.33870170203E+01  0.37915307146E+02 -0.31536712343E+02  0.10456869127E+03  0.92146647078E+02 0.  0.
          5    1    3    3  502    0  0.18769518481E+02 -0.68644105512E+02 -0.86472624292E+02  0.11206826133E+03  0.41800000000E+01 0.  1.
         -5    1    3    3    0  502 -0.15382501460E+02  0.30728798367E+02  0.14099922156E+02  0.37378611599E+02  0.41800000000E+01 0.  1.
        -11    1    4    4    0    0  0.26306744440E+02  0.52471807859E+02 -0.39250492904E+02  0.70611164955E+02  0.00000000000E+00 0. -1.
         11    1    4    4    0    0 -0.29693761461E+02 -0.14556500713E+02  0.77137805613E+01  0.33957526312E+02  0.00000000000E+00 0.  1.
</event>
<event>
 8    1  0.1014736E-005  0.8179871E+02  0.7561462E-02  0.1324023E+00
          1   -1    0    0  501    0  0.00000000000E+00  0.00000000000E+00  0.19950562510E+03  0.19950562510E+03  0.00000000000E+00 0. -1.
         -1   -1    0    0    0  501 -0.00000000000E+00 -0.00000000000E+00 -0.56984658590E+02  0.56984658590E+02  0.00000000000E+00 0.  1.
         23    2    1    2    0    0 -0.78615492166E+01 -0.47247694059E+01  0.60775484743E+02  0.13937386269E+03  0.12508911484E+03 0.  0.
         23    2    1    2    0    0  0.78615492166E+01  0.47247694059E+01  0.81745481768E+02  0.11711642100E+03  0.83365489726E+02 0.  0.
          5    1    3    3  502    0 -0.54318969715E+02 -0.10639159382E+02  0.72117847810E+02  0.91006585235E+02  0.41800000000E+01 0.  1.
         -5    1    3    3    0  502  0.46457420499E+02  0.59143899766E+01 -0.11342363068E+02  0.48367277452E+02  0.41800000000E+01 0.  1.
        -11    1    4    4    0    0 -0.51292533882E+01 -0.26635936416E+02 -0.15502610504E+01  0.27169572289E+02  0.00000000000E+00 0.  1.
         11    1    4    4    0    0  0.12990802605E+02  0.31360705822E+02  0.83295742818E+02  0.89946848714E+02  0.00000000000E+00 0. -1.
</event>
<event>
 8    1  0.5951278E-006  0.1454183E+03  0.7561462E-02  0.1206219E+00
         -1   -1    0    0    0  501 -0.00000000000E+00  0.00000000000E+00  0.15721343130E+03  0.15721343130E+03  0.00000000000E+00 0.  1.
          1   -1    0    0  501    0  0.00000000000E+00 -0.00000000000E+00 -0.23777553605E+03  0.23777553605E+03  0.00000000000E+00 0. -1.
         23    2    1    2    0    0 -0.97669256441E+02  0.79396592417E+02  0.58180248998E+02  0.18674948553E+03  0.12508927385E+03 0.  0.
         23    2    1    2    0    0  0.97669256441E+02 -0.79396592417E+02 -0.13874235374E+03  0.20823948181E+03  0.90945799919E+02 0.  0.
          5    1    3    3  502    0 -0.19498186807E+02  0.68845645349E+02  0.77363200170E+02  0.10546297603E+03  0.41800000000E+01 0. -1.
         -5    1    3    3    0  502 -0.78171069634E+02  0.10550947068E+02 -0.19182951172E+02  0.81286509505E+02  0.41800000000E+01 0. -1.
        -11    1    4    4    0    0  0.39082717011E+02  0.28549462463E+01 -0.33429847711E+01  0.39329188069E+02  0.00000000000E+00 0.  1.
         11    1    4    4    0    0  0.58586539430E+02 -0.82251538663E+02 -0.13539936897E+03  0.16891029375E+03  0.00000000000E+00 0. -1.
</event>
<event>
 8    1  0.5951278E-006  0.2453043E+03  0.7561462E-02  0.1116309E+00
          1   -1    0    0  501    0  0.00000000000E+00  0.00000000000E+00  0.70460049889E+03  0.70460049889E+03  0.00000000000E+00 0. -1.
         -1   -1    0    0    0  501 -0.00000000000E+00 -0.00000000000E+00 -0.10497614842E+03  0.10497614842E+03  0.00000000000E+00 0.  1.
         23    2    1    2    0    0  0.22444101696E+03  0.31598566882E+02  0.16273392808E+03  0.30578058241E+03  0.12508874334E+03 0.  0.
         23    2    1    2    0    0 -0.22444101696E+03 -0.31598566882E+02  0.43689042239E+03  0.50379606490E+03  0.10754066352E+03 0.  0.
          5    1    3    3  502    0  0.39448578553E+02  0.41917819260E+02 -0.21066011301E+01  0.57751225871E+02  0.41800000000E+01 0.  1.
         -5    1    3    3    0  502  0.18499243841E+03 -0.10319252378E+02  0.16484052921E+03  0.24802935654E+03  0.41800000000E+01 0.  1.
        -11    1    4    4    0    0 -0.77123737775E+02  0.36439115039E+02  0.19108997484E+03  0.20926361012E+03  0.00000000000E+00 0. -1.
         11    1    4    4    0    0 -0.14731727918E+03 -0.68037681921E+02  0.24580044755E+03  0.29453245479E+03  0.00000000000E+00 0.  1.
</event>
<event>
 8    1  0.5951278E-006  0.1199695E+03  0.7561462E-02  0.1243147E+00
         -1   -1    0    0    0  501 -0.00000000000E+00  0.00000000000E+00  0.10249884835E+03  0.10249884835E+03  0.00000000000E+00 0.  1.
          1   -1    0    0  501    0  0.00000000000E+00 -0.00000000000E+00 -0.18358569444E+03  0.18358569444E+03  0.00000000000E+00 0. -1.
         23    2    1    2    0    0 -0.39388962364E+02 -0.59801193688E+02  0.20176500835E+01  0.14415476618E+03  0.12509537393E+03 0.  0.
         23    2    1    2    0    0  0.39388962364E+02  0.59801193688E+02 -0.83104496166E+02  0.14192977661E+03  0.90055710996E+02 0.  0.
          5    1    3    3  502    0  0.60265054934E+01  0.36581570373E+02  0.38723170201E+01  0.37509962657E+02  0.41800000000E+01 0. -1.
         -5    1    3    3    0  502 -0.45415467857E+02 -0.96382764061E+02 -0.18546669366E+01  0.10664480352E+03  0.41800000000E+01 0. -1.
        -11    1    4    4    0    0  0.43681492757E+02  0.71361472087E+02 -0.93737312536E+02  0.12564718966E+03  0.00000000000E+00 0. -1.
         11    1    4    4    0    0 -0.42925303936E+01 -0.11560278399E+02  0.10632816370E+02  0.16282586951E+02  0.00000000000E+00 0.  1.
</event>
<event>
 8    1  0.5951278E-006  0.1185731E+03  0.7561462E-02  0.1245470E+00
          1   -1    0    0  501    0  0.00000000000E+00  0.00000000000E+00  0.19006795806E+03  0.19006795806E+03  0.00000000000E+00 0. -1.
         -1   -1    0    0    0  501 -0.00000000000E+00 -0.00000000000E+00 -0.89792790589E+02  0.89792790589E+02  0.00000000000E+00 0.  1.
         23    2    1    2    0    0  0.51794844069E+02 -0.13079145813E+02  0.43766896459E+01  0.13609520175E+03  0.12509587763E+03 0.  0.
         23    2    1    2    0    0 -0.51794844069E+02  0.13079145813E+02  0.95898477829E+02  0.14376554690E+03  0.92834500585E+02 0.  0.
          5    1    3    3  502    0  0.90042795153E+01  0.51784820852E+02 -0.16987322711E+02  0.55396626731E+02  0.41800000000E+01 0. -1.
         -5    1    3    3    0  502  0.42790564554E+02 -0.64863966664E+02  0.21364012357E+02  0.80698575020E+02  0.41800000000E+01 0. -1.
        -11    1    4    4    0    0 -0.22635148680E+02  0.52728618610E+02  0.58560827065E+02  0.81987972550E+02  0.00000000000E+00 0. -1.
         11    1    4    4    0    0 -0.29159695389E+02 -0.39649472798E+02  0.37337650764E+02  0.61777574353E+02  0.00000000000E+00 0.  1.
</event>
<event>
 8    1  0.5951278E-006  0.2164754E+03  0.7561462E-02  0.1136538E+00
          1   -1    0    0  501    0  0.00000000000E+00  0.00000000000E+00  0.14740255639E+03  0.14740255639E+03  0.00000000000E+00 0. -1.
         -1   -1    0    0    0  501 -0.00000000000E+00 -0.00000000000E+00 -0.33732591788E+03  0.33732591788E+03  0.00000000000E+00 0.  1.
         23    2    1    2    0    0 -0.13856918880E+03 -0.13028814936E+03 -0.14575105894E+03  0.27030722692E+03  0.12508478643E+03 0.  0.
         23    2    1    2    0    0  0.13856918880E+03  0.13028814936E+03 -0.44172302542E+02  0.21442124735E+03  0.88593775487E+02 0.  0.
          5    1    3    3  502    0 -0.66247593879E+02 -0.13889082017E+03 -0.88425400193E+02  0.17752725825E+03  0.41800000000E+01 0. -1.
         -5    1    3    3    0  502 -0.72321594916E+02  0.86026708035E+01 -0.57325658748E+02  0.92779968674E+02  0.41800000000E+01 0. -1.
        -11    1    4    4    0    0  0.10794804153E+03  0.47770773264E+02 -0.45188930059E+02  0.12639962756E+03  0.00000000000E+00 0.  1.
         11    1    4    4    0    0  0.30621147265E+02  0.82517376099E+02  0.10166275170E+01  0.88021619785E+02  0.00000000000E+00 0. -1.
</event>
<event>
 7    1  0.6525894E-006  0.9975374E+02  0.7561462E-02  0.1280815E+00
          1   -1    0    0  501    0  0.00000000000E+00  0.00000000000E+00  0.74796039532E+02  0.74796039532E+02  0.00000000000E+00 0. -1.
         -1   -1    0    0    0  501 -0.00000000000E+00 -0.00000000000E+00 -0.14346639810E+03  0.14346639810E+03  0.00000000000E+00 0.  1.
         23    2    1    2    0    0 -0.56866769962E+02  0.98595451204E+01 -0.41932139106E+02  0.14400284078E+03  0.12508986253E+03 0.  0.
          5    1    3    3  502    0 -0.66932313041E+02  0.57136613161E+02 -0.18074284288E+02  0.89937084926E+02  0.41800000000E+01 0.  1.
         -5    1    3    3    0  502  0.10065543079E+02 -0.47277068040E+02 -0.23857854818E+02  0.54065755858E+02  0.41800000000E+01 0.  1.
        -11    1    1    2    0    0  0.44013476059E+02 -0.18132872764E+02 -0.32807695662E+02  0.57812905515E+02  0.00000000000E+00 0.  1.
         11    1    1    2    0    0  0.12853293903E+02  0.82733276434E+01  0.60694762000E+01  0.16446691333E+02  0.00000000000E+00 0. -1.
</event>
<event>
 8    1  0.5951278E-006  0.1643718E+03  0.7561462E-02  0.1183848E+00
          2   -1    0    0  501    0  0.00000000000E+00  0.00000000000E+00  0.34493161029E+03  0.34493161029E+03  0.00000000000E+00 0. -1.
         -2   -1    0    0    0  501 -0.00000000000E+00 -0.00000000000E+00 -0.10341649731E+03  0.10341649731E+03  0.00000000000E+00 0.  1.
         23    2    1    2    0    0  0.14248957199E+03  0.66688905331E+02  0.10603811551E+03  0.22724968059E+03  0.12509055586E+03 0.  0.
         23    2    1    2    0    0 -0.14248957199E+03 -0.66688905331E+02  0.13547699747E+03  0.22109842701E+03  0.76025057445E+02 0.  0.
          5    1    3    3  502    0  0.14242626606E+03  0.60287908371E+02  0.13000952320E+03  0.20208864808E+03  0.41800000000E+01 0.  1.
         -5    1    3    3    0  502  0.63305929530E-01  0.64009969598E+01 -0.23971407698E+02  0.25161032505E+02  0.41800000000E+01 0.  1.
        -11    1    4    4    0    0 -0.92975915102E+02 -0.70557031943E+02  0.12366896296E+03  0.17004948675E+03  0.00000000000E+00 0.  1.
         11    1    4    4    0    0 -0.49513656888E+02  0.38681266122E+01  0.11808034518E+02  0.51048940254E+02  0.00000000000E+00 0. -1.
</event>
<event>
 8    1  0.5951278E-006  0.6607836E+02  0.7561462E-02  0.1373960E+00
          2   -1    0    0  501    0  0.00000000000E+00  0.00000000000E+00  0.23953156832E+03  0.23953156832E+03  0.00000000000E+00 0.  1.
         -2   -1    0    0    0  501 -0.00000000000E+00 -0.00000000000E+00 -0.71760388382E+02  0.71760388382E+02  0.00000000000E+00 0. -1.
         23    2    1    2    0    0 -0.20053148585E+02  0.29769504702E+02  0.18781210255E+02  0.13148857332E+03  0.12509260120E+03 0.  0.
         23    2    1    2    0    0  0.20053148585E+02 -0.29769504702E+02  0.14898996968E+03  0.17980338339E+03  0.94036660046E+02 0.  0.
          5    1    3    3  502    0 -0.11585523574E+02  0.18178517741E+02 -0.53419397550E+02  0.57756274969E+02  0.41800000000E+01 0.  1.
         -5    1    3    3    0  502 -0.84676250111E+01  0.11590986960E+02  0.72200607805E+02  0.73732298346E+02  0.41800000000E+01 0.  1.
        -11    1    4    4    0    0  0.55211072841E+02 -0.20440459476E+02  0.11858363894E+03  0.13239393631E+03  0.00000000000E+00 0.  1.
         11    1    4    4    0    0 -0.35157924256E+02 -0.93290452253E+01  0.30406330748E+02  0.47409447079E+02  0.00000000000E+00 0. -1.
</event>
<event>
 8    1  0.5951278E-006  0.1188105E+03  0.7561462E-02  0.1245072E+00
         -3   -1    0    0    0  501 -0.00000000000E+00  0.00000000000E+00  0.15644872176E+03  0.15644872176E+03  0.00000000000E+00 0.  1.
          3   -1    0    0  501    0  0.00000000000E+00 -0.00000000000E+00 -0.14965425618E+03  0.14965425618E+03  0.00000000000E+00 0. -1.
         23    2    1    2    0    0 -0.37441591860E+02 -0.83966735863E+02  0.60606823294E+02  0.16665234582E+03  0.12509009475E+03 0.  0.
         23    2    1    2    0    0  0.37441591860E+02  0.83966735863E+02 -0.53812357715E+02  0.13945063213E+03  0.89991240823E+02 0.  0.
          5    1    3    3  502    0 -0.59682784571E+02 -0.95158992732E+02  0.77270548140E+02  0.13640190131E+03  0.41800000000E+01 0.  1.
         -5    1    3    3    0  502  0.22241192711E+02  0.11192256869E+02 -0.16663724846E+02  0.30250444505E+02  0.41800000000E+01 0.  1.
        -11    1    4    4    0    0  0.45492384277E+02  0.64740120549E+02  0.27464629575E+01  0.79173122299E+02  0.00000000000E+00 0.  1.
         11    1    4    4    0    0 -0.80507924167E+01  0.19226615315E+02 -0.56558820673E+02  0.60277509827E+02  0.00000000000E+00 0. -1.
</event>
<event>
 8    1  0.5951278E-006  0.1785212E+03  0.7561462E-02  0.1169242E+00
          1   -1    0    0  501    0  0.00000000000E+00  0.00000000000E+00  0.15482102956E+03  0.15482102956E+03  0.00000000000E+00 0. -1.
         -1   -1    0    0    0  501 -0.00000000000E+00 -0.00000000000E+00 -0.28014016191E+03  0.28014016191E+03  0.00000000000E+00 0.  1.
         23    2    1    2    0    0  0.80820208073E+02  0.12964703488E+03 -0.15975422662E+03  0.25398401931E+03  0.12508480906E+03 0.  0.
         23    2    1    2    0    0 -0.80820208073E+02 -0.12964703488E+03  0.34435094267E+02  0.18097717216E+03  0.90701165580E+02 0.  0.
          5    1    3    3  502    0  0.51919490991E+02  0.15197914497E+03 -0.13173083614E+03  0.20775894600E+03  0.41800000000E+01 0.  1.
         -5    1    3    3    0  502  0.28900717082E+02 -0.22332110093E+02 -0.28023390474E+02  0.46225073312E+02  0.41800000000E+01 0.  1.
        -11    1    4    4    0    0 -0.11737014401E+02 -0.61408436729E+02  0.53183615990E+02  0.82080756687E+02  0.00000000000E+00 0.  1.
         11    1    4    4    0    0 -0.69083193671E+02 -0.68238598153E+02 -0.18748521723E+02  0.98896415469E+02  0.00000000000E+00 0. -1.
</event>
<event>
 8    1  0.5951278E-006  0.7399496E+02  0.7561462E-02  0.1347012E+00
         -2   -1    0    0    0  501 -0.00000000000E+00  0.00000000000E+00  0.23799809553E+02  0.23799809553E+02  0.00000000000E+00 0.  1.
          2   -1    0    0  501    0  0.00000000000E+00 -0.00000000000E+00 -0.67483742957E+03  0.67483742957E+03  0.00000000000E+00 0. -1.
         23    2    1    2    0    0 -0.25773825194E+01  0.45057197707E+02 -0.23088238865E+03  0.26644105164E+03  0.12508941860E+03 0.  0.
         23    2    1    2    0    0  0.25773825194E+01 -0.45057197707E+02 -0.42015523137E+03  0.43219618749E+03  0.90699129342E+02 0.  0.
          5    1    3    3  502    0  0.60066881180E+01  0.23709245307E+02  0.82647965953E+01  0.26153161911E+02  0.41800000000E+01 0. -1.
         -5    1    3    3    0  502 -0.85840706374E+01  0.21347952400E+02 -0.23914718525E+03  0.24028788973E+03  0.41800000000E+01 0. -1.
        -11    1    4    4    0    0 -0.36450504644E+02 -0.48433944330E+02 -0.29027876571E+03  0.29654046617E+03  0.00000000000E+00 0.  1.
         11    1    4    4    0    0  0.39027887163E+02  0.33767466232E+01 -0.12987646566E+03  0.13565572132E+03  0.00000000000E+00 0. -1.
</event>
<event>
 8    1  0.5951278E-006  0.1607473E+03  0.7561462E-02  0.1187856E+00
          1   -1    0    0  501    0  0.00000000000E+00  0.00000000000E+00  0.43135561305E+02  0.43135561305E+02  0.00000000000E+00 0. -1.
         -1   -1    0    0    0  501 -0.00000000000E+00 -0.00000000000E+00 -0.96192804840E+03  0.96192804840E+03  0.00000000000E+00 0.  1.
         23    2    1    2    0    0  0.96249608653E+01 -0.13845173134E+03 -0.73278923019E+03  0.75623416862E+03  0.12509412504E+03 0.  0.
         23    2    1    2    0    0 -0.96249608653E+01  0.13845173134E+03 -0.18600325691E+03  0.24882944109E+03  0.89762783982E+02 0.  0.
          5    1    3    3  502    0  0.50850770166E+02 -0.10855775904E+03 -0.63145806527E+03  0.64274983350E+03  0.41800000000E+01 0.  1.
         -5    1    3    3    0  502 -0.41225809301E+02 -0.29893972301E+02 -0.10133116492E+03  0.11348433512E+03  0.41800000000E+01 0.  1.
        -11    1    4    4    0    0  0.24527638972E+02  0.63959506806E+02 -0.34769218157E+02  0.76820063237E+02  0.00000000000E+00 0. -1.
         11    1    4    4    0    0 -0.34152599837E+02  0.74492224539E+02 -0.15123403875E+03  0.17200937785E+03  0.00000000000E+00 0.  1.
</event>
<event>
 8    1  0.5951278E-006  0.1486984E+03  0.7561462E-02  0.1202082E+00
          2   -1    0    0  501    0  0.00000000000E+00  0.00000000000E+00  0.29135997382E+03  0.29135997382E+03  0.00000000000E+00 0. -1.
         -2   -1    0    0    0  501 -0.00000000000E+00 -0.00000000000E+00 -0.95449180563E+02  0.95449180563E+02  0.00000000000E+00 0.  1.
         23    2    1    2    0    0  0.10157028053E+03 -0.57559952211E+02  0.49858278560E+02  0.17821473316E+03  0.12507986725E+03 0.  0.
         23    2    1    2    0    0 -0.10157028053E+03  0.57559952211E+02  0.14605251470E+03  0.20859442122E+03  0.92469592458E+02 0.  0.
          5    1    3    3  502    0  0.49354513298E+02  0.23321272126E+02  0.60114575051E+02  0.81307959328E+02  0.41800000000E+01 0. -1.
         -5    1    3    3    0  502  0.52215767231E+02 -0.80881224337E+02 -0.10256296491E+02  0.96906773837E+02  0.41800000000E+01 0. -1.
        -11    1    4    4    0    0 -0.11205147294E+03  0.28823694261E+02  0.97965820811E+02  0.15160356192E+03  0.00000000000E+00 0.  1.
         11    1    4    4    0    0  0.10481192409E+02  0.28736257950E+02  0.48086693888E+02  0.56990859306E+02  0.00000000000E+00 0. -1.
</event>
<event>
 8    1  0.5951278E-006  0.1069781E+03  0.7561462E-02  0.1266271E+00
          3   -1    0    0  501    0  0.00000000000E+00  0.00000000000E+00  0.75625045634E+02  0.75625045634E+02  0.00000000000E+00 0. -1.
         -3   -1    0    0    0  501 -0.00000000000E+00 -0.00000000000E+00 -0.20339003996E+03  0.20339003996E+03  0.00000000000E+00 0.  1.
         23    2    1    2    0    0  0.81832683216E+01 -0.45925192549E+02 -0.11586306789E+03  0.17677337154E+03  0.12509390550E+03 0.  0.
         23    2    1    2    0    0 -0.81832683216E+01  0.45925192549E+02 -0.11901926429E+02  0.10224171405E+03  0.90197688708E+02 0.  0.
          5    1    3    3  502    0  0.34208674024E+02  0.21756277151E+02 -0.87333481617E+00  0.40765231358E+02  0.41800000000E+01 0. -1.
         -5    1    3    3    0  502 -0.26025405702E+02 -0.67681469700E+02 -0.11498973308E+03  0.13600814018E+03  0.41800000000E+01 0. -1.
        -11    1    4    4    0    0  0.20140198969E+02  0.63915204527E+02 -0.12052393411E+01  0.67024126896E+02  0.00000000000E+00 0. -1.
         11    1    4    4    0    0 -0.28323467291E+02 -0.17990011978E+02 -0.10696687088E+02  0.35217587155E+02  0.00000000000E+00 0.  1.
</event>
<event>
 8    1  0.5951278E-006  0.1366742E+03  0.7561462E-02  0.1217875E+00
         -1   -1    0    0    0  501 -0.00000000000E+00  0.00000000000E+00  0.20864382139E+03  0.20864382139E+03  0.00000000000E+00 0.  1.
          1   -1    0    0  501    0  0.00000000000E+00 -0.00000000000E+00 -0.12733068267E+03  0.12733068267E+03  0.00000000000E+00 0. -1.
         23    2    1    2    0    0  0.11302753370E+03 -0.34368652337E+00  0.86234787019E+02  0.18936417443E+03  0.12508801131E+03 0.  0.
         23    2    1    2    0    0 -0.11302753370E+03  0.34368652337E+00 -0.49216482961E+01  0.14661032963E+03  0.93247115972E+02 0.  0.
          5    1    3    3  502    0  0.66492308910E+02  0.51061535427E+02  0.85609385422E+02  0.11989556629E+03  0.41800000000E+01 0. -1.
         -5    1    3    3    0  502  0.46535224788E+02 -0.51405221950E+02  0.62540159620E+00  0.69468608140E+02  0.41800000000E+01 0. -1.
        -11    1    4    4    0    0 -0.22478323178E+02  0.16602532135E+02  0.36291146992E+02  0.45803563575E+02  0.00000000000E+00 0.  1.
         11    1    4    4    0    0 -0.90549210520E+02 -0.16258845612E+02 -0.41212795288E+02  0.10080676605E+03  0.00000000000E+00 0. -1.
</event>
<event>
 8    1  0.5951278E-006  0.1196679E+03  0.7561462E-02  0.1243646E+00
         -1   -1    0    0    0  501 -0.00000000000E+00  0.00000000000E+00  0.12252153720E+03  0.12252153720E+03  0.00000000000E+00 0.  1.
          1   -1    0    0  501    0  0.00000000000E+00 -0.00000000000E+00 -0.13730507477E+03  0.13730507477E+03  0.00000000000E+00 0. -1.
         23    2    1    2    0    0  0.49884029214E+02 -0.26030142262E+02  0.40627961229E+02  0.14304897235E+03  0.12508554105E+03 0.  0.
         23    2    1    2    0    0 -0.49884029214E+02  0.26030142262E+02 -0.55411498796E+02  0.11677763962E+03  0.86026729795E+02 0.  0.
          5    1    3    3  502    0  0.13742787079E+02  0.50229426228E+02  0.20998225994E+02  0.56305038414E+02  0.41800000000E+01 0.  1.
         -5    1    3    3    0  502  0.36141242135E+02 -0.76259568490E+02  0.19629735235E+02  0.86743933936E+02  0.41800000000E+01 0.  1.
        -11    1    4    4    0    0 -0.74550894973E+02  0.20539063277E+02 -0.44808097369E+02  0.89372560954E+02  0.00000000000E+00 0. -1.
         11    1    4    4    0    0  0.24666865759E+02  0.54910789844E+01 -0.10603401426E+02  0.27405078664E+02  0.00000000000E+00 0.  1.
</event>
<event>
 8    1  0.5951278E-006  0.1526455E+03  0.7561462E-02  0.1197259E+00
          2   -1    0    0  501    0  0.00000000000E+00  0.00000000000E+00  0.12823172696E+03  0.12823172696E+03  0.00000000000E+00 0. -1.
         -2   -1    0    0    0  501 -0.00000000000E+00 -0.00000000000E+00 -0.21798938788E+03  0.21798938788E+03  0.00000000000E+00 0.  1.
         23    2    1    2    0    0 -0.96190180676E+02 -0.54229089163E+02 -0.11101587652E+03  0.20033747232E+03  0.12496892817E+03 0.  0.
         23    2    1    2    0    0  0.96190180676E+02  0.54229089163E+02  0.21258215597E+02  0.14588364252E+03  0.92934280296E+02 0.  0.
          5    1    3    3  502    0 -0.40973304537E+02 -0.88690872677E+02 -0.86833373208E+02  0.13077610517E+03  0.41800000000E+01 0.  1.
         -5    1    3    3    0  502 -0.55216876139E+02  0.34461783514E+02 -0.24182503308E+02  0.69561367150E+02  0.41800000000E+01 0.  1.
        -11    1    4    4    0    0  0.12837908821E+02  0.57449606510E+02  0.20905399761E+02  0.62468431469E+02  0.00000000000E+00 0.  1.
         11    1    4    4    0    0  0.83352271855E+02 -0.32205173471E+01  0.35281583625E+00  0.83415211049E+02  0.00000000000E+00 0. -1.
</event>
<event>
 8    1  0.5951278E-006  0.1172941E+03  0.7561462E-02  0.1247629E+00
          2   -1    0    0  501    0  0.00000000000E+00  0.00000000000E+00  0.43421601174E+03  0.43421601174E+03  0.00000000000E+00 0. -1.
         -2   -1    0    0    0  501 -0.00000000000E+00 -0.00000000000E+00 -0.34005789961E+02  0.34005789961E+02  0.00000000000E+00 0.  1.
         23    2    1    2    0    0 -0.47375540078E+02 -0.73855277416E+00  0.17099011948E+03  0.21709571873E+03  0.12509173784E+03 0.  0.
         23    2    1    2    0    0  0.47375540078E+02  0.73855277416E+00  0.22922010230E+03  0.25112608297E+03  0.90980585782E+02 0.  0.
          5    1    3    3  502    0  0.22517435432E+02 -0.44129679858E+02  0.48288904358E+02  0.69309120806E+02  0.41800000000E+01 0. -1.
         -5    1    3    3    0  502 -0.69892975510E+02  0.43391127084E+02  0.12270121512E+03  0.14778659793E+03  0.41800000000E+01 0. -1.
        -11    1    4    4    0    0  0.62112789125E+02  0.30566635716E+02  0.15004105134E+03  0.16524114161E+03  0.00000000000E+00 0.  1.
         11    1    4    4    0    0 -0.14737249046E+02 -0.29828082942E+02  0.79179050963E+02  0.85884941362E+02  0.00000000000E+00 0. -1.
</event>
<event>
 8    1  0.5951278E-006  0.1107630E+03  0.7561462E-02  0.1259163E+00
          1   -1    0    0  501    0  0.00000000000E+00  0.00000000000E+00  0.79536344181E+03  0.79536344181E+03  0.00000000000E+00 0. -1.
         -1   -1    0    0    0  501 -0.00000000000E+00 -0.00000000000E+00 -0.17576947996E+02  0.17576947996E+02  0.00000000000E+00 0.  1.
         23    2    1    2    0    0 -0.36426306535E+02  0.16269296939E+02  0.37220732973E+03  0.39468601981E+03  0.12508873690E+03 0.  0.
         23    2    1    2    0    0  0.36426306535E+02 -0.16269296939E+02  0.40557916408E+03  0.41825436999E+03  0.94078126302E+02 0.  0.
          5    1    3    3  502    0 -0.13046115148E+02  0.65834285212E+02  0.13047307796E+03  0.14678232421E+03  0.41800000000E+01 0. -1.
         -5    1    3    3    0  502 -0.23380191387E+02 -0.49564988273E+02  0.24173425177E+03  0.24790369560E+03  0.41800000000E+01 0. -1.
        -11    1    4    4    0    0 -0.54448528036E+01  0.33694096189E+02  0.96017918435E+02  0.10190377422E+03  0.00000000000E+00 0.  1.
         11    1    4    4    0    0  0.41871159339E+02 -0.49963393127E+02  0.30956124565E+03  0.31635059577E+03  0.00000000000E+00 0. -1.
</event>
<event>
 8    1  0.5951278E-006  0.8438639E+02  0.7561462E-02  0.1317045E+00
         -3   -1    0    0    0  501 -0.00000000000E+00  0.00000000000E+00  0.53682604270E+02  0.53682604270E+02  0.00000000000E+00 0.  1.
          3   -1    0    0  501    0  0.00000000000E+00 -0.00000000000E+00 -0.29042814667E+03  0.29042814667E+03  0.00000000000E+00 0. -1.
         23    2    1    2    0    0  0.23720582715E+02 -0.28985812111E+02 -0.65844056033E+02  0.14623827740E+03  0.12508937090E+03 0.  0.
         23    2    1    2    0    0 -0.23720582715E+02  0.28985812111E+02 -0.17090148636E+03  0.19787247354E+03  0.92430267743E+02 0.  0.
          5    1    3    3  502    0 -0.24525342557E+02 -0.30994216140E+02  0.22354385698E+02  0.45599614270E+02  0.41800000000E+01 0.  1.
         -5    1    3    3    0  502  0.48245925272E+02  0.20084040288E+01 -0.88198441731E+02  0.10063866313E+03  0.41800000000E+01 0.  1.
        -11    1    4    4    0    0 -0.48779062131E+02  0.26137330081E+02 -0.50699590444E+02  0.75053350341E+02  0.00000000000E+00 0.  1.
         11    1    4    4    0    0  0.25058479416E+02  0.28484820302E+01 -0.12020189592E+03  0.12281912320E+03  0.00000000000E+00 0. -1.
</event>
<event>
 8    1  0.5951278E-006  0.8940699E+02  0.7561462E-02  0.1304294E+00
         -4   -1    0    0    0  501 -0.00000000000E+00  0.00000000000E+00  0.12002473042E+03  0.12002473042E+03  0.00000000000E+00 0.  1.
          4   -1    0    0  501    0  0.00000000000E+00 -0.00000000000E+00 -0.10850976710E+03  0.10850976710E+03  0.00000000000E+00 0. -1.
         23    2    1    2    0    0  0.24899929432E+00  0.28364221665E+02  0.29790046309E+02  0.13168275907E+03  0.12509320967E+03 0.  0.
         23    2    1    2    0    0 -0.24899929432E+00 -0.28364221665E+02 -0.18275082993E+02  0.96851738447E+02  0.90783751357E+02 0.  0.
          5    1    3    3  502    0 -0.40426859755E+02  0.28751039548E+02 -0.30832263281E+02  0.58558126027E+02  0.41800000000E+01 0.  1.
         -5    1    3    3    0  502  0.40675859050E+02 -0.38681788211E+00  0.60622309590E+02  0.73124633042E+02  0.41800000000E+01 0.  1.
        -11    1    4    4    0    0 -0.40111661971E+02 -0.16375017967E+01 -0.26577740370E+02  0.48145644885E+02  0.00000000000E+00 0. -1.
         11    1    4    4    0    0  0.39862662676E+02 -0.26726719869E+02  0.83026573774E+01  0.48706093562E+02  0.00000000000E+00 0.  1.
</event>
<event>
 8    1  0.5951278E-006  0.1189557E+03  0.7561462E-02  0.1244830E+00
         -1   -1    0    0    0  501 -0.00000000000E+00  0.00000000000E+00  0.36730564773E+03  0.36730564773E+03  0.00000000000E+00 0. -1.
          1   -1    0    0  501    0  0.00000000000E+00 -0.00000000000E+00 -0.66825634022E+02  0.66825634022E+02  0.00000000000E+00 0.  1.
         23    2    1    2    0    0  0.59556789459E+02 -0.44938725018E+02  0.27869685294E+03  0.31445785048E+03  0.12508118850E+03 0.  0.
         23    2    1    2    0    0 -0.59556789459E+02  0.44938725018E+02  0.21783160767E+02  0.11967343127E+03  0.90998482849E+02 0.  0.
          5    1    3    3  502    0  0.46904407978E+01 -0.74568069682E+02  0.98300985738E+02  0.12354332620E+03  0.41800000000E+01 0.  1.
         -5    1    3    3    0  502  0.54866348661E+02  0.29629344665E+02  0.18039586720E+03  0.19091452429E+03  0.41800000000E+01 0.  1.
        -11    1    4    4    0    0 -0.54126021504E+02  0.62220686786E+02 -0.10017948014E+02  0.83074661302E+02  0.00000000000E+00 0.  1.
         11    1    4    4    0    0 -0.54307679550E+01 -0.17281961768E+02  0.31801108781E+02  0.36598769964E+02  0.00000000000E+00 0. -1.
</event>
<event>
 8    1  0.5951278E-006  0.1246245E+03  0.7561462E-02  0.1235657E+00
          2   -1    0    0  501    0  0.00000000000E+00  0.00000000000E+00  0.12423322395E+04  0.12423322395E+04  0.00000000000E+00 0. -1.
         -2   -1    0    0    0  501 -0.00000000000E+00 -0.00000000000E+00 -0.20631665457E+02  0.20631665457E+02  0.00000000000E+00 0.  1.
         23    2    1    2    0    0 -0.66676048386E+02  0.87866034048E+02  0.81598380796E+03  0.83285279452E+03  0.12509223445E+03 0.  0.
         23    2    1    2    0    0  0.66676048386E+02 -0.87866034048E+02  0.40571676610E+03  0.43011111046E+03  0.90682620572E+02 0.  0.
          5    1    3    3  502    0 -0.27379188653E+02 -0.99387326416E+01  0.47533732237E+03  0.47624724757E+03  0.41800000000E+01 0.  1.
         -5    1    3    3    0  502 -0.39296859733E+02  0.97804766690E+02  0.34064648558E+03  0.35660554695E+03  0.41800000000E+01 0.  1.
        -11    1    4    4    0    0  0.24468174746E+02 -0.57051290594E+02  0.34254759482E+03  0.34812698265E+03  0.00000000000E+00 0. -1.
         11    1    4    4    0    0  0.42207873640E+02 -0.30814743454E+02  0.63169171285E+02  0.81984127807E+02  0.00000000000E+00 0.  1.
</event>
<event>
 8    1  0.5951278E-006  0.1219363E+03  0.7561462E-02  0.1239936E+00
          4   -1    0    0  501    0  0.00000000000E+00  0.00000000000E+00  0.32266147738E+03  0.32266147738E+03  0.00000000000E+00 0. -1.
         -4   -1    0    0    0  501 -0.00000000000E+00 -0.00000000000E+00 -0.98459466799E+02  0.98459466799E+02  0.00000000000E+00 0.  1.
         23    2    1    2    0    0  0.86483570395E+02 -0.68561666321E+02  0.15001672548E+02  0.16748978748E+03  0.12509064192E+03 0.  0.
         23    2    1    2    0    0 -0.86483570395E+02  0.68561666321E+02  0.20920033803E+03  0.25363115669E+03  0.91563487134E+02 0.  0.
          5    1    3    3  502    0  0.73417005210E+02 -0.61706081459E+02  0.64511794928E+02  0.11565872742E+03  0.41800000000E+01 0. -1.
         -5    1    3    3    0  502  0.13066565184E+02 -0.68555848613E+01 -0.49510122380E+02  0.51831060066E+02  0.41800000000E+01 0. -1.
        -11    1    4    4    0    0 -0.66938534799E+02  0.62432978631E+01  0.57484317173E+02  0.88454468118E+02  0.00000000000E+00 0.  1.
         11    1    4    4    0    0 -0.19545035596E+02  0.62318368457E+02  0.15171602085E+03  0.16517668857E+03  0.00000000000E+00 0. -1.
</event>
<event>
 8    1  0.5951278E-006  0.9473983E+02  0.7561462E-02  0.1291763E+00
          1   -1    0    0  501    0  0.00000000000E+00  0.00000000000E+00  0.20252431903E+03  0.20252431903E+03  0.00000000000E+00 0. -1.
         -1   -1    0    0    0  501 -0.00000000000E+00 -0.00000000000E+00 -0.82575962046E+02  0.82575962046E+02  0.00000000000E+00 0.  1.
         23    2    1    2    0    0  0.38702412135E+02 -0.45039586736E+02  0.26236653952E+02  0.14093171486E+03  0.12508774986E+03 0.  0.
         23    2    1    2    0    0 -0.38702412135E+02  0.45039586736E+02  0.93711703031E+02  0.14416856622E+03  0.92066558106E+02 0.  0.
          5    1    3    3  502    0 -0.92866327600E+01  0.59304352256E+01 -0.41674358408E+02  0.43308615294E+02  0.41800000000E+01 0.  1.
         -5    1    3    3    0  502  0.47989044895E+02 -0.50970021962E+02  0.67911012360E+02  0.97623099564E+02  0.41800000000E+01 0.  1.
        -11    1    4    4    0    0  0.19728736213E+02  0.44997594175E+02  0.29313469092E+02  0.57212638327E+02  0.00000000000E+00 0.  1.
         11    1    4    4    0    0 -0.58431148348E+02  0.41992560823E-01  0.64398233940E+02  0.86955927890E+02  0.00000000000E+00 0. -1.
</event>
<event>
 8    1  0.6345248E-006  0.1303932E+03  0.7561462E-02  0.1226873E+00
         -4   -1    0    0    0  501 -0.00000000000E+00  0.00000000000E+00  0.34807486560E+03  0.34807486560E+03  0.00000000000E+00 0.  1.
          4   -1    0    0  501    0  0.00000000000E+00 -0.00000000000E+00 -0.54705191927E+02  0.54705191927E+02  0.00000000000E+00 0. -1.
         23    2    1    2    0    0  0.80857734909E+02  0.20306109092E+02  0.18295262025E+03  0.23678957459E+03  0.12508928818E+03 0.  0.
         23    2    1    2    0    0 -0.80857734909E+02 -0.20306109092E+02  0.11041705342E+03  0.16599048294E+03  0.91709341828E+02 0.  0.
          5    1    3    3  502    0  0.80339340962E+02 -0.38122413571E+02  0.13162778231E+03  0.15890586395E+03  0.41800000000E+01 0. -1.
         -5    1    3    3    0  502  0.51839394744E+00  0.58428522663E+02  0.51324837943E+02  0.77883710638E+02  0.41800000000E+01 0. -1.
        -11    1    4    4    0    0 -0.10215331090E+02 -0.38830634750E+02  0.92261254015E+01  0.41198210814E+02  0.00000000000E+00 0. -1.
         11    1    4    4    0    0 -0.70642403819E+02  0.18524525658E+02  0.10119092802E+03  0.12479227212E+03  0.00000000000E+00 0.  1.
</event>
<event>
 8    1  0.5951278E-006  0.1360536E+03  0.7561462E-02  0.1218740E+00
         -3   -1    0    0    0  501 -0.00000000000E+00  0.00000000000E+00  0.65730184840E+02  0.65730184840E+02  0.00000000000E+00 0.  1.
          3   -1    0    0  501    0  0.00000000000E+00 -0.00000000000E+00 -0.42739918831E+03  0.42739918831E+03  0.00000000000E+00 0. -1.
         23    2    1    2    0    0  0.17269798400E+02  0.11749508520E+03 -0.12833521925E+03  0.21499030097E+03  0.12509020756E+03 0.  0.
         23    2    1    2    0    0 -0.17269798400E+02 -0.11749508520E+03 -0.23333378422E+03  0.27813907218E+03  0.93879431370E+02 0.  0.
          5    1    3    3  502    0  0.20039938475E+02 -0.93255774473E+01 -0.73260168887E+02  0.76636089894E+02  0.41800000000E+01 0.  1.
         -5    1    3    3    0  502 -0.27701400749E+01  0.12682066265E+03 -0.55075050367E+02  0.13835421108E+03  0.41800000000E+01 0.  1.
        -11    1    4    4    0    0  0.81279916522E+01 -0.48388166238E+02 -0.20942863302E+02  0.53348686989E+02  0.00000000000E+00 0.  1.
         11    1    4    4    0    0 -0.25397790052E+02 -0.69106918961E+02 -0.21239092092E+03  0.22479038520E+03  0.00000000000E+00 0. -1.
</event>
<event>
 8    1  0.5951278E-006  0.8931270E+02  0.7561462E-02  0.1304525E+00
         -2   -1    0    0    0  501 -0.00000000000E+00  0.00000000000E+00  0.41376600345E+02  0.41376600345E+02  0.00000000000E+00 0. -1.
          2   -1    0    0  501    0  0.00000000000E+00 -0.00000000000E+00 -0.39290036150E+03  0.39290036150E+03  0.00000000000E+00 0.  1.
         23    2    1    2    0    0 -0.19650423427E+02 -0.62424891998E+02 -0.18007326651E+03  0.22881719544E+03  0.12509165173E+03 0.  0.
         23    2    1    2    0    0  0.19650423427E+02  0.62424891998E+02 -0.17145049464E+03  0.20545976641E+03  0.92387429977E+02 0.  0.
          5    1    3    3  502    0 -0.83197833027E+01 -0.52580606313E+02 -0.56469490483E+01  0.53696362893E+02  0.41800000000E+01 0. -1.
         -5    1    3    3    0  502 -0.11330640125E+02 -0.98442856851E+01 -0.17442631746E+03  0.17512083254E+03  0.41800000000E+01 0. -1.
        -11    1    4    4    0    0 -0.26723449388E+02  0.57002860051E+02 -0.12299071738E+03  0.13816723694E+03  0.00000000000E+00 0.  1.
         11    1    4    4    0    0  0.46373872815E+02  0.54220319471E+01 -0.48459777259E+02  0.67292529469E+02  0.00000000000E+00 0. -1.
</event>
<event>
 8    1  0.5951278E-006  0.1251718E+03  0.7561462E-02  0.1234801E+00
          1   -1    0    0  501    0  0.00000000000E+00  0.00000000000E+00  0.22296745025E+03  0.22296745025E+03  0.00000000000E+00 0. -1.
         -1   -1    0    0    0  501 -0.00000000000E+00 -0.00000000000E+00 -0.17210474934E+03  0.17210474934E+03  0.00000000000E+00 0.  1.
         23    2    1    2    0    0 -0.10959323960E+03  0.10246031285E+02 -0.94276611358E+02  0.19144608067E+03  0.12509141870E+03 0.  0.
         23    2    1    2    0    0  0.10959323960E+03 -0.10246031285E+02  0.14513931227E+03  0.20362611893E+03  0.91008334886E+02 0.  0.
          5    1    3    3  502    0 -0.90840597641E+02  0.82457290180E+01  0.38942785703E+01  0.91392800769E+02  0.41800000000E+01 0. -1.
         -5    1    3    3    0  502 -0.18752641958E+02  0.20003022665E+01 -0.98170889929E+02  0.10005327990E+03  0.41800000000E+01 0. -1.
        -11    1    4    4    0    0  0.86778800645E+02  0.31355971671E+02  0.11489744376E+03  0.14736071316E+03  0.00000000000E+00 0. -1.
         11    1    4    4    0    0  0.22814438954E+02 -0.41602002955E+02  0.30241868513E+02  0.56265405764E+02  0.00000000000E+00 0.  1.
</event>
<event>
 8    1  0.5951278E-006  0.8930063E+02  0.7561462E-02  0.1304554E+00
         -1   -1    0    0    0  501 -0.00000000000E+00  0.00000000000E+00  0.76650173641E+02  0.76650173641E+02  0.00000000000E+00 0.  1.
          1   -1    0    0  501    0  0.00000000000E+00 -0.00000000000E+00 -0.21883257809E+03  0.21883257809E+03  0.00000000000E+00 0. -1.
         23    2    1    2    0    0  0.21117733719E+02  0.48729492715E+02 -0.24835700353E+02  0.13814699585E+03  0.12508900156E+03 0.  0.
         23    2    1    2    0    0 -0.21117733719E+02 -0.48729492715E+02 -0.11734670410E+03  0.15733575589E+03  0.90353577573E+02 0.  0.
          5    1    3    3  502    0 -0.16186474622E+02  0.26540712652E+02  0.45575847894E+02  0.55326681629E+02  0.41800000000E+01 0. -1.
         -5    1    3    3    0  502  0.37304208341E+02  0.22188780063E+02 -0.70411548248E+02  0.82820314218E+02  0.41800000000E+01 0. -1.
        -11    1    4    4    0    0 -0.19884217446E+02  0.23842904708E+02 -0.46474536152E+02  0.55890506519E+02  0.00000000000E+00 0. -1.
         11    1    4    4    0    0 -0.12335162735E+01 -0.72572397423E+02 -0.70872167948E+02  0.10144524937E+03  0.00000000000E+00 0.  1.
</event>
<event>
 8    1  0.5951278E-006  0.1586837E+03  0.7561462E-02  0.1190191E+00
          1   -1    0    0  501    0  0.00000000000E+00  0.00000000000E+00  0.73630904394E+03  0.73630904394E+03  0.00000000000E+00 0. -1.
         -1   -1    0    0    0  501 -0.00000000000E+00 -0.00000000000E+00 -0.61147843007E+02  0.61147843007E+02  0.00000000000E+00 0.  1.
         23    2    1    2    0    0 -0.60096121202E+02 -0.11473801421E+03  0.11309221496E+03  0.21263467877E+03  0.12508917556E+03 0.  0.
         23    2    1    2    0    0  0.60096121202E+02  0.11473801421E+03  0.56206898597E+03  0.58482220818E+03  0.96535560797E+02 0.  0.
          5    1    3    3  502    0  0.11872650584E+02 -0.69925008319E+02 -0.22707851247E+00  0.71049212416E+02  0.41800000000E+01 0. -1.
         -5    1    3    3    0  502 -0.71968771786E+02 -0.44813005891E+02  0.11331929347E+03  0.14158546635E+03  0.41800000000E+01 0. -1.
        -11    1    4    4    0    0  0.44700364523E+02 -0.96656404097E+00  0.14636470541E+03  0.15304144480E+03  0.00000000000E+00 0. -1.
         11    1    4    4    0    0  0.15395756679E+02  0.11570457825E+03  0.41570428056E+03  0.43178076338E+03  0.00000000000E+00 0.  1.
</event>
<event>
 8    1  0.5951278E-006  0.1612111E+03  0.7561462E-02  0.1187336E+00
         -1   -1    0    0    0  501 -0.00000000000E+00  0.00000000000E+00  0.16292319911E+04  0.16292319911E+04  0.00000000000E+00 0.  1.
          1   -1    0    0  501    0  0.00000000000E+00 -0.00000000000E+00 -0.31194040925E+02  0.31194040925E+02  0.00000000000E+00 0. -1.
         23    2    1    2    0    0 -0.13939979989E+03  0.19890468410E+01  0.13654323966E+04  0.13782197624E+04  0.12509126005E+03 0.  0.
         23    2    1    2    0    0  0.13939979989E+03 -0.19890468410E+01  0.23260555361E+03  0.28220626964E+03  0.78094651129E+02 0.  0.
          5    1    3    3  502    0 -0.21415570237E+02  0.50736203017E+02  0.28843944442E+03  0.29367937354E+03  0.41800000000E+01 0.  1.
         -5    1    3    3    0  502 -0.11798422965E+03 -0.48747156176E+02  0.10769929522E+04  0.10845403889E+04  0.41800000000E+01 0.  1.
        -11    1    4    4    0    0  0.59171478746E+02 -0.27378722929E+01  0.17124368056E+03  0.18119922178E+03  0.00000000000E+00 0.  1.
         11    1    4    4    0    0  0.80228321140E+02  0.74882545191E+00  0.61361873056E+02  0.10100704786E+03  0.00000000000E+00 0. -1.
</event>
<event>
 8    1  0.5951278E-006  0.1003143E+03  0.7561462E-02  0.1279636E+00
         -1   -1    0    0    0  501 -0.00000000000E+00  0.00000000000E+00  0.97378293001E+02  0.97378293001E+02  0.00000000000E+00 0.  1.
          1   -1    0    0  501    0  0.00000000000E+00 -0.00000000000E+00 -0.17433025832E+03  0.17433025832E+03  0.00000000000E+00 0. -1.
         23    2    1    2    0    0  0.26962870384E+02 -0.57737246885E+02 -0.40667737573E+01  0.14044532546E+03  0.12509102581E+03 0.  0.
         23    2    1    2    0    0 -0.26962870384E+02  0.57737246885E+02 -0.72885191562E+02  0.13126322586E+03  0.88640832895E+02 0.  0.
          5    1    3    3  502    0  0.60864956759E+02 -0.38980823691E+01  0.30062478221E+02  0.68124613791E+02  0.41800000000E+01 0.  1.
         -5    1    3    3    0  502 -0.33902086375E+02 -0.53839164516E+02 -0.34129251978E+02  0.72320711673E+02  0.41800000000E+01 0.  1.
        -11    1    4    4    0    0 -0.99953746525E+01  0.57910202824E+02 -0.24549168086E+01  0.58817733058E+02  0.00000000000E+00 0.  1.
         11    1    4    4    0    0 -0.16967495731E+02 -0.17295593930E+00 -0.70430274753E+02  0.72445492799E+02  0.00000000000E+00 0. -1.
</event>
<event>
 8    1  0.5951278E-006  0.1470615E+03  0.7561462E-02  0.1204131E+00
         -1   -1    0    0    0  501 -0.00000000000E+00  0.00000000000E+00  0.41227684005E+02  0.41227684005E+02  0.00000000000E+00 0.  1.
          1   -1    0    0  501    0  0.00000000000E+00 -0.00000000000E+00 -0.70773508422E+03  0.70773508422E+03  0.00000000000E+00 0. -1.
         23    2    1    2    0    0 -0.49496429428E+02 -0.11267526395E+03 -0.25359564447E+03  0.30844691137E+03  0.12523232253E+03 0.  0.
         23    2    1    2    0    0  0.49496429428E+02  0.11267526395E+03 -0.41291175575E+03  0.44051585686E+03  0.91719629732E+02 0.  0.
          5    1    3    3  502    0 -0.83906041832E+02 -0.53769677294E+02 -0.19234930203E+03  0.21667286043E+03  0.41800000000E+01 0. -1.
         -5    1    3    3    0  502  0.34409612404E+02 -0.58905586652E+02 -0.61246342438E+02  0.91774050944E+02  0.41800000000E+01 0. -1.
        -11    1    4    4    0    0  0.29268861928E+02  0.34311225572E+02 -0.44639906503E+02  0.63455872316E+02  0.00000000000E+00 0.  1.
         11    1    4    4    0    0  0.20227567499E+02  0.78364038375E+02 -0.36827184924E+03  0.37705998454E+03  0.00000000000E+00 0. -1.
</event>
<event>
 7    1  0.5951278E-006  0.2697019E+03  0.7561462E-02  0.1101450E+00
          1   -1    0    0  501    0  0.00000000000E+00  0.00000000000E+00  0.20334343800E+03  0.20334343800E+03  0.00000000000E+00 0.  1.
         -1   -1    0    0    0  501 -0.00000000000E+00 -0.00000000000E+00 -0.38831830051E+03  0.38831830051E+03  0.00000000000E+00 0. -1.
         23    2    1    2    0    0  0.10811995401E+03  0.22483023086E+03 -0.75623750565E+02  0.28914265863E+03  0.12508384478E+03 0.  0.
          5    1    3    3  502    0  0.45470302407E+02  0.17268077919E+03 -0.99029930719E+02  0.20423172985E+03  0.41800000000E+01 0. -1.
         -5    1    3    3    0  502  0.62649651603E+02  0.52149451674E+02  0.23406180154E+02  0.84910928774E+02  0.41800000000E+01 0. -1.
        -11    1    1    2    0    0 -0.14666714815E+02 -0.17037513692E+03 -0.45650672420E+02  0.17699373914E+03  0.00000000000E+00 0.  1.
         11    1    1    2    0    0 -0.93453239194E+02 -0.54455093944E+02 -0.63700439524E+02  0.12552534074E+03  0.00000000000E+00 0. -1.
</event>
<event>
 8    1  0.5951278E-006  0.2896028E+03  0.7561462E-02  0.1090557E+00
          1   -1    0    0  501    0  0.00000000000E+00  0.00000000000E+00  0.68815770201E+03  0.68815770201E+03  0.00000000000E+00 0. -1.
         -1   -1    0    0    0  501 -0.00000000000E+00 -0.00000000000E+00 -0.20720108457E+03  0.20720108457E+03  0.00000000000E+00 0.  1.
         23    2    1    2    0    0  0.16445064234E+03 -0.22063065965E+03 -0.34487895605E+02  0.30423139638E+03  0.12508167674E+03 0.  0.
         23    2    1    2    0    0 -0.16445064234E+03  0.22063065965E+03  0.51544451304E+03  0.59112739020E+03  0.89591537991E+02 0.  0.
          5    1    3    3  502    0  0.35818378399E+02  0.93538320323E+01 -0.14328605077E+02  0.39915306942E+02  0.41800000000E+01 0.  1.
         -5    1    3    3    0  502  0.12863226394E+03 -0.22998449168E+03 -0.20159290529E+02  0.26431608944E+03  0.41800000000E+01 0.  1.
        -11    1    4    4    0    0 -0.69492337213E+02  0.12855758455E+03  0.35018740525E+03  0.37945679105E+03  0.00000000000E+00 0. -1.
         11    1    4    4    0    0 -0.94958305126E+02  0.92073075094E+02  0.16525710779E+03  0.21167059915E+03  0.00000000000E+00 0.  1.
</event>
<event>
 7    1  0.5951278E-006  0.1551806E+03  0.7561462E-02  0.1194248E+00
         -3   -1    0    0    0  501 -0.00000000000E+00  0.00000000000E+00  0.14016468234E+03  0.14016468234E+03  0.00000000000E+00 0.  1.
          3   -1    0    0  501    0  0.00000000000E+00 -0.00000000000E+00 -0.21383856387E+03  0.21383856387E+03  0.00000000000E+00 0. -1.
         23    2    1    2    0    0  0.86650145226E+02  0.65964795211E+02 -0.38365443474E+02  0.14707715315E+03  0.91105322842E+02 0.  0.
          5    1    1    2  502    0  0.51482300192E+02 -0.11871106799E+02 -0.23733950416E+02  0.58069985466E+02  0.41800000000E+01 0. -1.
         -5    1    1    2    0  502 -0.13813244542E+03 -0.54093688412E+02 -0.11574487641E+02  0.14885610759E+03  0.41800000000E+01 0.  1.
        -11    1    3    3    0    0  0.38681379879E+02  0.27277781197E+02 -0.64613142458E+02  0.80094847991E+02  0.00000000000E+00 0. -1.
         11    1    3    3    0    0  0.47968765346E+02  0.38687014013E+02  0.26247698984E+02  0.66982305156E+02  0.00000000000E+00 0.  1.
</event>
<event>
 8    1  0.5951278E-006  0.9803662E+02  0.7561462E-02  0.1284480E+00
          1   -1    0    0  501    0  0.00000000000E+00  0.00000000000E+00  0.14895478697E+03  0.14895478697E+03  0.00000000000E+00 0. -1.
         -1   -1    0    0    0  501 -0.00000000000E+00 -0.00000000000E+00 -0.15593516597E+03  0.15593516597E+03  0.00000000000E+00 0.  1.
         23    2    1    2    0    0  0.35473358631E+02 -0.64355381246E+02 -0.82198842742E+02  0.16674491888E+03  0.12508894418E+03 0.  0.
         23    2    1    2    0    0 -0.35473358631E+02  0.64355381246E+02  0.75218463741E+02  0.13814503406E+03  0.89589390449E+02 0.  0.
          5    1    3    3  502    0 -0.70989943025E+01  0.21361156332E+02 -0.65650910396E+02  0.69528477301E+02  0.41800000000E+01 0.  1.
         -5    1    3    3    0  502  0.42572352933E+02 -0.85716537578E+02 -0.16547932345E+02  0.97216441581E+02  0.41800000000E+01 0.  1.
        -11    1    4    4    0    0 -0.66022503075E+01  0.37080121416E+02 -0.14240502373E+02  0.40265581098E+02  0.00000000000E+00 0.  1.
         11    1    4    4    0    0 -0.28871108323E+02  0.27275259830E+02  0.89458966114E+02  0.97879452966E+02  0.00000000000E+00 0. -1.
</event>
<event>
 8    1  0.5951278E-006  0.1010626E+03  0.7561462E-02  0.1278077E+00
         -1   -1    0    0    0  501 -0.00000000000E+00  0.00000000000E+00  0.80563045224E+02  0.80563045224E+02  0.00000000000E+00 0.  1.
          1   -1    0    0  501    0  0.00000000000E+00 -0.00000000000E+00 -0.17763158821E+03  0.17763158821E+03  0.00000000000E+00 0. -1.
         23    2    1    2    0    0 -0.49008580665E+02 -0.18887760595E+02 -0.52325799689E+02  0.14540616216E+03  0.12508546758E+03 0.  0.
         23    2    1    2    0    0  0.49008580665E+02  0.18887760595E+02 -0.44742743299E+02  0.11278847128E+03  0.89222966194E+02 0.  0.
          5    1    3    3  502    0 -0.63190135377E+02  0.20036831799E+02 -0.73187075740E+02  0.98834651276E+02  0.41800000000E+01 0.  1.
         -5    1    3    3    0  502  0.14181554712E+02 -0.38924592394E+02  0.20861276051E+02  0.46571510879E+02  0.41800000000E+01 0.  1.
        -11    1    4    4    0    0  0.56456110371E+02 -0.15768963499E+02 -0.39559072201E+01  0.58750334552E+02  0.00000000000E+00 0.  1.
         11    1    4    4    0    0 -0.74475297062E+01  0.34656724094E+02 -0.40786836079E+02  0.54038136727E+02  0.00000000000E+00 0. -1.
</event>
<event>
 8    1  0.5951278E-006  0.1666892E+03  0.7561462E-02  0.1181345E+00
         -1   -1    0    0    0  501 -0.00000000000E+00  0.00000000000E+00  0.17167498299E+03  0.17167498299E+03  0.00000000000E+00 0.  1.
          1   -1    0    0  501    0  0.00000000000E+00 -0.00000000000E+00 -0.23789499244E+03  0.23789499244E+03  0.00000000000E+00 0. -1.
         23    2    1    2    0    0 -0.14940835760E+03  0.42546512800E+01  0.46945272364E+02  0.20048149621E+03  0.12509201552E+03 0.  0.
         23    2    1    2    0    0  0.14940835760E+03 -0.42546512800E+01 -0.11316528181E+03  0.20908847921E+03  0.92577814589E+02 0.  0.
          5    1    3    3  502    0 -0.93756679993E+02  0.35940397922E+02 -0.25517921212E+02  0.10368540856E+03  0.41800000000E+01 0. -1.
         -5    1    3    3    0  502 -0.55651677611E+02 -0.31685746642E+02  0.72463193576E+02  0.96796087650E+02  0.41800000000E+01 0. -1.
        -11    1    4    4    0    0  0.10672315967E+03  0.33356752258E+02 -0.45585060749E+02  0.12074975567E+03  0.00000000000E+00 0.  1.
         11    1    4    4    0    0  0.42685197931E+02 -0.37611403538E+02 -0.67580221059E+02  0.88338723541E+02  0.00000000000E+00 0. -1.
</event>
<event>
 8    1  0.5951278E-006  0.1557056E+03  0.7561462E-02  0.1193632E+00
          1   -1    0    0  501    0  0.00000000000E+00  0.00000000000E+00  0.11297745633E+02  0.11297745633E+02  0.00000000000E+00 0. -1.
         -1   -1    0    0    0  501 -0.00000000000E+00 -0.00000000000E+00 -0.24276452182E+04  0.24276452182E+04  0.00000000000E+00 0.  1.
         23    2    1    2    0    0 -0.83935805000E+02 -0.73606712152E+02 -0.16734940710E+04  0.16818714970E+04  0.12508460945E+03 0.  0.
         23    2    1    2    0    0  0.83935805000E+02  0.73606712152E+02 -0.74285340160E+03  0.75707146681E+03  0.94142775314E+02 0.  0.
          5    1    3    3  502    0 -0.11173489942E+03 -0.33944245611E+02 -0.10490514966E+04  0.10555393951E+04  0.41800000000E+01 0.  1.
         -5    1    3    3    0  502  0.27799094419E+02 -0.39662466541E+02 -0.62444257434E+03  0.62633210197E+03  0.41800000000E+01 0.  1.
        -11    1    4    4    0    0  0.94777949183E+02  0.27653558134E+02 -0.48996183623E+03  0.49981014385E+03  0.00000000000E+00 0.  1.
         11    1    4    4    0    0 -0.10842144183E+02  0.45953154018E+02 -0.25289156537E+03  0.25726132296E+03  0.00000000000E+00 0. -1.
</event>
<event>
 8    1  0.5951278E-006  0.1062540E+03  0.7561462E-02  0.1267668E+00
          1   -1    0    0  501    0  0.00000000000E+00  0.00000000000E+00  0.42671081925E+02  0.42671081925E+02  0.00000000000E+00 0. -1.
         -1   -1    0    0    0  501 -0.00000000000E+00 -0.00000000000E+00 -0.28998697595E+03  0.28998697595E+03  0.00000000000E+00 0.  1.
         23    2    1    2    0    0 -0.17250831374E+02 -0.18747180191E+02 -0.15481060519E+03  0.20065836577E+03  0.12509359826E+03 0.  0.
         23    2    1    2    0    0  0.17250831374E+02  0.18747180191E+02 -0.92505288836E+02  0.13199969211E+03  0.90651212377E+02 0.  0.
          5    1    3    3  502    0 -0.50461613527E+02  0.34313681610E+02 -0.10064614949E+03  0.11777488269E+03  0.41800000000E+01 0.  1.
         -5    1    3    3    0  502  0.33210782153E+02 -0.53060861801E+02 -0.54164455702E+02  0.82883483082E+02  0.41800000000E+01 0.  1.
        -11    1    4    4    0    0  0.39026537639E+02  0.41598935207E+02 -0.79532865576E+02  0.97872461690E+02  0.00000000000E+00 0.  1.
         11    1    4    4    0    0 -0.21775706266E+02 -0.22851755017E+02 -0.12972423261E+02  0.34127230417E+02  0.00000000000E+00 0. -1.
</event>
<event>
 8    1  0.5951278E-006  0.1256770E+03  0.7561462E-02  0.1234015E+00
          2   -1    0    0  501    0  0.00000000000E+00  0.00000000000E+00  0.88962473939E+03  0.88962473939E+03  0.00000000000E+00 0. -1.
         -2   -1    0    0    0  501 -0.00000000000E+00 -0.00000000000E+00 -0.18552025630E+02  0.18552025630E+02  0.00000000000E+00 0.  1.
         23    2    1    2    0    0  0.63933468093E+02  0.82543136928E+01  0.42707414896E+03  0.44900128927E+03  0.12269558680E+03 0.  0.
         23    2    1    2    0    0 -0.63933468093E+02 -0.82543136928E+01  0.44399856481E+03  0.45917547575E+03  0.97733156845E+02 0.  0.
          5    1    3    3  502    0 -0.30211480917E+02 -0.24194144334E+02  0.12093742760E+03  0.12704890395E+03  0.41800000000E+01 0. -1.
         -5    1    3    3    0  502  0.94144949011E+02  0.32448458027E+02  0.30613672136E+03  0.32195238532E+03  0.41800000000E+01 0.  1.
        -11    1    4    4    0    0  0.56376499613E+01 -0.37038788042E+02  0.94430857696E+02  0.10159154395E+03  0.00000000000E+00 0.  1.
         11    1    4    4    0    0 -0.69571118055E+02  0.28784474349E+02  0.34956770711E+03  0.35758393180E+03  0.00000000000E+00 0. -1.
</event>
<event>
 8    1  0.5951278E-006  0.7347737E+02  0.7561462E-02  0.1348652E+00
          1   -1    0    0  501    0  0.00000000000E+00  0.00000000000E+00  0.20218881553E+03  0.20218881553E+03  0.00000000000E+00 0. -1.
         -1   -1    0    0    0  501 -0.00000000000E+00 -0.00000000000E+00 -0.63832394843E+02  0.63832394843E+02  0.00000000000E+00 0.  1.
         23    2    1    2    0    0  0.36655107166E+02 -0.10326649459E+02  0.89981391376E+02  0.15872846358E+03  0.12509131779E+03 0.  0.
         23    2    1    2    0    0 -0.36655107166E+02  0.10326649459E+02  0.48375029312E+02  0.10729274679E+03  0.87871232399E+02 0.  0.
          5    1    3    3  502    0 -0.23866224530E+02 -0.34250341083E+01 -0.20878419089E+02  0.32166882280E+02  0.41800000000E+01 0. -1.
         -5    1    3    3    0  502  0.60521331696E+02 -0.69016153504E+01  0.11085981047E+03  0.12656158130E+03  0.41800000000E+01 0. -1.
        -11    1    4    4    0    0 -0.46417772624E+02 -0.10584552591E+01 -0.95977133149E+01  0.47411454774E+02  0.00000000000E+00 0.  1.
         11    1    4    4    0    0  0.97626654581E+01  0.11385104718E+02  0.57972742627E+02  0.59881292020E+02  0.00000000000E+00 0. -1.
</event>
<event>
 8    1  0.5951278E-006  0.1621568E+03  0.7561462E-02  0.1186283E+00
         -2   -1    0    0    0  501 -0.00000000000E+00  0.00000000000E+00  0.33204494302E+02  0.33204494302E+02  0.00000000000E+00 0. -1.
          2   -1    0    0  501    0  0.00000000000E+00 -0.00000000000E+00 -0.10632495263E+04  0.10632495263E+04  0.00000000000E+00 0.  1.
         23    2    1    2    0    0 -0.19905739084E+01 -0.14840722459E+03 -0.43730190124E+03  0.47844312866E+03  0.12508480261E+03 0.  0.
         23    2    1    2    0    0  0.19905739084E+01  0.14840722459E+03 -0.59274313077E+03  0.61801089195E+03  0.92543918210E+02 0.  0.
          5    1    3    3  502    0  0.28958256053E+02 -0.14039419082E+03 -0.41542005376E+03  0.43947742021E+03  0.41800000000E+01 0.  1.
         -5    1    3    3    0  502 -0.30948829961E+02 -0.80130337661E+01 -0.21881847478E+02  0.38965708452E+02  0.41800000000E+01 0.  1.
        -11    1    4    4    0    0 -0.30564759049E+01  0.84557190274E+02 -0.48766635010E+03  0.49495224971E+03  0.00000000000E+00 0.  1.
         11    1    4    4    0    0  0.50470498133E+01  0.63850034314E+02 -0.10507678066E+03  0.12305864223E+03  0.00000000000E+00 0. -1.
</event>
<event>
 8    1  0.5951278E-006  0.1228031E+03  0.7561462E-02  0.1238543E+00
          3   -1    0    0  501    0  0.00000000000E+00  0.00000000000E+00  0.58010091736E+02  0.58010091736E+02  0.00000000000E+00 0. -1.
         -3   -1    0    0    0  501 -0.00000000000E+00 -0.00000000000E+00 -0.27176794957E+03  0.27176794957E+03  0.00000000000E+00 0.  1.
         23    2    1    2    0    0 -0.60647540533E+02  0.15322236306E+02 -0.12646296391E+03  0.18854730528E+03  0.12507721610E+03 0.  0.
         23    2    1    2    0    0  0.60647540533E+02 -0.15322236306E+02 -0.87294893924E+02  0.14123073603E+03  0.91721465297E+02 0.  0.
          5    1    3    3  502    0 -0.76567440484E+02 -0.33695133442E+02 -0.54477825263E+02  0.99916168888E+02  0.41800000000E+01 0. -1.
         -5    1    3    3    0  502  0.15919899951E+02  0.49017369748E+02 -0.71985138652E+02  0.88631136392E+02  0.41800000000E+01 0. -1.
        -11    1    4    4    0    0  0.32397066019E+02  0.37915956910E+02 -0.30756745880E+02  0.58593234184E+02  0.00000000000E+00 0.  1.
         11    1    4    4    0    0  0.28250474514E+02 -0.53238193216E+02 -0.56538148044E+02  0.82637501846E+02  0.00000000000E+00 0. -1.
</event>
<event>
 8    1  0.5951278E-006  0.1287371E+03  0.7561462E-02  0.1229342E+00
          3   -1    0    0  501    0  0.00000000000E+00  0.00000000000E+00  0.13190481723E+03  0.13190481723E+03  0.00000000000E+00 0. -1.
         -3   -1    0    0    0  501 -0.00000000000E+00 -0.00000000000E+00 -0.17217503766E+03  0.17217503766E+03  0.00000000000E+00 0.  1.
         23    2    1    2    0    0 -0.97426270025E+02  0.22537500200E+01 -0.61261265927E+02  0.17001152214E+03  0.12511601607E+03 0.  0.
         23    2    1    2    0    0  0.97426270025E+02 -0.22537500200E+01  0.20991045498E+02  0.13406833274E+03  0.89647846452E+02 0.  0.
          5    1    3    3  502    0 -0.26826533703E+02 -0.58864436828E+02 -0.20024157074E+02  0.67846327093E+02  0.41800000000E+01 0.  1.
         -5    1    3    3    0  502 -0.70599736322E+02  0.61118186848E+02 -0.41237108854E+02  0.10216519505E+03  0.41800000000E+01 0.  1.
        -11    1    4    4    0    0  0.51517506795E+02 -0.10384612320E+02  0.55218869839E+02  0.76230028635E+02  0.00000000000E+00 0. -1.
         11    1    4    4    0    0  0.45908763230E+02  0.81308623000E+01 -0.34227824341E+02  0.57838304109E+02  0.00000000000E+00 0.  1.
</event>
<event>
 8    1  0.5951278E-006  0.2101348E+03  0.7561462E-02  0.1141459E+00
         -1   -1    0    0    0  501 -0.00000000000E+00  0.00000000000E+00  0.14702396555E+03  0.14702396555E+03  0.00000000000E+00 0.  1.
          1   -1    0    0  501    0  0.00000000000E+00 -0.00000000000E+00 -0.31101207527E+03  0.31101207527E+03  0.00000000000E+00 0. -1.
         23    2    1    2    0    0 -0.14235110648E+03  0.11694397169E+03 -0.83565051424E+02  0.23784799465E+03  0.12509524656E+03 0.  0.
         23    2    1    2    0    0  0.14235110648E+03 -0.11694397169E+03 -0.80423058290E+02  0.22018804617E+03  0.89861990534E+02 0.  0.
          5    1    3    3  502    0 -0.16125382711E+03  0.10063356007E+03 -0.51464498527E+02  0.19696694439E+03  0.41800000000E+01 0.  1.
         -5    1    3    3    0  502  0.18902720637E+02  0.16310411614E+02 -0.32100552897E+02  0.40881050266E+02  0.41800000000E+01 0.  1.
        -11    1    4    4    0    0  0.76636992717E+01 -0.56817299969E+02 -0.26249637004E+02  0.63055382840E+02  0.00000000000E+00 0.  1.
         11    1    4    4    0    0  0.13468740721E+03 -0.60126671717E+02 -0.54173421286E+02  0.15713266333E+03  0.00000000000E+00 0. -1.
</event>
<event>
 8    1  0.5951278E-006  0.9400199E+02  0.7561462E-02  0.1293440E+00
          2   -1    0    0  501    0  0.00000000000E+00  0.00000000000E+00  0.80593578613E+03  0.80593578613E+03  0.00000000000E+00 0. -1.
         -2   -1    0    0    0  501 -0.00000000000E+00 -0.00000000000E+00 -0.19316280155E+02  0.19316280155E+02  0.00000000000E+00 0.  1.
         23    2    1    2    0    0 -0.50243723539E+02  0.19371370780E+02  0.34018218629E+03  0.36643054342E+03  0.12509093299E+03 0.  0.
         23    2    1    2    0    0  0.50243723539E+02 -0.19371370780E+02  0.44643731968E+03  0.45882152287E+03  0.91165934865E+02 0.  0.
          5    1    3    3  502    0 -0.37935669187E+02  0.49448999230E+02  0.68203267315E+02  0.92485007401E+02  0.41800000000E+01 0.  1.
         -5    1    3    3    0  502 -0.12308054353E+02 -0.30077628450E+02  0.27197891898E+03  0.27394553602E+03  0.41800000000E+01 0.  1.
        -11    1    4    4    0    0  0.65588538354E+02 -0.31927032735E+02  0.41698414070E+03  0.42331662544E+03  0.00000000000E+00 0. -1.
         11    1    4    4    0    0 -0.15344814814E+02  0.12555661955E+02  0.29453178984E+02  0.35504897424E+02  0.00000000000E+00 0.  1.
</event>
<event>
 7    1  0.5951278E-006  0.1885765E+03  0.7561462E-02  0.1159752E+00
         -2   -1    0    0    0  501 -0.00000000000E+00  0.00000000000E+00  0.54268261920E+02  0.54268261920E+02  0.00000000000E+00 0.  1.
          2   -1    0    0  501    0  0.00000000000E+00 -0.00000000000E+00 -0.97654098200E+03  0.97654098200E+03  0.00000000000E+00 0. -1.
         23    2    1    2    0    0  0.50139612337E+02  0.62412390306E+02 -0.51598665544E+03  0.52993458140E+03  0.90438624399E+02 0.  0.
          5    1    1    2  502    0  0.35624332425E+02  0.81364832614E+02 -0.27216029532E+03  0.28631805357E+03  0.41800000000E+01 0. -1.
         -5    1    1    2    0  502 -0.85763944762E+02 -0.14377722292E+03 -0.13412576932E+03  0.21455660896E+03  0.41800000000E+01 0.  1.
        -11    1    3    3    0    0 -0.59950169056E+01  0.64321000461E+02 -0.27173674898E+03  0.27930984959E+03  0.00000000000E+00 0. -1.
         11    1    3    3    0    0  0.56134629242E+02 -0.19086101546E+01 -0.24424990645E+03  0.25062473181E+03  0.00000000000E+00 0.  1.
</event>
<event>
 8    1  0.5951278E-006  0.6825408E+02  0.7561462E-02  0.1366133E+00
         -1   -1    0    0    0  501 -0.00000000000E+00  0.00000000000E+00  0.10819881409E+03  0.10819881409E+03  0.00000000000E+00 0.  1.
          1   -1    0    0  501    0  0.00000000000E+00 -0.00000000000E+00 -0.12999782604E+03  0.12999782604E+03  0.00000000000E+00 0. -1.
         23    2    1    2    0    0 -0.42396485382E+02  0.21015704149E+02 -0.11568459729E+02  0.13424214901E+03  0.12509198022E+03 0.  0.
         23    2    1    2    0    0  0.42396485382E+02 -0.21015704149E+02 -0.10230552227E+02  0.10395449112E+03  0.91993207532E+02 0.  0.
          5    1    3    3  502    0 -0.31041003678E+02 -0.11116120023E+01  0.54863403651E+02  0.63184215202E+02  0.41800000000E+01 0. -1.
         -5    1    3    3    0  502 -0.11355481704E+02  0.22127316152E+02 -0.66431863380E+02  0.71057933807E+02  0.41800000000E+01 0. -1.
        -11    1    4    4    0    0  0.30174032564E+02  0.20625384774E+02 -0.37767701312E+02  0.52557378175E+02  0.00000000000E+00 0. -1.
         11    1    4    4    0    0  0.12222452818E+02 -0.41641088923E+02  0.27537149085E+02  0.51397112948E+02  0.00000000000E+00 0.  1.
</event>
<event>
 8    1  0.5951278E-006  0.1425847E+03  0.7561462E-02  0.1209893E+00
         -1   -1    0    0    0  501 -0.00000000000E+00  0.00000000000E+00  0.28104572705E+03  0.28104572705E+03  0.00000000000E+00 0.  1.
          1   -1    0    0  501    0  0.00000000000E+00 -0.00000000000E+00 -0.84442148062E+02  0.84442148062E+02  0.00000000000E+00 0. -1.
         23    2    1    2    0    0  0.71246601431E+02 -0.83059446376E+02  0.11086218563E+03  0.19978198122E+03  0.12508983160E+03 0.  0.
         23    2    1    2    0    0 -0.71246601431E+02  0.83059446376E+02  0.85741393354E+02  0.16570589389E+03  0.90177086259E+02 0.  0.
          5    1    3    3  502    0 -0.31359432444E+02 -0.25464639872E+01  0.58256059762E+01  0.32269313086E+02  0.41800000000E+01 0.  1.
         -5    1    3    3    0  502  0.10260603388E+03 -0.80512982389E+02  0.10503657966E+03  0.16751266814E+03  0.41800000000E+01 0.  1.
        -11    1    4    4    0    0 -0.48682224815E+02  0.87322637164E+02  0.97723916242E+02  0.13980402634E+03  0.00000000000E+00 0.  1.
         11    1    4    4    0    0 -0.22564376616E+02 -0.42631907878E+01 -0.11982522888E+02  0.25901867549E+02  0.00000000000E+00 0. -1.
</event>
<event>
 7    1  0.5951278E-006  0.1471604E+03  0.7561462E-02  0.1204006E+00
         -2   -1    0    0    0  501 -0.00000000000E+00  0.00000000000E+00  0.10362785122E+03  0.10362785122E+03  0.00000000000E+00 0.  1.
          2   -1    0    0  501    0  0.00000000000E+00 -0.00000000000E+00 -0.38451191754E+03  0.38451191754E+03  0.00000000000E+00 0. -1.
         23    2    1    2    0    0  0.74367555035E+02  0.16240414586E+02 -0.12875864541E+03  0.17499005444E+03  0.90820956170E+02 0.  0.
          5    1    1    2  502    0  0.13007859666E+02  0.69040726001E+02 -0.17521335351E+03  0.18882006755E+03  0.41800000000E+01 0. -1.
         -5    1    1    2    0  502 -0.87375414702E+02 -0.85281140587E+02  0.23087932603E+02  0.12432964677E+03  0.41800000000E+01 0.  1.
        -11    1    3    3    0    0  0.39554863683E+02 -0.25773869595E+02 -0.10568173723E+03  0.11574760982E+03  0.00000000000E+00 0. -1.
         11    1    3    3    0    0  0.34812691352E+02  0.42014284181E+02 -0.23076908181E+02  0.59242444629E+02  0.00000000000E+00 0.  1.
</event>
<event>
 8    1  0.5951278E-006  0.1116652E+03  0.7561462E-02  0.1257517E+00
          2   -1    0    0  501    0  0.00000000000E+00  0.00000000000E+00  0.57992398289E+03  0.57992398289E+03  0.00000000000E+00 0. -1.
         -2   -1    0    0    0  501 -0.00000000000E+00 -0.00000000000E+00 -0.36504434712E+02  0.36504434712E+02  0.00000000000E+00 0.  1.
         23    2    1    2    0    0  0.71720036706E+02 -0.53037467206E+02  0.23426426851E+03  0.28015181599E+03  0.12509418816E+03 0.  0.
         23    2    1    2    0    0 -0.71720036706E+02  0.53037467206E+02  0.30915527966E+03  0.33627660161E+03  0.97715041067E+02 0.  0.
          5    1    3    3  502    0  0.29983741366E+02  0.15943756383E+01 -0.53945421205E+01  0.30791886345E+02  0.41800000000E+01 0.  1.
         -5    1    3    3    0  502  0.41736295340E+02 -0.54631842845E+02  0.23965881063E+03  0.24935992965E+03  0.41800000000E+01 0.  1.
        -11    1    4    4    0    0 -0.58994022998E+01  0.57842000651E+02  0.87907044787E+02  0.10539520155E+03  0.00000000000E+00 0.  1.
         11    1    4    4    0    0 -0.65820634406E+02 -0.48045334444E+01  0.22124823488E+03  0.23088140005E+03  0.00000000000E+00 0. -1.
</event>
<event>
 7    1  0.5951278E-006  0.1083445E+03  0.7561462E-02  0.1263667E+00
          1   -1    0    0  501    0  0.00000000000E+00  0.00000000000E+00  0.21096005304E+02  0.21096005304E+02  0.00000000000E+00 0. -1.
         -1   -1    0    0    0  501 -0.00000000000E+00 -0.00000000000E+00 -0.12974359936E+04  0.12974359936E+04  0.00000000000E+00 0.  1.
         23    2    1    2    0    0 -0.13493348500E+02  0.29270196860E+02 -0.11426001942E+03  0.14589769632E+03  0.84805488472E+02 0.  0.
          5    1    1    2  502    0 -0.51691815266E+02  0.35888782505E+02 -0.55732065119E+03  0.56087773099E+03  0.41800000000E+01 0. -1.
         -5    1    1    2    0  502  0.65185163766E+02 -0.65158979365E+02 -0.60475931773E+03  0.61175657164E+03  0.41800000000E+01 0.  1.
        -11    1    3    3    0    0 -0.14150212144E+02 -0.12921688918E+02 -0.99292680285E+02  0.10112484812E+03  0.00000000000E+00 0.  1.
         11    1    3    3    0    0  0.65686364385E+00  0.42191885777E+02 -0.14967339134E+02  0.44772848201E+02  0.00000000000E+00 0. -1.
</event>
<event>
 8    1  0.5951278E-006  0.1095785E+03  0.7561462E-02  0.1261352E+00
         -2   -1    0    0    0  501 -0.00000000000E+00  0.00000000000E+00  0.27049816865E+02  0.27049816865E+02  0.00000000000E+00 0. -1.
          2   -1    0    0  501    0  0.00000000000E+00 -0.00000000000E+00 -0.48150601610E+03  0.48150601610E+03  0.00000000000E+00 0.  1.
         23    2    1    2    0    0  0.12557669110E+02 -0.22500950279E+02 -0.21624781483E+03  0.25114393320E+03  0.12508465113E+03 0.  0.
         23    2    1    2    0    0 -0.12557669110E+02  0.22500950279E+02 -0.23820838440E+03  0.25741189976E+03  0.94093910125E+02 0.  0.
          5    1    3    3  502    0 -0.43811409736E+02  0.22791062609E+02 -0.53074835861E+02  0.72617372299E+02  0.41800000000E+01 0. -1.
         -5    1    3    3    0  502  0.56369078847E+02 -0.45292012889E+02 -0.16317297897E+03  0.17852656090E+03  0.41800000000E+01 0. -1.
        -11    1    4    4    0    0 -0.42964777130E+02  0.42767502693E+02 -0.15958578356E+03  0.17071219545E+03  0.00000000000E+00 0.  1.
         11    1    4    4    0    0  0.30407108020E+02 -0.20266552413E+02 -0.78622600845E+02  0.86699704316E+02  0.00000000000E+00 0. -1.
</event>
<event>
 8    1  0.5951278E-006  0.1445442E+03  0.7561462E-02  0.1207342E+00
          1   -1    0    0  501    0  0.00000000000E+00  0.00000000000E+00  0.24493091062E+03  0.24493091062E+03  0.00000000000E+00 0. -1.
         -1   -1    0    0    0  501 -0.00000000000E+00 -0.00000000000E+00 -0.10688542478E+03  0.10688542478E+03  0.00000000000E+00 0.  1.
         23    2    1    2    0    0 -0.83832235946E+01 -0.11563158667E+03  0.45312070925E+02  0.17646974952E+03  0.12508975358E+03 0.  0.
         23    2    1    2    0    0  0.83832235946E+01  0.11563158667E+03  0.92733414911E+02  0.17534658587E+03  0.93305930474E+02 0.  0.
          5    1    3    3  502    0 -0.57447007091E+01  0.15918857495E+02 -0.22439404106E+02  0.28414976101E+02  0.41800000000E+01 0.  1.
         -5    1    3    3    0  502 -0.26385228855E+01 -0.13155044417E+03  0.67751475031E+02  0.14805477342E+03  0.41800000000E+01 0.  1.
        -11    1    4    4    0    0 -0.33338762507E+02  0.73554916340E+02  0.23270713761E+02  0.84043589418E+02  0.00000000000E+00 0.  1.
         11    1    4    4    0    0  0.41721986102E+02  0.42076670334E+02  0.69462701150E+02  0.91302996455E+02  0.00000000000E+00 0. -1.
</event>
<event>
 8    1  0.5951278E-006  0.1569389E+03  0.7561462E-02  0.1192197E+00
         -2   -1    0    0    0  501 -0.00000000000E+00  0.00000000000E+00  0.24299759392E+02  0.24299759392E+02  0.00000000000E+00 0.  1.
          2   -1    0    0  501    0  0.00000000000E+00 -0.00000000000E+00 -0.13085352512E+04  0.13085352512E+04  0.00000000000E+00 0. -1.
         23    2    1    2    0    0 -0.11293194073E+03  0.84239966498E+02 -0.71389091950E+03  0.73833424545E+03  0.12508883988E+03 0.  0.
         23    2    1    2    0    0  0.11293194073E+03 -0.84239966498E+02 -0.57034457235E+03  0.59450076519E+03  0.91039735303E+02 0.  0.
          5    1    3    3  502    0 -0.62084887422E+02  0.47850378189E+01 -0.50805308557E+03  0.51187189803E+03  0.41800000000E+01 0. -1.
         -5    1    3    3    0  502 -0.50847053312E+02  0.79454928679E+02 -0.20583783393E+03  0.22646234742E+03  0.41800000000E+01 0. -1.
        -11    1    4    4    0    0  0.66932018270E+02 -0.72029172587E+01 -0.35303860379E+03  0.35939954487E+03  0.00000000000E+00 0. -1.
         11    1    4    4    0    0  0.45999922465E+02 -0.77037049240E+02 -0.21730596856E+03  0.23510122032E+03  0.00000000000E+00 0.  1.
</event>
<event>
 8    1  0.5951278E-006  0.8503768E+02  0.7561462E-02  0.1315334E+00
          1   -1    0    0  501    0  0.00000000000E+00  0.00000000000E+00  0.22793712603E+03  0.22793712603E+03  0.00000000000E+00 0. -1.
         -1   -1    0    0    0  501 -0.00000000000E+00 -0.00000000000E+00 -0.58759704419E+02  0.58759704419E+02  0.00000000000E+00 0.  1.
         23    2    1    2    0    0  0.30859200667E+02 -0.62289446661E+01  0.72673804152E+02  0.14805655982E+03  0.12509265797E+03 0.  0.
         23    2    1    2    0    0 -0.30859200667E+02  0.62289446661E+01  0.96503617464E+02  0.13864027063E+03  0.94430325851E+02 0.  0.
          5    1    3    3  502    0  0.54859234920E+02 -0.24824450687E+02  0.93294552302E+02  0.11111766240E+03  0.41800000000E+01 0. -1.
         -5    1    3    3    0  502 -0.24000034253E+02  0.18595506021E+02 -0.20620748150E+02  0.36938897420E+02  0.41800000000E+01 0. -1.
        -11    1    4    4    0    0 -0.35846057892E+01  0.37444620803E+02  0.88853266119E+02  0.96487573945E+02  0.00000000000E+00 0. -1.
         11    1    4    4    0    0 -0.27274594878E+02 -0.31215676137E+02  0.76503513441E+01  0.42152696688E+02  0.00000000000E+00 0.  1.
</event>
<event>
 8    1  0.5951278E-006  0.1737030E+03  0.7561462E-02  0.1174040E+00
          1   -1    0    0  501    0  0.00000000000E+00  0.00000000000E+00  0.13188149643E+03  0.13188149643E+03  0.00000000000E+00 0. -1.
         -1   -1    0    0    0  501 -0.00000000000E+00 -0.00000000000E+00 -0.40334362634E+03  0.40334362634E+03  0.00000000000E+00 0.  1.
         23    2    1    2    0    0  0.91716215999E+02 -0.12496718598E+03 -0.29661996908E+03  0.35410386873E+03  0.11566106494E+03 0.  0.
         23    2    1    2    0    0 -0.91716215999E+02  0.12496718598E+03  0.25157839160E+02  0.18112125404E+03  0.90240400850E+02 0.  0.
          5    1    3    3  502    0  0.49367869813E+01 -0.99091315562E+02 -0.12155228337E+03  0.15695824502E+03  0.41800000000E+01 0. -1.
         -5    1    3    3    0  502  0.86779429018E+02 -0.25875870417E+02 -0.17506768571E+03  0.19714562371E+03  0.41800000000E+01 0.  1.
        -11    1    4    4    0    0 -0.33124091762E+02  0.68454445706E+02 -0.31107813283E+02  0.82163937583E+02  0.00000000000E+00 0.  1.
         11    1    4    4    0    0 -0.58592124237E+02  0.56512740273E+02  0.56265652442E+02  0.98957316458E+02  0.00000000000E+00 0. -1.
</event>
<event>
 8    1  0.5951278E-006  0.1296294E+03  0.7561462E-02  0.1228007E+00
         -1   -1    0    0    0  501 -0.00000000000E+00  0.00000000000E+00  0.10115457735E+03  0.10115457735E+03  0.00000000000E+00 0.  1.
          1   -1    0    0  501    0  0.00000000000E+00 -0.00000000000E+00 -0.26810927402E+03  0.26810927402E+03  0.00000000000E+00 0. -1.
         23    2    1    2    0    0 -0.46734215141E+02  0.83691266563E+02 -0.19144325955E+01  0.15761772683E+03  0.12510542673E+03 0.  0.
         23    2    1    2    0    0  0.46734215141E+02 -0.83691266563E+02 -0.16504026408E+03  0.21164612454E+03  0.91473921414E+02 0.  0.
          5    1    3    3  502    0  0.29444246085E+01 -0.20996137201E+02  0.30352915267E+02  0.37259619951E+02  0.41800000000E+01 0.  1.
         -5    1    3    3    0  502 -0.49678639750E+02  0.10468740376E+03 -0.32267347863E+02  0.12035810688E+03  0.41800000000E+01 0.  1.
        -11    1    4    4    0    0  0.14708930849E+02  0.13129986878E+02 -0.26562092822E+01  0.19894839781E+02  0.00000000000E+00 0.  1.
         11    1    4    4    0    0  0.32025284292E+02 -0.96821253441E+02 -0.16238405480E+03  0.19175128475E+03  0.00000000000E+00 0. -1.
</event>
<event>
 8    1  0.5951278E-006  0.1231456E+03  0.7561462E-02  0.1237996E+00
          1   -1    0    0  501    0  0.00000000000E+00  0.00000000000E+00  0.39543384835E+03  0.39543384835E+03  0.00000000000E+00 0. -1.
         -1   -1    0    0    0  501 -0.00000000000E+00 -0.00000000000E+00 -0.88058733525E+02  0.88058733525E+02  0.00000000000E+00 0.  1.
         23    2    1    2    0    0  0.79091914262E+02 -0.67762442877E+02  0.58420232639E+01  0.15178864328E+03  0.11026505986E+03 0.  0.
         23    2    1    2    0    0 -0.79091914262E+02  0.67762442877E+02  0.30153309157E+03  0.33170393860E+03  0.90873637582E+02 0.  0.
          5    1    3    3  502    0  0.11140057597E+02  0.52507714824E+01  0.43263586750E+02  0.45176120051E+02  0.41800000000E+01 0. -1.
         -5    1    3    3    0  502  0.67951856665E+02 -0.73013214359E+02 -0.37421563486E+02  0.10661252323E+03  0.41800000000E+01 0.  1.
        -11    1    4    4    0    0 -0.97032557945E+02  0.57309247329E+02  0.27982240216E+03  0.30166246681E+03  0.00000000000E+00 0. -1.
         11    1    4    4    0    0  0.17940643683E+02  0.10453195547E+02  0.21710689407E+02  0.30041471792E+02  0.00000000000E+00 0.  1.
</event>
<event>
 8    1  0.5951278E-006  0.1780547E+03  0.7561462E-02  0.1169699E+00
         -1   -1    0    0    0  501 -0.00000000000E+00  0.00000000000E+00  0.16977806220E+03  0.16977806220E+03  0.00000000000E+00 0.  1.
          1   -1    0    0  501    0  0.00000000000E+00 -0.00000000000E+00 -0.21604088863E+03  0.21604088863E+03  0.00000000000E+00 0. -1.
         23    2    1    2    0    0  0.86366043094E+02 -0.12946261759E+03  0.22606812270E+01  0.19967790194E+03  0.12508593482E+03 0.  0.
         23    2    1    2    0    0 -0.86366043094E+02  0.12946261759E+03 -0.48523507654E+02  0.18614104890E+03  0.89857089517E+02 0.  0.
          5    1    3    3  502    0  0.11285532537E+03 -0.92921012320E+02 -0.22598471542E+02  0.14798243920E+03  0.41800000000E+01 0. -1.
         -5    1    3    3    0  502 -0.26489282277E+02 -0.36541605272E+02  0.24859152769E+02  0.51695462739E+02  0.41800000000E+01 0. -1.
        -11    1    4    4    0    0 -0.69922607620E+02  0.56941799871E+02  0.11062714240E+02  0.90851104976E+02  0.00000000000E+00 0.  1.
         11    1    4    4    0    0 -0.16443435473E+02  0.72520817721E+02 -0.59586221894E+02  0.95289943923E+02  0.00000000000E+00 0. -1.
</event>
<event>
 8    1  0.5951278E-006  0.1076249E+03  0.7561462E-02  0.1265032E+00
         -1   -1    0    0    0  501 -0.00000000000E+00  0.00000000000E+00  0.12098694330E+03  0.12098694330E+03  0.00000000000E+00 0.  1.
          1   -1    0    0  501    0  0.00000000000E+00 -0.00000000000E+00 -0.98978502356E+02  0.98978502356E+02  0.00000000000E+00 0. -1.
         23    2    1    2    0    0 -0.50230480998E+00 -0.15104569495E+02  0.15507254131E+02  0.12693771250E+03  0.12507720653E+03 0.  0.
         23    2    1    2    0    0  0.50230480998E+00  0.15104569495E+02  0.65011868124E+01  0.93027733154E+02  0.91561418600E+02 0.  0.
          5    1    3    3  502    0  0.94263017008E+01 -0.67843506999E+02 -0.61902337759E+01  0.68901291714E+02  0.41800000000E+01 0.  1.
         -5    1    3    3    0  502 -0.99286065108E+01  0.52738937504E+02  0.21697487906E+02  0.58036420787E+02  0.41800000000E+01 0.  1.
        -11    1    4    4    0    0  0.49527198446E+01  0.53710140346E+02  0.39957845536E+01  0.54085810561E+02  0.00000000000E+00 0. -1.
         11    1    4    4    0    0 -0.44504150346E+01 -0.38605570851E+02  0.25054022588E+01  0.38941922593E+02  0.00000000000E+00 0.  1.
</event>
<event>
 8    1  0.5951278E-006  0.2362909E+03  0.7561462E-02  0.1122289E+00
          1   -1    0    0  501    0  0.00000000000E+00  0.00000000000E+00  0.10715199127E+04  0.10715199127E+04  0.00000000000E+00 0. -1.
         -1   -1    0    0    0  501 -0.00000000000E+00 -0.00000000000E+00 -0.56916655760E+02  0.56916655760E+02  0.00000000000E+00 0.  1.
         23    2    1    2    0    0 -0.17615755430E+03  0.12131474293E+03  0.40145159704E+03  0.47176403676E+03  0.12509664592E+03 0.  0.
         23    2    1    2    0    0  0.17615755430E+03 -0.12131474293E+03  0.61315165994E+03  0.65667253175E+03  0.97545400056E+02 0.  0.
          5    1    3    3  502    0  0.30047016771E+01  0.48885829897E+02  0.12608105967E+03  0.13532464152E+03  0.41800000000E+01 0.  1.
         -5    1    3    3    0  502 -0.17916225598E+03  0.72428913032E+02  0.27537053738E+03  0.33643939523E+03  0.41800000000E+01 0.  1.
        -11    1    4    4    0    0  0.38955149369E+02 -0.76411268844E+02  0.29668425089E+03  0.30883285187E+03  0.00000000000E+00 0. -1.
         11    1    4    4    0    0  0.13720240493E+03 -0.44903474085E+02  0.31646740905E+03  0.34783967987E+03  0.00000000000E+00 0.  1.
</event>
<event>
 8    1  0.5951278E-006  0.1193945E+03  0.7561462E-02  0.1244099E+00
         -2   -1    0    0    0  501 -0.00000000000E+00  0.00000000000E+00  0.20903292058E+03  0.20903292058E+03  0.00000000000E+00 0.  1.
          2   -1    0    0  501    0  0.00000000000E+00 -0.00000000000E+00 -0.92766445405E+02  0.92766445405E+02  0.00000000000E+00 0. -1.
         23    2    1    2    0    0 -0.52507188044E+02  0.42993473290E+02  0.12871841240E+03  0.19188463403E+03  0.12508333040E+03 0.  0.
         23    2    1    2    0    0  0.52507188044E+02 -0.42993473290E+02 -0.12451937227E+02  0.10991473195E+03  0.85561404954E+02 0.  0.
          5    1    3    3  502    0 -0.87334341657E+02  0.14042561341E+02  0.51987536433E+02  0.10268718083E+03  0.41800000000E+01 0. -1.
         -5    1    3    3    0  502  0.34827153614E+02  0.28950911949E+02  0.76730875970E+02  0.89197453207E+02  0.41800000000E+01 0. -1.
        -11    1    4    4    0    0  0.17974493552E+02  0.23643102956E+02  0.10386968068E+02  0.31463754408E+02  0.00000000000E+00 0.  1.
         11    1    4    4    0    0  0.34532694492E+02 -0.66636576245E+02 -0.22838905295E+02  0.78450977544E+02  0.00000000000E+00 0. -1.
</event>
<event>
 8    1  0.5951278E-006  0.9786552E+02  0.7561462E-02  0.1284850E+00
          2   -1    0    0  501    0  0.00000000000E+00  0.00000000000E+00  0.51481202711E+03  0.51481202711E+03  0.00000000000E+00 0. -1.
         -2   -1    0    0    0  501 -0.00000000000E+00 -0.00000000000E+00 -0.47516626820E+02  0.47516626820E+02  0.00000000000E+00 0.  1.
         23    2    1    2    0    0 -0.94794477347E+01 -0.70311440440E+02  0.95828660584E+02  0.17281618532E+03  0.12509493648E+03 0.  0.
         23    2    1    2    0    0  0.94794477347E+01  0.70311440440E+02  0.37146673970E+03  0.38951246861E+03  0.93267710972E+02 0.  0.
          5    1    3    3  502    0  0.22031255285E+02 -0.34215080240E+02 -0.21354143038E+02  0.46146719821E+02  0.41800000000E+01 0.  1.
         -5    1    3    3    0  502 -0.31510703019E+02 -0.36096360200E+02  0.11718280362E+03  0.12666946550E+03  0.41800000000E+01 0.  1.
        -11    1    4    4    0    0 -0.22538901070E+02 -0.65416713266E+01  0.30256088399E+02  0.38291335970E+02  0.00000000000E+00 0.  1.
         11    1    4    4    0    0  0.32018348805E+02  0.76853111767E+02  0.34121065130E+03  0.35122113264E+03  0.00000000000E+00 0. -1.
</event>
<event>
 8    1  0.5951278E-006  0.2418572E+03  0.7561462E-02  0.1118562E+00
         -2   -1    0    0    0  501 -0.00000000000E+00  0.00000000000E+00  0.35267192210E+03  0.35267192210E+03  0.00000000000E+00 0.  1.
          2   -1    0    0  501    0  0.00000000000E+00 -0.00000000000E+00 -0.26924223798E+03  0.26924223798E+03  0.00000000000E+00 0. -1.
         23    2    1    2    0    0 -0.18239771786E+03  0.13014601519E+03  0.22738532440E+03  0.34287180752E+03  0.12510027133E+03 0.  0.
         23    2    1    2    0    0  0.18239771786E+03 -0.13014601519E+03 -0.14395564027E+03  0.27904235256E+03  0.83273617680E+02 0.  0.
          5    1    3    3  502    0 -0.15422341971E+02  0.64505954356E+02  0.21718491662E+02  0.69914462447E+02  0.41800000000E+01 0. -1.
         -5    1    3    3    0  502 -0.16697537589E+03  0.65640060834E+02  0.20566683273E+03  0.27295734507E+03  0.41800000000E+01 0. -1.
        -11    1    4    4    0    0  0.51782570099E+02 -0.85128349834E+02 -0.74485639488E+02  0.12440410364E+03  0.00000000000E+00 0. -1.
         11    1    4    4    0    0  0.13061514777E+03 -0.45017665355E+02 -0.69470000786E+02  0.15463824892E+03  0.00000000000E+00 0.  1.
</event>
<event>
 8    1  0.5951278E-006  0.1138823E+03  0.7561462E-02  0.1253545E+00
         -1   -1    0    0    0  501 -0.00000000000E+00  0.00000000000E+00  0.47386807465E+02  0.47386807465E+02  0.00000000000E+00 0.  1.
          1   -1    0    0  501    0  0.00000000000E+00 -0.00000000000E+00 -0.43033562747E+03  0.43033562747E+03  0.00000000000E+00 0. -1.
         23    2    1    2    0    0 -0.65889623390E+02 -0.63864044243E+00 -0.10347156461E+03  0.17520226008E+03  0.12509043497E+03 0.  0.
         23    2    1    2    0    0  0.65889623390E+02  0.63864044243E+00 -0.27947725540E+03  0.30252017486E+03  0.95231662698E+02 0.  0.
          5    1    3    3  502    0  0.27159144422E+00  0.37663208172E+02 -0.89746663639E+02  0.97419336099E+02  0.41800000000E+01 0. -1.
         -5    1    3    3    0  502 -0.66161214834E+02 -0.38301848615E+02 -0.13724900968E+02  0.77782923976E+02  0.41800000000E+01 0. -1.
        -11    1    4    4    0    0 -0.23354610630E+02  0.52722635240E+01 -0.36711856066E+02  0.43829156690E+02  0.00000000000E+00 0.  1.
         11    1    4    4    0    0  0.89244234020E+02 -0.46336230816E+01 -0.24276539933E+03  0.25869101817E+03  0.00000000000E+00 0. -1.
</event>
<event>
 8    1  0.5951278E-006  0.1113662E+03  0.7561462E-02  0.1258061E+00
          1   -1    0    0  501    0  0.00000000000E+00  0.00000000000E+00  0.34256662682E+02  0.34256662682E+02  0.00000000000E+00 0. -1.
         -1   -1    0    0    0  501 -0.00000000000E+00 -0.00000000000E+00 -0.40993498257E+03  0.40993498257E+03  0.00000000000E+00 0.  1.
         23    2    1    2    0    0 -0.58747083623E+01 -0.41126598833E+02 -0.26896634769E+03  0.29952749390E+03  0.12509162275E+03 0.  0.
         23    2    1    2    0    0  0.58747083623E+01  0.41126598833E+02 -0.10671197220E+03  0.14466415135E+03  0.88398882037E+02 0.  0.
          5    1    3    3  502    0  0.57289764500E+02 -0.29804442024E+02 -0.16553267152E+03  0.17773283214E+03  0.41800000000E+01 0. -1.
         -5    1    3    3    0  502 -0.63164472863E+02 -0.11322156809E+02 -0.10343367617E+03  0.12179466176E+03  0.41800000000E+01 0. -1.
        -11    1    4    4    0    0 -0.23112629112E+02 -0.17044616369E+02 -0.53279844146E+02  0.60526476553E+02  0.00000000000E+00 0.  1.
         11    1    4    4    0    0  0.28987337475E+02  0.58171215202E+02 -0.53432128050E+02  0.84137674795E+02  0.00000000000E+00 0. -1.
</event>
<event>
 8    1  0.5951278E-006  0.2333812E+03  0.7561462E-02  0.1124282E+00
         -1   -1    0    0    0  501 -0.00000000000E+00  0.00000000000E+00  0.71183682850E+02  0.71183682850E+02  0.00000000000E+00 0.  1.
          1   -1    0    0  501    0  0.00000000000E+00 -0.00000000000E+00 -0.93458644005E+03  0.93458644005E+03  0.00000000000E+00 0. -1.
         23    2    1    2    0    0  0.20828952262E+03 -0.74851640188E+02 -0.29598327796E+03  0.39018085267E+03  0.12509078179E+03 0.  0.
         23    2    1    2    0    0 -0.20828952262E+03  0.74851640188E+02 -0.56741947924E+03  0.61558927022E+03  0.89431487289E+02 0.  0.
          5    1    3    3  502    0 -0.65681861732E+01  0.11353024234E+02 -0.52107937187E+02  0.53895656103E+02  0.41800000000E+01 0. -1.
         -5    1    3    3    0  502  0.21485770880E+03 -0.86204664422E+02 -0.24387534077E+03  0.33628519657E+03  0.41800000000E+01 0. -1.
        -11    1    4    4    0    0 -0.65506403046E+02  0.19935035935E+02 -0.29801701541E+03  0.30578200727E+03  0.00000000000E+00 0.  1.
         11    1    4    4    0    0 -0.14278311958E+03  0.54916604253E+02 -0.26940246383E+03  0.30980726295E+03  0.00000000000E+00 0. -1.
</event>
<event>
 8    1  0.5951278E-006  0.1749549E+03  0.7561462E-02  0.1172777E+00
         -2   -1    0    0    0  501 -0.00000000000E+00  0.00000000000E+00  0.38477265205E+03  0.38477265205E+03  0.00000000000E+00 0.  1.
          2   -1    0    0  501    0  0.00000000000E+00 -0.00000000000E+00 -0.93106951541E+02  0.93106951541E+02  0.00000000000E+00 0. -1.
         23    2    1    2    0    0 -0.64463666671E+01  0.15190989441E+03  0.11815648612E+03  0.22962656248E+03  0.12509688772E+03 0.  0.
         23    2    1    2    0    0  0.64463666671E+01 -0.15190989441E+03  0.17350921439E+03  0.24825304112E+03  0.91683985963E+02 0.  0.
          5    1    3    3  502    0  0.15188249382E+02  0.16812866376E+03  0.94816007841E+02  0.19366331155E+03  0.41800000000E+01 0. -1.
         -5    1    3    3    0  502 -0.21634616049E+02 -0.16218769347E+02  0.23340478280E+02  0.35963250925E+02  0.41800000000E+01 0. -1.
        -11    1    4    4    0    0 -0.77220647671E+01 -0.30999714827E+02  0.10240246376E+03  0.10727011321E+03  0.00000000000E+00 0.  1.
         11    1    4    4    0    0  0.14168431434E+02 -0.12091017959E+03  0.71106750632E+02  0.14098292791E+03  0.00000000000E+00 0. -1.
</event>
<event>
 8    1  0.5951278E-006  0.7587445E+02  0.7561462E-02  0.1341184E+00
          1   -1    0    0  501    0  0.00000000000E+00  0.00000000000E+00  0.33506837555E+02  0.33506837555E+02  0.00000000000E+00 0. -1.
         -1   -1    0    0    0  501 -0.00000000000E+00 -0.00000000000E+00 -0.49560306961E+03  0.49560306961E+03  0.00000000000E+00 0.  1.
         23    2    1    2    0    0 -0.50067233508E+01 -0.63446637378E+02 -0.31733747666E+03  0.34698880183E+03  0.12509041303E+03 0.  0.
         23    2    1    2    0    0  0.50067233508E+01  0.63446637378E+02 -0.14475875540E+03  0.18212110533E+03  0.90346315199E+02 0.  0.
          5    1    3    3  502    0 -0.37661296454E+01 -0.20548005678E+02  0.49152313431E+01  0.21864038259E+02  0.41800000000E+01 0. -1.
         -5    1    3    3    0  502 -0.12405937053E+01 -0.42898631700E+02 -0.32225270800E+03  0.32512476357E+03  0.41800000000E+01 0. -1.
        -11    1    4    4    0    0  0.21121585945E+02  0.67483805064E+02 -0.14904129363E+03  0.16496512524E+03  0.00000000000E+00 0.  1.
         11    1    4    4    0    0 -0.16114862594E+02 -0.40371676865E+01  0.42825382282E+01  0.17155980096E+02  0.00000000000E+00 0. -1.
</event>
<event>
 8    1  0.5951278E-006  0.6646410E+02  0.7561462E-02  0.1372547E+00
         -2   -1    0    0    0  501 -0.00000000000E+00  0.00000000000E+00  0.15399162649E+03  0.15399162649E+03  0.00000000000E+00 0.  1.
          2   -1    0    0  501    0  0.00000000000E+00 -0.00000000000E+00 -0.10751713403E+03  0.10751713403E+03  0.00000000000E+00 0. -1.
         23    2    1    2    0    0  0.20049663095E+02 -0.56597242043E+02  0.57709276311E+02  0.15027970024E+03  0.12509352875E+03 0.  0.
         23    2    1    2    0    0 -0.20049663095E+02  0.56597242043E+02 -0.11234783851E+02  0.11122906028E+03  0.92954003065E+02 0.  0.
          5    1    3    3  502    0 -0.96900023553E+01 -0.28796099559E+02 -0.36435351780E+02  0.47624770391E+02  0.41800000000E+01 0. -1.
         -5    1    3    3    0  502  0.29739665450E+02 -0.27801142484E+02  0.94144628091E+02  0.10265492985E+03  0.41800000000E+01 0. -1.
        -11    1    4    4    0    0 -0.84058678469E+01  0.41098807991E+02  0.39065530059E+02  0.57322650595E+02  0.00000000000E+00 0.  1.
         11    1    4    4    0    0 -0.11643795248E+02  0.15498434052E+02 -0.50300313910E+02  0.53906409686E+02  0.00000000000E+00 0. -1.
</event>
<event>
 8    1  0.5951278E-006  0.6844108E+02  0.7561462E-02  0.1365476E+00
         -3   -1    0    0    0  501 -0.00000000000E+00  0.00000000000E+00  0.53085927228E+02  0.53085927228E+02  0.00000000000E+00 0.  1.
          3   -1    0    0  501    0  0.00000000000E+00 -0.00000000000E+00 -0.24009429636E+03  0.24009429636E+03  0.00000000000E+00 0. -1.
         23    2    1    2    0    0 -0.11223969926E+02  0.31215363797E+01 -0.60972664766E+02  0.13964873668E+03  0.12509349431E+03 0.  0.
         23    2    1    2    0    0  0.11223969926E+02 -0.31215363797E+01 -0.12603570437E+03  0.15353148690E+03  0.86897624855E+02 0.  0.
          5    1    3    3  502    0 -0.61695530333E+01  0.32462133288E+02  0.29387696110E+02  0.44418043236E+02  0.41800000000E+01 0.  1.
         -5    1    3    3    0  502 -0.50544168926E+01 -0.29340596909E+02 -0.90360360876E+02  0.95230693448E+02  0.41800000000E+01 0.  1.
        -11    1    4    4    0    0 -0.31109524754E+02 -0.10888425346E+01 -0.14745798811E+02  0.34444545156E+02  0.00000000000E+00 0.  1.
         11    1    4    4    0    0  0.42333494680E+02 -0.20326938451E+01 -0.11128990556E+03  0.11908694175E+03  0.00000000000E+00 0. -1.
</event>
<event>
 7    1  0.5951278E-006  0.1756588E+03  0.7561462E-02  0.1172072E+00
          2   -1    0    0  501    0  0.00000000000E+00  0.00000000000E+00  0.14250421101E+04  0.14250421101E+04  0.00000000000E+00 0. -1.
         -2   -1    0    0    0  501 -0.00000000000E+00 -0.00000000000E+00 -0.28593010413E+02  0.28593010413E+02  0.00000000000E+00 0.  1.
         23    2    1    2    0    0  0.49943841741E+02 -0.47091633022E+01  0.54261626671E+03  0.55251288624E+03  0.91222327421E+02 0.  0.
          5    1    1    2  502    0 -0.58927947860E+02  0.11966438960E+03  0.67663763719E+03  0.68967241038E+03  0.41800000000E+01 0. -1.
         -5    1    1    2    0  502  0.89841061185E+01 -0.11495522630E+03  0.17719519583E+03  0.21144982393E+03  0.41800000000E+01 0.  1.
        -11    1    3    3    0    0 -0.11716063322E+00 -0.40780564170E+02  0.17004244185E+03  0.17486423354E+03  0.00000000000E+00 0. -1.
         11    1    3    3    0    0  0.50061002374E+02  0.36071400868E+02  0.37257382486E+03  0.37764865271E+03  0.00000000000E+00 0.  1.
</event>
<event>
 8    1  0.6507121E-006  0.2047204E+03  0.7561462E-02  0.1145816E+00
          1   -1    0    0  501    0  0.00000000000E+00  0.00000000000E+00  0.10524907151E+03  0.10524907151E+03  0.00000000000E+00 0. -1.
         -1   -1    0    0    0  501 -0.00000000000E+00 -0.00000000000E+00 -0.46531526883E+03  0.46531526883E+03  0.00000000000E+00 0.  1.
         23    2    1    2    0    0  0.10843001837E+03 -0.15628963217E+03 -0.23025730519E+03  0.32380476125E+03  0.12509028261E+03 0.  0.
         23    2    1    2    0    0 -0.10843001837E+03  0.15628963217E+03 -0.12980889212E+03  0.24675957909E+03  0.88636467620E+02 0.  0.
          5    1    3    3  502    0  0.60281659195E+02 -0.15848037633E+03 -0.13430171581E+03  0.21634308722E+03  0.41800000000E+01 0. -1.
         -5    1    3    3    0  502  0.48148359171E+02  0.21907441617E+01 -0.95955589381E+02  0.10746167403E+03  0.41800000000E+01 0. -1.
        -11    1    4    4    0    0 -0.48315895161E+02  0.88638259869E+02 -0.11831755411E+03  0.15553202387E+03  0.00000000000E+00 0.  1.
         11    1    4    4    0    0 -0.60114123206E+02  0.67651372303E+02 -0.11491338016E+02  0.91227555227E+02  0.00000000000E+00 0. -1.
</event>
<event>
 8    1  0.5951278E-006  0.1438981E+03  0.7561462E-02  0.1208178E+00
          1   -1    0    0  501    0  0.00000000000E+00  0.00000000000E+00  0.13926861184E+03  0.13926861184E+03  0.00000000000E+00 0. -1.
         -1   -1    0    0    0  501 -0.00000000000E+00 -0.00000000000E+00 -0.16489701687E+03  0.16489701687E+03  0.00000000000E+00 0.  1.
         23    2    1    2    0    0 -0.88874042340E+02  0.39699580817E+02 -0.47359176393E+02  0.16542524857E+03  0.12509184289E+03 0.  0.
         23    2    1    2    0    0  0.88874042340E+02 -0.39699580817E+02  0.21730771357E+02  0.13874038014E+03  0.96446951943E+02 0.  0.
          5    1    3    3  502    0  0.11725088407E+02 -0.32154376025E+02 -0.59984352531E+01  0.34997645937E+02  0.41800000000E+01 0.  1.
         -5    1    3    3    0  502 -0.10059913075E+03  0.71853956841E+02 -0.41360741139E+02  0.13042760263E+03  0.41800000000E+01 0.  1.
        -11    1    4    4    0    0  0.41861270710E+02 -0.64172871211E+02 -0.95253791260E+01  0.77209171945E+02  0.00000000000E+00 0.  1.
         11    1    4    4    0    0  0.47012771629E+02  0.24473290394E+02  0.31256150483E+02  0.61531208196E+02  0.00000000000E+00 0. -1.
</event>
<event>
 7    1  0.5951278E-006  0.1046867E+03  0.7561462E-02  0.1270738E+00
          1   -1    0    0  501    0  0.00000000000E+00  0.00000000000E+00  0.30359440509E+03  0.30359440509E+03  0.00000000000E+00 0. -1.
         -1   -1    0    0    0  501 -0.00000000000E+00 -0.00000000000E+00 -0.38852646333E+03  0.38852646333E+03  0.00000000000E+00 0.  1.
         23    2    1    2    0    0 -0.14596218400E+02  0.76649877666E+01  0.27898226844E+03  0.29313445085E+03  0.88458456583E+02 0.  0.
          5    1    1    2  502    0  0.24116886339E+02 -0.62880327805E+02 -0.61180567896E+02  0.91082896966E+02  0.41800000000E+01 0. -1.
         -5    1    1    2    0  502 -0.95206679399E+01  0.55215340039E+02 -0.30273375878E+03  0.30790352060E+03  0.41800000000E+01 0.  1.
        -11    1    3    3    0    0 -0.37235724554E+02 -0.25805181642E+02  0.19126975450E+03  0.19656176019E+03  0.00000000000E+00 0. -1.
         11    1    3    3    0    0  0.22639506154E+02  0.33470169409E+02  0.87712513938E+02  0.96572690655E+02  0.00000000000E+00 0.  1.
</event>
<event>
 8    1  0.5951278E-006  0.9691794E+02  0.7561462E-02  0.1286914E+00
          2   -1    0    0  501    0  0.00000000000E+00  0.00000000000E+00  0.39075632516E+02  0.39075632516E+02  0.00000000000E+00 0. -1.
         -2   -1    0    0    0  501 -0.00000000000E+00 -0.00000000000E+00 -0.40910358632E+03  0.40910358632E+03  0.00000000000E+00 0.  1.
         23    2    1    2    0    0  0.16724654654E+02  0.61333189898E+02 -0.23581888827E+03  0.27440853817E+03  0.12509206010E+03 0.  0.
         23    2    1    2    0    0 -0.16724654654E+02 -0.61333189898E+02 -0.13420906553E+03  0.17377068066E+03  0.90236921106E+02 0.  0.
          5    1    3    3  502    0  0.43413279670E+01  0.81039072871E+02 -0.71025079412E+02  0.10792688620E+03  0.41800000000E+01 0. -1.
         -5    1    3    3    0  502  0.12383326687E+02 -0.19705882973E+02 -0.16479380886E+03  0.16648165196E+03  0.41800000000E+01 0. -1.
        -11    1    4    4    0    0  0.20762172877E+02 -0.51596237647E+01 -0.91267204632E+02  0.93741091210E+02  0.00000000000E+00 0.  1.
         11    1    4    4    0    0 -0.37486827531E+02 -0.56173566133E+02 -0.42941860901E+02  0.80029589453E+02  0.00000000000E+00 0. -1.
</event>
<event>
 8    1  0.5951278E-006  0.7131059E+02  0.7561462E-02  0.1355692E+00
         -1   -1    0    0    0  501 -0.00000000000E+00  0.00000000000E+00  0.65967069606E+02  0.65967069606E+02  0.00000000000E+00 0.  1.
          1   -1    0    0  501    0  0.00000000000E+00 -0.00000000000E+00 -0.17849333193E+03  0.17849333193E+03  0.00000000000E+00 0. -1.
         23    2    1    2    0    0 -0.57247229699E+01  0.14021700810E+02 -0.82975791265E+02  0.15087065326E+03  0.12509033349E+03 0.  0.
         23    2    1    2    0    0  0.57247229699E+01 -0.14021700810E+02 -0.29550471056E+02  0.93589748275E+02  0.87501029114E+02 0.  0.
          5    1    3    3  502    0 -0.67743529439E+01  0.33602234442E+02 -0.11109360872E+03  0.11633685708E+03  0.41800000000E+01 0.  1.
         -5    1    3    3    0  502  0.10496299740E+01 -0.19580533632E+02  0.28117817450E+02  0.34533796180E+02  0.41800000000E+01 0.  1.
        -11    1    4    4    0    0 -0.19260326552E+02  0.31031227835E+02 -0.62711265125E+01  0.37057041269E+02  0.00000000000E+00 0. -1.
         11    1    4    4    0    0  0.24985049522E+02 -0.45052928645E+02 -0.23279344543E+02  0.56532707007E+02  0.00000000000E+00 0.  1.
</event>
<event>
 8    1  0.5951278E-006  0.1620809E+03  0.7561462E-02  0.1186367E+00
          1   -1    0    0  501    0  0.00000000000E+00  0.00000000000E+00  0.12423024210E+03  0.12423024210E+03  0.00000000000E+00 0. -1.
         -1   -1    0    0    0  501 -0.00000000000E+00 -0.00000000000E+00 -0.28994169687E+03  0.28994169687E+03  0.00000000000E+00 0.  1.
         23    2    1    2    0    0  0.22099110133E+02  0.15308656797E+03 -0.10693918101E+03  0.22584818313E+03  0.12509014920E+03 0.  0.
         23    2    1    2    0    0 -0.22099110133E+02 -0.15308656797E+03 -0.58772273762E+02  0.18832375584E+03  0.89932134892E+02 0.  0.
          5    1    3    3  502    0 -0.12129580137E+02  0.11281068509E+03 -0.12590486299E+03  0.16953726525E+03  0.41800000000E+01 0. -1.
         -5    1    3    3    0  502  0.34228690270E+02  0.40275882889E+02  0.18965681979E+02  0.56310917885E+02  0.41800000000E+01 0. -1.
        -11    1    4    4    0    0 -0.29235160457E+02 -0.10516664706E+03  0.37599032268E+01  0.10921929835E+03  0.00000000000E+00 0.  1.
         11    1    4    4    0    0  0.71360503237E+01 -0.47919920917E+02 -0.62532176988E+02  0.79104457484E+02  0.00000000000E+00 0. -1.
</event>
<event>
 8    1  0.5951278E-006  0.7382627E+02  0.7561462E-02  0.1347545E+00
          2   -1    0    0  501    0  0.00000000000E+00  0.00000000000E+00  0.68988390234E+02  0.68988390234E+02  0.00000000000E+00 0. -1.
         -2   -1    0    0    0  501 -0.00000000000E+00 -0.00000000000E+00 -0.19690193457E+03  0.19690193457E+03  0.00000000000E+00 0.  1.
         23    2    1    2    0    0 -0.27307858553E+02 -0.32364799657E+02 -0.76688549758E+02  0.15271635215E+03  0.12509177093E+03 0.  0.
         23    2    1    2    0    0  0.27307858553E+02  0.32364799657E+02 -0.51224994576E+02  0.11317397265E+03  0.91603212937E+02 0.  0.
          5    1    3    3  502    0  0.43791708639E+01 -0.39730234743E+01  0.33631696928E+02  0.34402405312E+02  0.41800000000E+01 0.  1.
         -5    1    3    3    0  502 -0.31687029417E+02 -0.28391776182E+02 -0.11032024669E+03  0.11831394684E+03  0.41800000000E+01 0.  1.
        -11    1    4    4    0    0  0.10084313189E+02 -0.30685511800E+02 -0.40194591961E+01  0.32549194447E+02  0.00000000000E+00 0.  1.
         11    1    4    4    0    0  0.17223545364E+02  0.63050311457E+02 -0.47205535379E+02  0.80624778203E+02  0.00000000000E+00 0. -1.
</event>
<event>
 8    1  0.5951278E-006  0.1437829E+03  0.7561462E-02  0.1208328E+00
         -2   -1    0    0    0  501 -0.00000000000E+00  0.00000000000E+00  0.26574508638E+03  0.26574508638E+03  0.00000000000E+00 0.  1.
          2   -1    0    0  501    0  0.00000000000E+00 -0.00000000000E+00 -0.97436094389E+02  0.97436094389E+02  0.00000000000E+00 0. -1.
         23    2    1    2    0    0 -0.10161828685E+03 -0.84788824933E+01  0.15766007645E+03  0.22563065334E+03  0.12511724242E+03 0.  0.
         23    2    1    2    0    0  0.10161828685E+03  0.84788824933E+01  0.10648915539E+02  0.13755052743E+03  0.91698312545E+02 0.  0.
          5    1    3    3  502    0 -0.21951048481E+02  0.49249464760E+02  0.93767708464E+02  0.10824608011E+03  0.41800000000E+01 0.  1.
         -5    1    3    3    0  502 -0.79667238365E+02 -0.57728347253E+02  0.63892367985E+02  0.11738457323E+03  0.41800000000E+01 0.  1.
        -11    1    4    4    0    0  0.37908913740E+01 -0.29741972781E+02  0.12553447922E+02  0.32504535946E+02  0.00000000000E+00 0.  1.
         11    1    4    4    0    0  0.97827395472E+02  0.38220855274E+02 -0.19045323838E+01  0.10504599148E+03  0.00000000000E+00 0. -1.
</event>
<event>
 8    1  0.5951278E-006  0.1007695E+03  0.7561462E-02  0.1278686E+00
          2   -1    0    0  501    0  0.00000000000E+00  0.00000000000E+00  0.13304711357E+03  0.13304711357E+03  0.00000000000E+00 0.  1.
         -2   -1    0    0    0  501 -0.00000000000E+00 -0.00000000000E+00 -0.14079742387E+03  0.14079742387E+03  0.00000000000E+00 0. -1.
         23    2    1    2    0    0  0.71240543261E+02  0.75426669991E+01  0.42520894008E+02  0.15029107401E+03  0.12508906295E+03 0.  0.
         23    2    1    2    0    0 -0.71240543261E+02 -0.75426669991E+01 -0.50271204304E+02  0.12355346343E+03  0.87213287485E+02 0.  0.
          5    1    3    3  502    0  0.77531320375E+02 -0.44220066829E+01  0.79186962160E+02  0.11098967140E+03  0.41800000000E+01 0. -1.
         -5    1    3    3    0  502 -0.62907771141E+01  0.11964673682E+02 -0.36666068152E+02  0.39301402606E+02  0.41800000000E+01 0. -1.
        -11    1    4    4    0    0 -0.89726464084E+02 -0.12211802688E+02 -0.29220077112E+02  0.95151349903E+02  0.00000000000E+00 0.  1.
         11    1    4    4    0    0  0.18485920823E+02  0.46691356887E+01 -0.21051127193E+02  0.28402113528E+02  0.00000000000E+00 0. -1.
</event>
<event>
 7    1  0.5951278E-006  0.8658247E+02  0.7561462E-02  0.1311345E+00
         -1   -1    0    0    0  501 -0.00000000000E+00  0.00000000000E+00  0.61562110694E+02  0.61562110694E+02  0.00000000000E+00 0.  1.
          1   -1    0    0  501    0  0.00000000000E+00 -0.00000000000E+00 -0.31441854606E+03  0.31441854606E+03  0.00000000000E+00 0. -1.
         23    2    1    2    0    0  0.29062634883E+02  0.29239439945E+02 -0.21228026258E+03  0.23454801155E+03  0.90831042309E+02 0.  0.
          5    1    1    2  502    0  0.68991771573E+01 -0.37415098085E+02 -0.79139887045E+02  0.87909512180E+02  0.41800000000E+01 0. -1.
         -5    1    1    2    0  502 -0.35961812040E+02  0.81756581405E+01  0.38563714258E+02  0.53523133023E+02  0.41800000000E+01 0.  1.
        -11    1    3    3    0    0  0.30061730416E+02 -0.27669313775E+02 -0.11230379104E+03  0.11950497915E+03  0.00000000000E+00 0.  1.
         11    1    3    3    0    0 -0.99909553299E+00  0.56908753720E+02 -0.99976471541E+02  0.11504303240E+03  0.00000000000E+00 0. -1.
</event>
<event>
 8    1  0.5951278E-006  0.1088089E+03  0.7561462E-02  0.1262792E+00
          1   -1    0    0  501    0  0.00000000000E+00  0.00000000000E+00  0.66593676009E+03  0.66593676009E+03  0.00000000000E+00 0. -1.
         -1   -1    0    0    0  501 -0.00000000000E+00 -0.00000000000E+00 -0.18671791022E+02  0.18671791022E+02  0.00000000000E+00 0.  1.
         23    2    1    2    0    0  0.36536455066E+00  0.26036910010E+02  0.38796105484E+03  0.40845942641E+03  0.12508904339E+03 0.  0.
         23    2    1    2    0    0 -0.36536455066E+00 -0.26036910010E+02  0.25930391422E+03  0.27614912469E+03  0.91333263187E+02 0.  0.
          5    1    3    3  502    0 -0.18019954362E+02  0.73172976406E+02  0.20014252825E+03  0.21390069482E+03  0.41800000000E+01 0.  1.
         -5    1    3    3    0  502  0.18385318913E+02 -0.47136066396E+02  0.18781852659E+03  0.19455873159E+03  0.41800000000E+01 0.  1.
        -11    1    4    4    0    0 -0.41027510734E+02 -0.29551003837E+02  0.17989684228E+03  0.18686731209E+03  0.00000000000E+00 0. -1.
         11    1    4    4    0    0  0.40662146184E+02  0.35140938272E+01  0.79407071937E+02  0.89281812601E+02  0.00000000000E+00 0.  1.
</event>
<event>
 8    1  0.5951278E-006  0.9544332E+02  0.7561462E-02  0.1290181E+00
         -1   -1    0    0    0  501 -0.00000000000E+00  0.00000000000E+00  0.22788510211E+02  0.22788510211E+02  0.00000000000E+00 0.  1.
          1   -1    0    0  501    0  0.00000000000E+00 -0.00000000000E+00 -0.51761622865E+03  0.51761622865E+03  0.00000000000E+00 0. -1.
         23    2    1    2    0    0 -0.63330169231E+01 -0.49854898939E+01 -0.22171849336E+03  0.25469905014E+03  0.12509018199E+03 0.  0.
         23    2    1    2    0    0  0.63330169231E+01  0.49854898939E+01 -0.27310922509E+03  0.28570568873E+03  0.83511253931E+02 0.  0.
          5    1    3    3  502    0 -0.32373259219E+02  0.50973350184E+02 -0.13720880150E+03  0.14996678949E+03  0.41800000000E+01 0. -1.
         -5    1    3    3    0  502  0.26040242296E+02 -0.55958840078E+02 -0.84509691855E+02  0.10473226064E+03  0.41800000000E+01 0. -1.
        -11    1    4    4    0    0  0.37106091922E+02  0.65608780070E+01 -0.22790055561E+03  0.23099474112E+03  0.00000000000E+00 0. -1.
         11    1    4    4    0    0 -0.30773074999E+02 -0.15753881131E+01 -0.45208669478E+02  0.54710947612E+02  0.00000000000E+00 0.  1.
</event>
<event>
 8    1  0.5951278E-006  0.1076460E+03  0.7561462E-02  0.1264992E+00
          3   -1    0    0  501    0  0.00000000000E+00  0.00000000000E+00  0.33955473864E+02  0.33955473864E+02  0.00000000000E+00 0. -1.
         -3   -1    0    0    0  501 -0.00000000000E+00 -0.00000000000E+00 -0.61451948895E+03  0.61451948895E+03  0.00000000000E+00 0.  1.
         23    2    1    2    0    0 -0.66368692978E+02  0.43227443943E+02 -0.42936621358E+03  0.45417607852E+03  0.12508856710E+03 0.  0.
         23    2    1    2    0    0  0.66368692978E+02 -0.43227443943E+02 -0.15119780150E+03  0.19429888429E+03  0.92832461668E+02 0.  0.
          5    1    3    3  502    0 -0.63250443747E+01 -0.10254525358E+02  0.40218759330E+01  0.13371961811E+02  0.41800000000E+01 0.  1.
         -5    1    3    3    0  502 -0.60043648603E+02  0.53481969301E+02 -0.43338808951E+03  0.44080411671E+03  0.41800000000E+01 0.  1.
        -11    1    4    4    0    0  0.63228381080E+02  0.13957598980E+02 -0.79120839583E+02  0.10223869130E+03  0.00000000000E+00 0.  1.
         11    1    4    4    0    0  0.31403118981E+01 -0.57185042923E+02 -0.72076961920E+02  0.92060192985E+02  0.00000000000E+00 0. -1.
</event>
<event>
 8    1  0.5951278E-006  0.2031581E+03  0.7561462E-02  0.1147102E+00
          1   -1    0    0  501    0  0.00000000000E+00  0.00000000000E+00  0.25280292016E+03  0.25280292016E+03  0.00000000000E+00 0. -1.
         -1   -1    0    0    0  501 -0.00000000000E+00 -0.00000000000E+00 -0.18966504700E+03  0.18966504700E+03  0.00000000000E+00 0.  1.
         23    2    1    2    0    0 -0.16642956747E+03 -0.79764471456E+02 -0.10570840312E+02  0.22316127971E+03  0.12501216847E+03 0.  0.
         23    2    1    2    0    0  0.16642956747E+03  0.79764471456E+02  0.73708713472E+02  0.21930668745E+03  0.92743069196E+02 0.  0.
          5    1    3    3  502    0 -0.16800345808E+02 -0.68040298790E+02 -0.19141278882E+02  0.72770837812E+02  0.41800000000E+01 0.  1.
         -5    1    3    3    0  502 -0.14962922166E+03 -0.11724172666E+02  0.85704385704E+01  0.15039044190E+03  0.41800000000E+01 0.  1.
        -11    1    4    4    0    0  0.80397003887E+01  0.10151339918E+02 -0.19021078209E+02  0.23010604092E+02  0.00000000000E+00 0.  1.
         11    1    4    4    0    0  0.15838986708E+03  0.69613131538E+02  0.92729791681E+02  0.19629608335E+03  0.00000000000E+00 0. -1.
</event>
<event>
 8    1  0.5951278E-006  0.1051702E+03  0.7561462E-02  0.1269785E+00
         -4   -1    0    0    0  501 -0.00000000000E+00  0.00000000000E+00  0.69589830794E+03  0.69589830794E+03  0.00000000000E+00 0.  1.
          4   -1    0    0  501    0  0.00000000000E+00 -0.00000000000E+00 -0.17592280308E+02  0.17592280308E+02  0.00000000000E+00 0. -1.
         23    2    1    2    0    0 -0.10856178167E+02  0.14205382354E+02  0.43447748414E+03  0.45247926809E+03  0.12508858594E+03 0.  0.
         23    2    1    2    0    0  0.10856178167E+02 -0.14205382354E+02  0.24382854349E+03  0.26101132016E+03  0.91405148315E+02 0.  0.
          5    1    3    3  502    0 -0.63838980427E+02  0.29850876027E+02  0.22634108662E+03  0.23709544516E+03  0.41800000000E+01 0. -1.
         -5    1    3    3    0  502  0.52982802260E+02 -0.15645493673E+02  0.20813639752E+03  0.21538382293E+03  0.41800000000E+01 0. -1.
        -11    1    4    4    0    0  0.80584911056E+01 -0.48886832972E+02  0.19406708546E+03  0.20029202524E+03  0.00000000000E+00 0.  1.
         11    1    4    4    0    0  0.27976870611E+01  0.34681450618E+02  0.49761458030E+02  0.60719294917E+02  0.00000000000E+00 0. -1.
</event>
<event>
 8    1  0.5951278E-006  0.1467771E+03  0.7561462E-02  0.1204490E+00
         -1   -1    0    0    0  501 -0.00000000000E+00  0.00000000000E+00  0.95376126417E+02  0.95376126417E+02  0.00000000000E+00 0.  1.
          1   -1    0    0  501    0  0.00000000000E+00 -0.00000000000E+00 -0.25819986705E+03  0.25819986705E+03  0.00000000000E+00 0. -1.
         23    2    1    2    0    0 -0.58096917003E+02  0.97402559757E+02 -0.97704032358E+02  0.19508009273E+03  0.12509058409E+03 0.  0.
         23    2    1    2    0    0  0.58096917003E+02 -0.97402559757E+02 -0.65119708272E+02  0.15849590073E+03  0.89542524709E+02 0.  0.
          5    1    3    3  502    0  0.35116705720E+02  0.54240055603E+02 -0.26191963310E+02  0.69847390749E+02  0.41800000000E+01 0.  1.
         -5    1    3    3    0  502 -0.93213622723E+02  0.43162504153E+02 -0.71512069048E+02  0.12523270198E+03  0.41800000000E+01 0.  1.
        -11    1    4    4    0    0  0.63422585495E+02 -0.57086603665E+02 -0.44354077040E+01  0.85445757708E+02  0.00000000000E+00 0.  1.
         11    1    4    4    0    0 -0.53256684920E+01 -0.40315956092E+02 -0.60684300568E+02  0.73050143025E+02  0.00000000000E+00 0. -1.
</event>
<event>
 8    1  0.5951278E-006  0.1228396E+03  0.7561462E-02  0.1238485E+00
          3   -1    0    0  501    0  0.00000000000E+00  0.00000000000E+00  0.80196856052E+03  0.80196856052E+03  0.00000000000E+00 0. -1.
         -3   -1    0    0    0  501 -0.00000000000E+00 -0.00000000000E+00 -0.23084842222E+02  0.23084842222E+02  0.00000000000E+00 0.  1.
         23    2    1    2    0    0  0.80193305845E+02 -0.20802034076E+02  0.39897904112E+03  0.42625383769E+03  0.12507744787E+03 0.  0.
         23    2    1    2    0    0 -0.80193305845E+02  0.20802034076E+02  0.37990467717E+03  0.39879956505E+03  0.88599313895E+02 0.  0.
          5    1    3    3  502    0  0.10167354568E+03 -0.25736000971E+02  0.19867659037E+03  0.22469915799E+03  0.41800000000E+01 0. -1.
         -5    1    3    3    0  502 -0.21480239839E+02  0.49339668950E+01  0.20030245075E+03  0.20155467970E+03  0.41800000000E+01 0. -1.
        -11    1    4    4    0    0 -0.86675052121E+02 -0.95933579989E+01  0.31483319871E+03  0.32668722073E+03  0.00000000000E+00 0. -1.
         11    1    4    4    0    0  0.64817462759E+01  0.30395392075E+02  0.65071478460E+02  0.72112344319E+02  0.00000000000E+00 0.  1.
</event>
<event>
 8    1  0.5951278E-006  0.1159490E+03  0.7561462E-02  0.1249934E+00
          2   -1    0    0  501    0  0.00000000000E+00  0.00000000000E+00  0.30022727947E+03  0.30022727947E+03  0.00000000000E+00 0. -1.
         -2   -1    0    0    0  501 -0.00000000000E+00 -0.00000000000E+00 -0.48337601874E+02  0.48337601874E+02  0.00000000000E+00 0.  1.
         23    2    1    2    0    0 -0.12923771682E+02  0.47949024331E+02  0.11393006643E+03  0.17633631642E+03  0.12509317985E+03 0.  0.
         23    2    1    2    0    0  0.12923771682E+02 -0.47949024331E+02  0.13795961117E+03  0.17222856492E+03  0.90353148545E+02 0.  0.
          5    1    3    3  502    0 -0.67221698854E+02  0.27045674458E+02  0.83187118791E+02  0.11039834436E+03  0.41800000000E+01 0. -1.
         -5    1    3    3    0  502  0.54297927172E+02  0.20903349873E+02  0.30742947635E+02  0.65937972067E+02  0.41800000000E+01 0. -1.
        -11    1    4    4    0    0  0.40744228102E+02 -0.58450633708E+02  0.80302664037E+02  0.10735495590E+03  0.00000000000E+00 0.  1.
         11    1    4    4    0    0 -0.27820456421E+02  0.10501609377E+02  0.57656947136E+02  0.64873609026E+02  0.00000000000E+00 0. -1.
</event>
<event>
 8    1  0.5951278E-006  0.7344234E+02  0.7561462E-02  0.1348764E+00
          3   -1    0    0  501    0  0.00000000000E+00  0.00000000000E+00  0.72678370502E+02  0.72678370502E+02  0.00000000000E+00 0. -1.
         -3   -1    0    0    0  501 -0.00000000000E+00 -0.00000000000E+00 -0.15887432171E+03  0.15887432171E+03  0.00000000000E+00 0.  1.
         23    2    1    2    0    0 -0.73574073352E+00 -0.79305462720E+01 -0.49302102588E+02  0.13471199350E+03  0.12511270517E+03 0.  0.
         23    2    1    2    0    0  0.73574073352E+00  0.79305462720E+01 -0.36893848621E+02  0.96840698714E+02  0.89182565464E+02 0.  0.
          5    1    3    3  502    0  0.28070675618E+02 -0.48154465195E+01  0.35090117021E+02  0.45386562630E+02  0.41800000000E+01 0.  1.
         -5    1    3    3    0  502 -0.28806416352E+02 -0.31150997525E+01 -0.84392219609E+02  0.89325430870E+02  0.41800000000E+01 0.  1.
        -11    1    4    4    0    0  0.34294932846E+02 -0.24506776820E+02 -0.11432146638E+02  0.43674002630E+02  0.00000000000E+00 0. -1.
         11    1    4    4    0    0 -0.33559192112E+02  0.32437323092E+02 -0.25461701982E+02  0.53166696084E+02  0.00000000000E+00 0.  1.
</event>
<event>
 8    1  0.1346209E-005  0.3200993E+03  0.7561462E-02  0.1075604E+00
          2   -1    0    0  501    0  0.00000000000E+00  0.00000000000E+00  0.11320812173E+04  0.11320812173E+04  0.00000000000E+00 0.  1.
         -2   -1    0    0    0  501 -0.00000000000E+00 -0.00000000000E+00 -0.99994704774E+02  0.99994704774E+02  0.00000000000E+00 0. -1.
         23    2    1    2    0    0  0.30066639083E+03 -0.96479369226E+02  0.45275749775E+03  0.56598999271E+03  0.12508706094E+03 0.  0.
         23    2    1    2    0    0 -0.30066639083E+03  0.96479369226E+02  0.57932901475E+03  0.66608592934E+03  0.91322563866E+02 0.  0.
          5    1    3    3  502    0  0.17022647394E+03 -0.71007507030E+02  0.15904858613E+03  0.24358375076E+03  0.41800000000E+01 0. -1.
         -5    1    3    3    0  502  0.13043991689E+03 -0.25471862196E+02  0.29370891162E+03  0.32240624195E+03  0.41800000000E+01 0. -1.
        -11    1    4    4    0    0 -0.11627107282E+03  0.71916750929E+02  0.18454065356E+03  0.22966548338E+03  0.00000000000E+00 0. -1.
         11    1    4    4    0    0 -0.18439531801E+03  0.24562618297E+02  0.39478836119E+03  0.43642044596E+03  0.00000000000E+00 0.  1.
</event>
<event>
 8    1  0.5951278E-006  0.2850733E+03  0.7561462E-02  0.1092950E+00
         -3   -1    0    0    0  501 -0.00000000000E+00  0.00000000000E+00  0.27700376656E+03  0.27700376656E+03  0.00000000000E+00 0.  1.
          3   -1    0    0  501    0  0.00000000000E+00 -0.00000000000E+00 -0.34685444341E+03  0.34685444341E+03  0.00000000000E+00 0. -1.
         23    2    1    2    0    0 -0.11831353572E+02 -0.27410970088E+03  0.59150061294E+02  0.30728290980E+03  0.12509175776E+03 0.  0.
         23    2    1    2    0    0  0.11831353572E+02  0.27410970088E+03 -0.12900073815E+03  0.31657530017E+03  0.91118720328E+02 0.  0.
          5    1    3    3  502    0 -0.25069593389E+02 -0.46285908885E+02 -0.31735080171E+02  0.61607285182E+02  0.41800000000E+01 0. -1.
         -5    1    3    3    0  502  0.13238239816E+02 -0.22782379199E+03  0.90885141465E+02  0.24567562462E+03  0.41800000000E+01 0. -1.
        -11    1    4    4    0    0  0.48823955663E+02  0.10237093320E+03 -0.49756925556E+02  0.12385208215E+03  0.00000000000E+00 0. -1.
         11    1    4    4    0    0 -0.36992602091E+02  0.17173876768E+03 -0.79243812592E+02  0.19272321803E+03  0.00000000000E+00 0.  1.
</event>
<event>
 8    1  0.5951278E-006  0.9129436E+02  0.7561462E-02  0.1299747E+00
         -1   -1    0    0    0  501 -0.00000000000E+00  0.00000000000E+00  0.78986816787E+02  0.78986816787E+02  0.00000000000E+00 0.  1.
          1   -1    0    0  501    0  0.00000000000E+00 -0.00000000000E+00 -0.14281946193E+03  0.14281946193E+03  0.00000000000E+00 0. -1.
         23    2    1    2    0    0  0.19489351342E+01  0.72261143364E+01 -0.21501808556E+02  0.12059183894E+03  0.11842317666E+03 0.  0.
         23    2    1    2    0    0 -0.19489351342E+01 -0.72261143364E+01 -0.42330836586E+02  0.10121443978E+03  0.91632134191E+02 0.  0.
          5    1    3    3  502    0 -0.45181559082E+02 -0.52566193123E+01  0.25860758100E+02  0.52490537597E+02  0.41800000000E+01 0. -1.
         -5    1    3    3    0  502  0.47130494216E+02  0.12482733649E+02 -0.47362566656E+02  0.68101301343E+02  0.41800000000E+01 0.  1.
        -11    1    4    4    0    0  0.19202041966E+02 -0.42619015152E+02 -0.77121548476E+01  0.47376958541E+02  0.00000000000E+00 0.  1.
         11    1    4    4    0    0 -0.21150977100E+02  0.35392900815E+02 -0.34618681738E+02  0.53837481235E+02  0.00000000000E+00 0. -1.
</event>
<event>
 8    1  0.5951278E-006  0.1125387E+03  0.7561462E-02  0.1255940E+00
         -1   -1    0    0    0  501 -0.00000000000E+00  0.00000000000E+00  0.37520738306E+03  0.37520738306E+03  0.00000000000E+00 0.  1.
          1   -1    0    0  501    0  0.00000000000E+00 -0.00000000000E+00 -0.39349030377E+02  0.39349030377E+02  0.00000000000E+00 0. -1.
         23    2    1    2    0    0 -0.37283578976E+02 -0.38349758171E+02  0.19559958318E+03  0.23825561665E+03  0.12508306324E+03 0.  0.
         23    2    1    2    0    0  0.37283578976E+02  0.38349758171E+02  0.14025876951E+03  0.17630079680E+03  0.92459068314E+02 0.  0.
          5    1    3    3  502    0 -0.76378406119E+02 -0.41052503543E+02  0.17106455824E+03  0.19183202145E+03  0.41800000000E+01 0.  1.
         -5    1    3    3    0  502  0.39094827143E+02  0.27027453721E+01  0.24535024936E+02  0.46423595191E+02  0.41800000000E+01 0.  1.
        -11    1    4    4    0    0  0.55664282263E+02  0.51831593414E+02  0.73549057797E+02  0.10580401835E+03  0.00000000000E+00 0. -1.
         11    1    4    4    0    0 -0.18380703287E+02 -0.13481835243E+02  0.66709711713E+02  0.70496778448E+02  0.00000000000E+00 0.  1.
</event>
<event>
 8    1  0.5951278E-006  0.2304167E+03  0.7561462E-02  0.1126347E+00
          2   -1    0    0  501    0  0.00000000000E+00  0.00000000000E+00  0.99026013769E+02  0.99026013769E+02  0.00000000000E+00 0. -1.
         -2   -1    0    0    0  501 -0.00000000000E+00 -0.00000000000E+00 -0.58091261274E+03  0.58091261274E+03  0.00000000000E+00 0.  1.
         23    2    1    2    0    0 -0.20234394486E+03  0.33816305882E+02 -0.33271819729E+03  0.41041068804E+03  0.12509564135E+03 0.  0.
         23    2    1    2    0    0  0.20234394486E+03 -0.33816305882E+02 -0.14916840168E+03  0.26952793847E+03  0.91145394778E+02 0.  0.
          5    1    3    3  502    0 -0.21498758699E+03  0.44598046506E+02 -0.28556460437E+03  0.36024056404E+03  0.41800000000E+01 0. -1.
         -5    1    3    3    0  502  0.12643642125E+02 -0.10781740624E+02 -0.47153592920E+02  0.50170124001E+02  0.41800000000E+01 0. -1.
        -11    1    4    4    0    0  0.19046416138E+03 -0.23695430202E+01 -0.12091902712E+03  0.22561831181E+03  0.00000000000E+00 0.  1.
         11    1    4    4    0    0  0.11879783478E+02 -0.31446762862E+02 -0.28249374556E+02  0.43909626653E+02  0.00000000000E+00 0. -1.
</event>
<event>
 8    1  0.5951278E-006  0.2313869E+03  0.7561462E-02  0.1125667E+00
          2   -1    0    0  501    0  0.00000000000E+00  0.00000000000E+00  0.95632500673E+03  0.95632500673E+03  0.00000000000E+00 0. -1.
         -2   -1    0    0    0  501 -0.00000000000E+00 -0.00000000000E+00 -0.68772935123E+02  0.68772935123E+02  0.00000000000E+00 0.  1.
         23    2    1    2    0    0  0.14474501429E+03  0.15485403551E+03  0.26688940314E+03  0.36281356672E+03  0.12438986780E+03 0.  0.
         23    2    1    2    0    0 -0.14474501429E+03 -0.15485403551E+03  0.62066266846E+03  0.66228437513E+03  0.92019313412E+02 0.  0.
          5    1    3    3  502    0  0.62906281519E+02  0.30366383299E+01  0.12265361229E+03  0.13794130069E+03  0.41800000000E+01 0. -1.
         -5    1    3    3    0  502  0.81838732773E+02  0.15181739718E+03  0.14423579085E+03  0.22487226604E+03  0.41800000000E+01 0.  1.
        -11    1    4    4    0    0 -0.58301185157E+02 -0.12097137702E+03  0.30508191652E+03  0.33332878369E+03  0.00000000000E+00 0. -1.
         11    1    4    4    0    0 -0.86443829135E+02 -0.33882658489E+02  0.31558075194E+03  0.32895559144E+03  0.00000000000E+00 0.  1.
</event>
<event>
 8    1  0.5951278E-006  0.1708509E+03  0.7561462E-02  0.1176963E+00
         -1   -1    0    0    0  501 -0.00000000000E+00  0.00000000000E+00  0.22652614359E+02  0.22652614359E+02  0.00000000000E+00 0.  1.
          1   -1    0    0  501    0  0.00000000000E+00 -0.00000000000E+00 -0.13831650344E+04  0.13831650344E+04  0.00000000000E+00 0. -1.
         23    2    1    2    0    0 -0.11427541138E+03 -0.71398073991E+02 -0.86703496811E+03  0.88631423938E+03  0.12508693131E+03 0.  0.
         23    2    1    2    0    0  0.11427541138E+03  0.71398073991E+02 -0.49347745192E+03  0.51950340937E+03  0.90593830800E+02 0.  0.
          5    1    3    3  502    0 -0.29416318220E+02 -0.88059835955E+02 -0.54380589735E+03  0.55169029435E+03  0.41800000000E+01 0. -1.
         -5    1    3    3    0  502 -0.84859093156E+02  0.16661761964E+02 -0.32322907076E+03  0.33462394503E+03  0.41800000000E+01 0. -1.
        -11    1    4    4    0    0  0.79849562428E+02 -0.33181445005E+01 -0.25557410764E+03  0.26777805586E+03  0.00000000000E+00 0.  1.
         11    1    4    4    0    0  0.34425848948E+02  0.74716218492E+02 -0.23790334428E+03  0.25172535351E+03  0.00000000000E+00 0. -1.
</event>
<event>
 8    1  0.5951278E-006  0.1094410E+03  0.7561462E-02  0.1261609E+00
         -2   -1    0    0    0  501 -0.00000000000E+00  0.00000000000E+00  0.28746301658E+02  0.28746301658E+02  0.00000000000E+00 0.  1.
          2   -1    0    0  501    0  0.00000000000E+00 -0.00000000000E+00 -0.55008268842E+03  0.55008268842E+03  0.00000000000E+00 0. -1.
         23    2    1    2    0    0  0.14762518946E+02 -0.69097301190E+01 -0.15087758387E+03  0.19659501433E+03  0.12497951035E+03 0.  0.
         23    2    1    2    0    0 -0.14762518946E+02  0.69097301190E+01 -0.37045880289E+03  0.38223397575E+03  0.92722226261E+02 0.  0.
          5    1    3    3  502    0  0.41711222977E+02 -0.55895030202E+02 -0.79706861373E+02  0.10599404075E+03  0.41800000000E+01 0. -1.
         -5    1    3    3    0  502 -0.26948704032E+02  0.48985300083E+02 -0.71170722501E+02  0.90600973585E+02  0.41800000000E+01 0. -1.
        -11    1    4    4    0    0  0.36597752836E+02  0.17407741010E+02 -0.13201198168E+03  0.13809267999E+03  0.00000000000E+00 0.  1.
         11    1    4    4    0    0 -0.51360271781E+02 -0.10498010891E+02 -0.23844682120E+03  0.24414129575E+03  0.00000000000E+00 0. -1.
</event>
<event>
 8    1  0.5951278E-006  0.1692830E+03  0.7561462E-02  0.1178598E+00
          2   -1    0    0  501    0  0.00000000000E+00  0.00000000000E+00  0.72796651782E+03  0.72796651782E+03  0.00000000000E+00 0. -1.
         -2   -1    0    0    0  501 -0.00000000000E+00 -0.00000000000E+00 -0.54096269671E+02  0.54096269671E+02  0.00000000000E+00 0.  1.
         23    2    1    2    0    0  0.98659198436E+02 -0.10631126350E+03  0.19418315723E+03  0.27275252819E+03  0.12510443995E+03 0.  0.
         23    2    1    2    0    0 -0.98659198436E+02  0.10631126350E+03  0.47968709092E+03  0.50931025931E+03  0.90892864729E+02 0.  0.
          5    1    3    3  502    0 -0.22817587291E+02  0.40875713919E+01  0.45511897390E+02  0.51246031395E+02  0.41800000000E+01 0.  1.
         -5    1    3    3    0  502  0.12147678573E+03 -0.11039883490E+03  0.14867125984E+03  0.22150649679E+03  0.41800000000E+01 0.  1.
        -11    1    4    4    0    0 -0.61101451373E+02  0.35527132218E+02  0.10791682752E+03  0.12900234938E+03  0.00000000000E+00 0.  1.
         11    1    4    4    0    0 -0.37557747063E+02  0.70784131286E+02  0.37177026340E+03  0.38030790993E+03  0.00000000000E+00 0. -1.
</event>
<event>
 7    1  0.5951278E-006  0.3178286E+03  0.7561462E-02  0.1076653E+00
         -1   -1    0    0    0  501 -0.00000000000E+00  0.00000000000E+00  0.18368923518E+03  0.18368923518E+03  0.00000000000E+00 0.  1.
          1   -1    0    0  501    0  0.00000000000E+00 -0.00000000000E+00 -0.68503123386E+03  0.68503123386E+03  0.00000000000E+00 0. -1.
         23    2    1    2    0    0 -0.11088550541E+03 -0.90230556342E+02 -0.20323942542E+03  0.26435187980E+03  0.90213655847E+02 0.  0.
          5    1    1    2  502    0 -0.12001450207E+03  0.18212950637E+03 -0.28028643871E+03  0.35517966991E+03  0.41800000000E+01 0. -1.
         -5    1    1    2    0  502  0.23090000748E+03 -0.91898950024E+02 -0.17816134553E+02  0.24918891933E+03  0.41800000000E+01 0.  1.
        -11    1    3    3    0    0 -0.11556077353E+03 -0.10334271095E+03 -0.18882055249E+03  0.24430965869E+03  0.00000000000E+00 0.  1.
         11    1    3    3    0    0  0.46752681168E+01  0.13112154613E+02 -0.14418872928E+02  0.20042221112E+02  0.00000000000E+00 0. -1.
</event>
<event>
 8    1  0.5951278E-006  0.1116967E+03  0.7561462E-02  0.1257460E+00
         -2   -1    0    0    0  501 -0.00000000000E+00  0.00000000000E+00  0.69779213596E+02  0.69779213596E+02  0.00000000000E+00 0. -1.
          2   -1    0    0  501    0  0.00000000000E+00 -0.00000000000E+00 -0.27876546238E+03  0.27876546238E+03  0.00000000000E+00 0.  1.
         23    2    1    2    0    0  0.77857818856E+02  0.23786208015E+02 -0.66956339670E+02  0.16358829131E+03  0.12510137482E+03 0.  0.
         23    2    1    2    0    0 -0.77857818856E+02 -0.23786208015E+02 -0.14202990911E+03  0.18495638466E+03  0.86074069829E+02 0.  0.
          5    1    3    3  502    0 -0.11598405798E+01 -0.18878907534E+02 -0.71004721586E+02  0.73599601000E+02  0.41800000000E+01 0.  1.
         -5    1    3    3    0  502  0.79017659436E+02  0.42665115550E+02  0.40483819153E+01  0.89988690310E+02  0.41800000000E+01 0.  1.
        -11    1    4    4    0    0 -0.33418418074E+01  0.24893848591E+02 -0.13214602934E+02  0.28381284944E+02  0.00000000000E+00 0.  1.
         11    1    4    4    0    0 -0.74515977048E+02 -0.48680056607E+02 -0.12881530618E+03  0.15657509972E+03  0.00000000000E+00 0. -1.
</event>
<event>
 8    1  0.5951278E-006  0.1088836E+03  0.7561462E-02  0.1262651E+00
          2   -1    0    0  501    0  0.00000000000E+00  0.00000000000E+00  0.42818327644E+02  0.42818327644E+02  0.00000000000E+00 0. -1.
         -2   -1    0    0    0  501 -0.00000000000E+00 -0.00000000000E+00 -0.30600241781E+03  0.30600241781E+03  0.00000000000E+00 0.  1.
         23    2    1    2    0    0 -0.14954188270E+02 -0.37318886938E+02 -0.14990571279E+03  0.19933716343E+03  0.12508898803E+03 0.  0.
         23    2    1    2    0    0  0.14954188270E+02  0.37318886938E+02 -0.11327837737E+03  0.14948358203E+03  0.88865198170E+02 0.  0.
          5    1    3    3  502    0  0.53219236389E+02 -0.50373068727E+00 -0.53418144544E+02  0.75521595805E+02  0.41800000000E+01 0.  1.
         -5    1    3    3    0  502 -0.68173424659E+02 -0.36815156251E+02 -0.96487568249E+02  0.12381556762E+03  0.41800000000E+01 0.  1.
        -11    1    4    4    0    0  0.40489161282E+02 -0.12800436451E+01 -0.19611712495E+02  0.45006999012E+02  0.00000000000E+00 0. -1.
         11    1    4    4    0    0 -0.25534973012E+02  0.38598930584E+02 -0.93666664878E+02  0.10447658301E+03  0.00000000000E+00 0.  1.
</event>
<event>
 8    1  0.5951278E-006  0.1017657E+03  0.7561462E-02  0.1276626E+00
          1   -1    0    0  501    0  0.00000000000E+00  0.00000000000E+00  0.29423355604E+03  0.29423355604E+03  0.00000000000E+00 0. -1.
         -1   -1    0    0    0  501 -0.00000000000E+00 -0.00000000000E+00 -0.98543559874E+02  0.98543559874E+02  0.00000000000E+00 0.  1.
         23    2    1    2    0    0  0.12647748730E+02  0.60566913480E+02 -0.29614224960E+02  0.14266472282E+03  0.12509158350E+03 0.  0.
         23    2    1    2    0    0 -0.12647748730E+02 -0.60566913480E+02  0.22530422112E+03  0.25011239309E+03  0.89251893897E+02 0.  0.
          5    1    3    3  502    0 -0.47202747541E+02  0.36612580254E+02 -0.46586726885E+02  0.75870784431E+02  0.41800000000E+01 0.  1.
         -5    1    3    3    0  502  0.59850496271E+02  0.23954333226E+02  0.16972501925E+02  0.66793938391E+02  0.41800000000E+01 0.  1.
        -11    1    4    4    0    0 -0.26221855446E+02 -0.12405402134E+02  0.12643089151E+02  0.31643757811E+02  0.00000000000E+00 0.  1.
         11    1    4    4    0    0  0.13574106716E+02 -0.48161511346E+02  0.21266113197E+03  0.21846863528E+03  0.00000000000E+00 0. -1.
</event>
<event>
 8    1  0.5951278E-006  0.1324987E+03  0.7561462E-02  0.1223795E+00
         -2   -1    0    0    0  501 -0.00000000000E+00  0.00000000000E+00  0.21632168528E+02  0.21632168528E+02  0.00000000000E+00 0.  1.
          2   -1    0    0  501    0  0.00000000000E+00 -0.00000000000E+00 -0.92409449823E+03  0.92409449823E+03  0.00000000000E+00 0. -1.
         23    2    1    2    0    0  0.62542124362E+02  0.51461435569E+02 -0.35530608918E+03  0.38529149002E+03  0.12508924254E+03 0.  0.
         23    2    1    2    0    0 -0.62542124362E+02 -0.51461435569E+02 -0.54715624052E+03  0.56043517674E+03  0.90265381614E+02 0.  0.
          5    1    3    3  502    0  0.23665207835E+02  0.87527607219E+02 -0.17276027353E+03  0.19515303892E+03  0.41800000000E+01 0.  1.
         -5    1    3    3    0  502  0.38876916526E+02 -0.36066171650E+02 -0.18254581565E+03  0.19013845110E+03  0.41800000000E+01 0.  1.
        -11    1    4    4    0    0  0.18658413824E+02  0.80923744763E+01 -0.10581826810E+03  0.10775494789E+03  0.00000000000E+00 0. -1.
         11    1    4    4    0    0 -0.81200538185E+02 -0.59553810045E+02 -0.44133797242E+03  0.45268022885E+03  0.00000000000E+00 0.  1.
</event>
<event>
 8    1  0.5951278E-006  0.8025693E+02  0.7561462E-02  0.1328324E+00
         -2   -1    0    0    0  501 -0.00000000000E+00  0.00000000000E+00  0.23219551238E+03  0.23219551238E+03  0.00000000000E+00 0.  1.
          2   -1    0    0  501    0  0.00000000000E+00 -0.00000000000E+00 -0.75278529937E+02  0.75278529937E+02  0.00000000000E+00 0. -1.
         23    2    1    2    0    0 -0.36008084859E+02 -0.32856569149E+02  0.15267112552E+03  0.20329934418E+03  0.12508402962E+03 0.  0.
         23    2    1    2    0    0  0.36008084859E+02  0.32856569149E+02  0.42458569203E+01  0.10417469814E+03  0.91968495253E+02 0.  0.
          5    1    3    3  502    0 -0.20298888364E+02 -0.36079803727E+02 -0.74949654290E+01  0.42278174187E+02  0.41800000000E+01 0. -1.
         -5    1    3    3    0  502 -0.15709196495E+02  0.32232345777E+01  0.16016609095E+03  0.16102117000E+03  0.41800000000E+01 0. -1.
        -11    1    4    4    0    0  0.57749037313E+02  0.48610213622E+02  0.11519283292E+02  0.76358352959E+02  0.00000000000E+00 0.  1.
         11    1    4    4    0    0 -0.21740952455E+02 -0.15753644473E+02 -0.72734263715E+01  0.27816345177E+02  0.00000000000E+00 0. -1.
</event>
<event>
 8    1  0.5951278E-006  0.1121315E+03  0.7561462E-02  0.1256673E+00
          1   -1    0    0  501    0  0.00000000000E+00  0.00000000000E+00  0.27851680897E+03  0.27851680897E+03  0.00000000000E+00 0. -1.
         -1   -1    0    0    0  501 -0.00000000000E+00 -0.00000000000E+00 -0.55117224479E+02  0.55117224479E+02  0.00000000000E+00 0.  1.
         23    2    1    2    0    0  0.97398568302E+01  0.26223169014E+02  0.56056469060E+02  0.13990328015E+03  0.12509228861E+03 0.  0.
         23    2    1    2    0    0 -0.97398568302E+01 -0.26223169014E+02  0.16734311543E+03  0.19373075329E+03  0.93516667423E+02 0.  0.
          5    1    3    3  502    0  0.54673895726E+02  0.52146169585E+02  0.39047529708E+02  0.85150689090E+02  0.41800000000E+01 0.  1.
         -5    1    3    3    0  502 -0.44934038896E+02 -0.25923000571E+02  0.17008939352E+02  0.54752591062E+02  0.41800000000E+01 0.  1.
        -11    1    4    4    0    0  0.25425913388E+02 -0.48613056265E+02  0.80723555966E+02  0.97601223347E+02  0.00000000000E+00 0.  1.
         11    1    4    4    0    0 -0.35165770218E+02  0.22389887252E+02  0.86619559462E+02  0.96129529945E+02  0.00000000000E+00 0. -1.
</event>
<event>
 8    1  0.5951278E-006  0.1263674E+03  0.7561462E-02  0.1232948E+00
          2   -1    0    0  501    0  0.00000000000E+00  0.00000000000E+00  0.87928923320E+02  0.87928923320E+02  0.00000000000E+00 0.  1.
         -2   -1    0    0    0  501 -0.00000000000E+00 -0.00000000000E+00 -0.19367920813E+03  0.19367920813E+03  0.00000000000E+00 0. -1.
         23    2    1    2    0    0  0.17046833772E+01  0.68331439797E+02 -0.84582218466E+02  0.16575195756E+03  0.12508984029E+03 0.  0.
         23    2    1    2    0    0 -0.17046833772E+01 -0.68331439797E+02 -0.21168066347E+02  0.11585617390E+03  0.91117914742E+02 0.  0.
          5    1    3    3  502    0 -0.45756317990E+02  0.80931492722E+02 -0.59432875735E+02  0.11042321435E+03  0.41800000000E+01 0.  1.
         -5    1    3    3    0  502  0.47461001367E+02 -0.12600052925E+02 -0.25149342731E+02  0.55328743202E+02  0.41800000000E+01 0.  1.
        -11    1    4    4    0    0 -0.18827775172E+02 -0.84659202854E+02 -0.43664626429E+01  0.86837386774E+02  0.00000000000E+00 0.  1.
         11    1    4    4    0    0  0.17123091795E+02  0.16327763056E+02 -0.16801603704E+02  0.29018787123E+02  0.00000000000E+00 0. -1.
</event>
<event>
 8    1  0.5951278E-006  0.9822227E+02  0.7561462E-02  0.1284079E+00
         -2   -1    0    0    0  501 -0.00000000000E+00  0.00000000000E+00  0.30465102418E+02  0.30465102418E+02  0.00000000000E+00 0.  1.
          2   -1    0    0  501    0  0.00000000000E+00 -0.00000000000E+00 -0.39707909893E+03  0.39707909893E+03  0.00000000000E+00 0. -1.
         23    2    1    2    0    0 -0.15774631287E+02 -0.21198178040E+02 -0.22636109221E+03  0.25996908932E+03  0.12508549711E+03 0.  0.
         23    2    1    2    0    0  0.15774631287E+02  0.21198178040E+02 -0.14025290430E+03  0.16757511203E+03  0.87819925211E+02 0.  0.
          5    1    3    3  502    0 -0.55158177039E+02 -0.35081972883E+02 -0.61497143589E+02  0.89847317073E+02  0.41800000000E+01 0. -1.
         -5    1    3    3    0  502  0.39383545752E+02  0.13883794843E+02 -0.16486394863E+03  0.17012177224E+03  0.41800000000E+01 0. -1.
        -11    1    4    4    0    0  0.40618174640E+02 -0.16486795766E+02 -0.48853031224E+02  0.65637407059E+02  0.00000000000E+00 0.  1.
         11    1    4    4    0    0 -0.24843543353E+02  0.37684973806E+02 -0.91399873076E+02  0.10193770497E+03  0.00000000000E+00 0. -1.
</event>
<event>
 7    1  0.5951278E-006  0.1885286E+03  0.7561462E-02  0.1159795E+00
         -1   -1    0    0    0  501 -0.00000000000E+00  0.00000000000E+00  0.66587163499E+02  0.66587163499E+02  0.00000000000E+00 0.  1.
          1   -1    0    0  501    0  0.00000000000E+00 -0.00000000000E+00 -0.57010900360E+03  0.57010900360E+03  0.00000000000E+00 0. -1.
         23    2    1    2    0    0  0.15515846270E+02  0.15188575672E+03 -0.24794590753E+03  0.30498352511E+03  0.90706961963E+02 0.  0.
          5    1    1    2  502    0 -0.72068382533E+02 -0.10818528307E+03 -0.20945853575E+03  0.24655274858E+03  0.41800000000E+01 0. -1.
         -5    1    1    2    0  502  0.56552536263E+02 -0.43700473650E+02 -0.46117396819E+02  0.85159893403E+02  0.41800000000E+01 0.  1.
        -11    1    3    3    0    0 -0.95684927098E+01  0.14994160571E+03 -0.19330314716E+03  0.24482677116E+03  0.00000000000E+00 0.  1.
         11    1    3    3    0    0  0.25084338979E+02  0.19441510150E+01 -0.54642760369E+02  0.60156753952E+02  0.00000000000E+00 0. -1.
</event>
<event>
 8    1  0.5951278E-006  0.1176598E+03  0.7561462E-02  0.1247008E+00
          2   -1    0    0  501    0  0.00000000000E+00  0.00000000000E+00  0.10729949151E+03  0.10729949151E+03  0.00000000000E+00 0. -1.
         -2   -1    0    0    0  501 -0.00000000000E+00 -0.00000000000E+00 -0.18820001984E+03  0.18820001984E+03  0.00000000000E+00 0.  1.
         23    2    1    2    0    0 -0.60766060371E+02 -0.59491150521E+02 -0.80294954624E+02  0.17124970432E+03  0.12508984934E+03 0.  0.
         23    2    1    2    0    0  0.60766060371E+02  0.59491150521E+02 -0.60557370998E+00  0.12424980703E+03  0.90586625631E+02 0.  0.
          5    1    3    3  502    0 -0.27131008807E+02  0.13627432545E+02 -0.85163820175E+02  0.90510481291E+02  0.41800000000E+01 0.  1.
         -5    1    3    3    0  502 -0.33635051564E+02 -0.73118583067E+02  0.48688655508E+01  0.80739223028E+02  0.41800000000E+01 0.  1.
        -11    1    4    4    0    0  0.83562053939E+02  0.56992527922E+02  0.20204582405E+01  0.10116742237E+03  0.00000000000E+00 0. -1.
         11    1    4    4    0    0 -0.22795993568E+02  0.24986225998E+01 -0.26260319504E+01  0.23082384657E+02  0.00000000000E+00 0.  1.
</event>
<event>
 8    1  0.5951278E-006  0.1302090E+03  0.7561462E-02  0.1227146E+00
         -2   -1    0    0    0  501 -0.00000000000E+00  0.00000000000E+00  0.85647161701E+02  0.85647161701E+02  0.00000000000E+00 0.  1.
          2   -1    0    0  501    0  0.00000000000E+00 -0.00000000000E+00 -0.28991883263E+03  0.28991883263E+03  0.00000000000E+00 0. -1.
         23    2    1    2    0    0  0.52707058641E+02 -0.94820871980E+02 -0.80622451706E+02  0.18416255437E+03  0.12508730918E+03 0.  0.
         23    2    1    2    0    0 -0.52707058641E+02  0.94820871980E+02 -0.12364921922E+03  0.19140343997E+03  0.97862738682E+02 0.  0.
          5    1    3    3  502    0 -0.52254343924E+01 -0.65487741376E+01 -0.77899368476E+02  0.78460025595E+02  0.41800000000E+01 0.  1.
         -5    1    3    3    0  502  0.57932493033E+02 -0.88272097843E+02 -0.27230832300E+01  0.10570252877E+03  0.41800000000E+01 0.  1.
        -11    1    4    4    0    0 -0.63359086449E+02  0.15331502463E+02 -0.46092531861E+02  0.79837023346E+02  0.00000000000E+00 0.  1.
         11    1    4    4    0    0  0.10652027808E+02  0.79489369517E+02 -0.77556687363E+02  0.11156641662E+03  0.00000000000E+00 0. -1.
</event>
<event>
 8    1  0.7425429E-006  0.2191184E+03  0.7561462E-02  0.1134542E+00
         -2   -1    0    0    0  501 -0.00000000000E+00  0.00000000000E+00  0.37726495347E+02  0.37726495347E+02  0.00000000000E+00 0.  1.
          2   -1    0    0  501    0  0.00000000000E+00 -0.00000000000E+00 -0.13150040847E+04  0.13150040847E+04  0.00000000000E+00 0. -1.
         23    2    1    2    0    0 -0.19361009171E+03 -0.14280582694E+02 -0.62998728115E+03  0.67098442558E+03  0.12508925738E+03 0.  0.
         23    2    1    2    0    0  0.19361009171E+03  0.14280582694E+02 -0.64729030823E+03  0.68174615449E+03  0.90023737879E+02 0.  0.
          5    1    3    3  502    0 -0.12720761611E+03 -0.67544567170E+02 -0.35623831721E+03  0.38427497602E+03  0.41800000000E+01 0. -1.
         -5    1    3    3    0  502 -0.66402475597E+02  0.53263984476E+02 -0.27374896394E+03  0.28670944956E+03  0.41800000000E+01 0. -1.
        -11    1    4    4    0    0  0.64316164502E+02 -0.31686827770E+02 -0.15665803394E+03  0.17228570361E+03  0.00000000000E+00 0. -1.
         11    1    4    4    0    0  0.12929392720E+03  0.45967410464E+02 -0.49063227430E+03  0.50946045089E+03  0.00000000000E+00 0.  1.
</event>
<event>
 8    1  0.5951278E-006  0.1126119E+03  0.7561462E-02  0.1255808E+00
          1   -1    0    0  501    0  0.00000000000E+00  0.00000000000E+00  0.79324072960E+03  0.79324072960E+03  0.00000000000E+00 0. -1.
         -1   -1    0    0    0  501 -0.00000000000E+00 -0.00000000000E+00 -0.21835047091E+02  0.21835047091E+02  0.00000000000E+00 0.  1.
         23    2    1    2    0    0  0.42334820131E+02  0.49576586372E+02  0.31639125885E+03  0.34641252785E+03  0.12509250923E+03 0.  0.
         23    2    1    2    0    0 -0.42334820131E+02 -0.49576586372E+02  0.45501442366E+03  0.46866324884E+03  0.91416848350E+02 0.  0.
          5    1    3    3  502    0  0.58985802115E+02  0.74128783221E+02  0.29427162859E+03  0.30917254915E+03  0.41800000000E+01 0.  1.
         -5    1    3    3    0  502 -0.16650981984E+02 -0.24552196849E+02  0.22119630258E+02  0.37239978704E+02  0.41800000000E+01 0.  1.
        -11    1    4    4    0    0 -0.83506720196E+01 -0.63256445794E+02  0.37838899909E+03  0.38373082530E+03  0.00000000000E+00 0. -1.
         11    1    4    4    0    0 -0.33984148112E+02  0.13679859423E+02  0.76625424569E+02  0.84932423533E+02  0.00000000000E+00 0.  1.
</event>
<event>
 8    1  0.5951278E-006  0.8961516E+02  0.7561462E-02  0.1303786E+00
         -1   -1    0    0    0  501 -0.00000000000E+00  0.00000000000E+00  0.41579188950E+03  0.41579188950E+03  0.00000000000E+00 0.  1.
          1   -1    0    0  501    0  0.00000000000E+00 -0.00000000000E+00 -0.40898453895E+02  0.40898453895E+02  0.00000000000E+00 0. -1.
         23    2    1    2    0    0 -0.75152206162E+02 -0.42076961629E+01  0.25392858092E+03  0.29290409255E+03  0.12509006527E+03 0.  0.
         23    2    1    2    0    0  0.75152206162E+02  0.42076961629E+01  0.12096485469E+03  0.16378625085E+03  0.80795303685E+02 0.  0.
          5    1    3    3  502    0 -0.20718802300E+02  0.16580744749E+02  0.22699044356E+03  0.22857454743E+03  0.41800000000E+01 0. -1.
         -5    1    3    3    0  502 -0.54433403861E+02 -0.20788440912E+02  0.26938137356E+02  0.64329545123E+02  0.41800000000E+01 0. -1.
        -11    1    4    4    0    0  0.43127466315E+02  0.30244407541E+02  0.22992149898E+02  0.57474703089E+02  0.00000000000E+00 0. -1.
         11    1    4    4    0    0  0.32024739847E+02 -0.26036711378E+02  0.97972704795E+02  0.10631154776E+03  0.00000000000E+00 0.  1.
</event>
<event>
 8    1  0.5951278E-006  0.1066010E+03  0.7561462E-02  0.1266997E+00
         -2   -1    0    0    0  501 -0.00000000000E+00  0.00000000000E+00  0.51841469852E+02  0.51841469852E+02  0.00000000000E+00 0.  1.
          2   -1    0    0  501    0  0.00000000000E+00 -0.00000000000E+00 -0.43657151711E+03  0.43657151711E+03  0.00000000000E+00 0. -1.
         23    2    1    2    0    0  0.50105296212E+02  0.50423272459E+02 -0.84302269853E+02  0.16675507763E+03  0.12508931249E+03 0.  0.
         23    2    1    2    0    0 -0.50105296212E+02 -0.50423272459E+02 -0.30042777741E+03  0.32165790933E+03  0.90299025929E+02 0.  0.
          5    1    3    3  502    0  0.20358217924E+02 -0.23344067888E+02  0.18797751419E+02  0.36472323768E+02  0.41800000000E+01 0.  1.
         -5    1    3    3    0  502  0.29747078288E+02  0.73767340346E+02 -0.10310002127E+03  0.13028275387E+03  0.41800000000E+01 0.  1.
        -11    1    4    4    0    0 -0.35501289490E+02  0.12549392347E+02 -0.47577308949E+02  0.60674781669E+02  0.00000000000E+00 0.  1.
         11    1    4    4    0    0 -0.14604006722E+02 -0.62972664805E+02 -0.25285046846E+03  0.26098312766E+03  0.00000000000E+00 0. -1.
</event>
<event>
 8    1  0.5951278E-006  0.1239377E+03  0.7561462E-02  0.1236739E+00
         -1   -1    0    0    0  501 -0.00000000000E+00  0.00000000000E+00  0.66646648672E+03  0.66646648672E+03  0.00000000000E+00 0.  1.
          1   -1    0    0  501    0  0.00000000000E+00 -0.00000000000E+00 -0.31744190028E+02  0.31744190028E+02  0.00000000000E+00 0. -1.
         23    2    1    2    0    0 -0.85422523771E+02 -0.39923383612E+02  0.29776077068E+03  0.33645204069E+03  0.12509042730E+03 0.  0.
         23    2    1    2    0    0  0.85422523771E+02  0.39923383612E+02  0.33696152601E+03  0.36175863606E+03  0.91844197556E+02 0.  0.
          5    1    3    3  502    0 -0.34880380420E+02 -0.80779582343E+02  0.20488571029E+03  0.22301930083E+03  0.41800000000E+01 0. -1.
         -5    1    3    3    0  502 -0.50542143351E+02  0.40856198731E+02  0.92875060384E+02  0.11343273985E+03  0.41800000000E+01 0. -1.
        -11    1    4    4    0    0  0.51267393508E+02  0.19394303408E+02  0.30712189432E+03  0.31197490702E+03  0.00000000000E+00 0.  1.
         11    1    4    4    0    0  0.34155130263E+02  0.20529080204E+02  0.29839631695E+02  0.49783729038E+02  0.00000000000E+00 0. -1.
</event>
<event>
 8    1  0.5951278E-006  0.1049028E+03  0.7561462E-02  0.1270311E+00
         -3   -1    0    0    0  501 -0.00000000000E+00  0.00000000000E+00  0.27199314358E+02  0.27199314358E+02  0.00000000000E+00 0.  1.
          3   -1    0    0  501    0  0.00000000000E+00 -0.00000000000E+00 -0.74275445012E+03  0.74275445012E+03  0.00000000000E+00 0. -1.
         23    2    1    2    0    0 -0.17004743402E+02  0.88003755864E+02 -0.42776065377E+03  0.45460872822E+03  0.12512432423E+03 0.  0.
         23    2    1    2    0    0  0.17004743402E+02 -0.88003755864E+02 -0.28779448200E+03  0.31534503626E+03  0.92644512432E+02 0.  0.
          5    1    3    3  502    0  0.71967172561E+01  0.27186123812E+02 -0.35698109443E+03  0.35811150812E+03  0.41800000000E+01 0.  1.
         -5    1    3    3    0  502 -0.24201460658E+02  0.60817632052E+02 -0.70779559337E+02  0.96497220096E+02  0.41800000000E+01 0.  1.
        -11    1    4    4    0    0  0.44392397701E+02 -0.70399144039E+02 -0.25843086250E+03  0.27150181426E+03  0.00000000000E+00 0.  1.
         11    1    4    4    0    0 -0.27387654299E+02 -0.17604611824E+02 -0.29363619495E+02  0.43843222000E+02  0.00000000000E+00 0. -1.
</event>
<event>
 8    1  0.5951278E-006  0.1001530E+03  0.7561462E-02  0.1279974E+00
         -2   -1    0    0    0  501 -0.00000000000E+00  0.00000000000E+00  0.81714890843E+03  0.81714890843E+03  0.00000000000E+00 0.  1.
          2   -1    0    0  501    0  0.00000000000E+00 -0.00000000000E+00 -0.30393279256E+02  0.30393279256E+02  0.00000000000E+00 0. -1.
         23    2    1    2    0    0  0.59685461581E+02 -0.36522550524E+02  0.72287072357E+03  0.73694387145E+03  0.12509170899E+03 0.  0.
         23    2    1    2    0    0 -0.59685461581E+02  0.36522550524E+02  0.63884905608E+02  0.11059831623E+03  0.57047834039E+02 0.  0.
          5    1    3    3  502    0  0.78843783793E+02 -0.45396439700E+02  0.29985738649E+03  0.31338331738E+03  0.41800000000E+01 0. -1.
         -5    1    3    3    0  502 -0.19158322212E+02  0.88738891763E+01  0.42301333708E+03  0.42356055407E+03  0.41800000000E+01 0. -1.
        -11    1    4    4    0    0 -0.69191532302E+02  0.27059950123E+02  0.43188856618E+02  0.85935943463E+02  0.00000000000E+00 0.  1.
         11    1    4    4    0    0  0.95060707215E+01  0.94626004014E+01  0.20696048990E+02  0.24662372772E+02  0.00000000000E+00 0. -1.
</event>
<event>
 8    1  0.5951278E-006  0.1425032E+03  0.7561462E-02  0.1210000E+00
         -2   -1    0    0    0  501 -0.00000000000E+00  0.00000000000E+00  0.15284096616E+03  0.15284096616E+03  0.00000000000E+00 0.  1.
          2   -1    0    0  501    0  0.00000000000E+00 -0.00000000000E+00 -0.16297342582E+03  0.16297342582E+03  0.00000000000E+00 0. -1.
         23    2    1    2    0    0 -0.86553061860E+02  0.58421761284E+02  0.42069017862E+02  0.16829141722E+03  0.12509062370E+03 0.  0.
         23    2    1    2    0    0  0.86553061860E+02 -0.58421761284E+02 -0.52201477515E+02  0.14752297476E+03  0.90185914193E+02 0.  0.
          5    1    3    3  502    0  0.79029332820E+01  0.57421022116E+02 -0.12044562654E+02  0.59347906659E+02  0.41800000000E+01 0. -1.
         -5    1    3    3    0  502 -0.94455995142E+02  0.10007391675E+01  0.54113580516E+02  0.10894351056E+03  0.41800000000E+01 0. -1.
        -11    1    4    4    0    0  0.31348985024E+02  0.19444825348E+02 -0.34373805235E+02  0.50422401582E+02  0.00000000000E+00 0. -1.
         11    1    4    4    0    0  0.55204076835E+02 -0.77866586632E+02 -0.17827672280E+02  0.97100573180E+02  0.00000000000E+00 0.  1.
</event>
<event>
 8    1  0.5951278E-006  0.1502658E+03  0.7561462E-02  0.1200147E+00
         -2   -1    0    0    0  501 -0.00000000000E+00  0.00000000000E+00  0.47487193856E+02  0.47487193856E+02  0.00000000000E+00 0.  1.
          2   -1    0    0  501    0  0.00000000000E+00 -0.00000000000E+00 -0.62203943801E+03  0.62203943801E+03  0.00000000000E+00 0. -1.
         23    2    1    2    0    0 -0.35120698081E+02 -0.12138947721E+03 -0.22720230147E+03  0.28850942157E+03  0.12509169410E+03 0.  0.
         23    2    1    2    0    0  0.35120698081E+02  0.12138947721E+03 -0.34734994268E+03  0.38101721030E+03  0.92483853993E+02 0.  0.
          5    1    3    3  502    0 -0.95102240969E+01  0.19604685446E+02 -0.80047329769E+02  0.83065248191E+02  0.41800000000E+01 0. -1.
         -5    1    3    3    0  502 -0.25610473984E+02 -0.14099416265E+03 -0.14715497170E+03  0.20544417338E+03  0.41800000000E+01 0. -1.
        -11    1    4    4    0    0  0.20001922664E+02  0.96200675485E+01 -0.82943404705E+01  0.23694275547E+02  0.00000000000E+00 0.  1.
         11    1    4    4    0    0  0.15118775417E+02  0.11176940966E+03 -0.33905560221E+03  0.35732293475E+03  0.00000000000E+00 0. -1.
</event>
<event>
 8    1  0.5951278E-006  0.1180629E+03  0.7561462E-02  0.1246327E+00
         -1   -1    0    0    0  501 -0.00000000000E+00  0.00000000000E+00  0.39513622947E+02  0.39513622947E+02  0.00000000000E+00 0. -1.
          1   -1    0    0  501    0  0.00000000000E+00 -0.00000000000E+00 -0.50666205575E+03  0.50666205575E+03  0.00000000000E+00 0.  1.
         23    2    1    2    0    0 -0.51471603011E+02 -0.76676814831E+02 -0.24107847201E+03  0.28687092615E+03  0.12508972282E+03 0.  0.
         23    2    1    2    0    0  0.51471603011E+02  0.76676814831E+02 -0.22606996079E+03  0.25930475254E+03  0.87193277668E+02 0.  0.
          5    1    3    3  502    0  0.18125819330E+02 -0.59153959028E+02 -0.18670507855E+03  0.19673330921E+03  0.41800000000E+01 0. -1.
         -5    1    3    3    0  502 -0.69597422341E+02 -0.17522855803E+02 -0.54373393459E+02  0.90137616943E+02  0.41800000000E+01 0. -1.
        -11    1    4    4    0    0  0.49276524059E+02  0.34883576649E+02 -0.50182539724E+02  0.78506859805E+02  0.00000000000E+00 0.  1.
         11    1    4    4    0    0  0.21950789514E+01  0.41793238181E+02 -0.17588742106E+03  0.18079789274E+03  0.00000000000E+00 0. -1.
</event>
<event>
 8    1  0.5951278E-006  0.1127597E+03  0.7561462E-02  0.1255543E+00
         -2   -1    0    0    0  501 -0.00000000000E+00  0.00000000000E+00  0.78073734361E+02  0.78073734361E+02  0.00000000000E+00 0.  1.
          2   -1    0    0  501    0  0.00000000000E+00 -0.00000000000E+00 -0.17148183326E+03  0.17148183326E+03  0.00000000000E+00 0. -1.
         23    2    1    2    0    0  0.34893105579E+02 -0.18752248728E+02 -0.44423208459E+02  0.13852478853E+03  0.12508605013E+03 0.  0.
         23    2    1    2    0    0 -0.34893105579E+02  0.18752248728E+02 -0.48984890437E+02  0.11103077909E+03  0.91428325835E+02 0.  0.
          5    1    3    3  502    0 -0.43537597429E+02  0.10937635186E+02 -0.37904503547E+01  0.45243719644E+02  0.41800000000E+01 0. -1.
         -5    1    3    3    0  502  0.78430703007E+02 -0.29689883914E+02 -0.40632758105E+02  0.93281068885E+02  0.41800000000E+01 0. -1.
        -11    1    4    4    0    0  0.23577169879E+02  0.28716361970E+02 -0.56701662342E+01  0.37585411657E+02  0.00000000000E+00 0.  1.
         11    1    4    4    0    0 -0.58470275457E+02 -0.99641132418E+01 -0.43314724202E+02  0.73445367434E+02  0.00000000000E+00 0. -1.
</event>
<event>
 8    1  0.5951278E-006  0.1787672E+03  0.7561462E-02  0.1169001E+00
          2   -1    0    0  501    0  0.00000000000E+00  0.00000000000E+00  0.15266169320E+04  0.15266169320E+04  0.00000000000E+00 0.  1.
         -2   -1    0    0    0  501 -0.00000000000E+00 -0.00000000000E+00 -0.24386112969E+02  0.24386112969E+02  0.00000000000E+00 0. -1.
         23    2    1    2    0    0  0.14144829503E+03 -0.66024795964E+02  0.65785872116E+03  0.68759942679E+03  0.12509188965E+03 0.  0.
         23    2    1    2    0    0 -0.14144829503E+03  0.66024795964E+02  0.84437209783E+03  0.86340361815E+03  0.90192429757E+02 0.  0.
          5    1    3    3  502    0  0.36963297974E+01  0.15951541771E+02  0.88536792585E+01  0.19078117708E+02  0.41800000000E+01 0. -1.
         -5    1    3    3    0  502  0.13775196523E+03 -0.81976337735E+02  0.64900504191E+03  0.66852130908E+03  0.41800000000E+01 0. -1.
        -11    1    4    4    0    0  0.12506695063E+02 -0.61775234173E+00  0.58397310639E+02  0.59724743023E+02  0.00000000000E+00 0.  1.
         11    1    4    4    0    0 -0.15395499009E+03  0.66642548306E+02  0.78597478719E+03  0.80367887513E+03  0.00000000000E+00 0. -1.
</event>
<event>
 8    1  0.5951278E-006  0.1035965E+03  0.7561462E-02  0.1272910E+00
         -2   -1    0    0    0  501 -0.00000000000E+00  0.00000000000E+00  0.18525843658E+02  0.18525843658E+02  0.00000000000E+00 0.  1.
          2   -1    0    0  501    0  0.00000000000E+00 -0.00000000000E+00 -0.70729036473E+03  0.70729036473E+03  0.00000000000E+00 0. -1.
         23    2    1    2    0    0 -0.12535449539E+02  0.33255225888E+02 -0.41284444588E+03  0.43284070038E+03  0.12508991915E+03 0.  0.
         23    2    1    2    0    0  0.12535449539E+02 -0.33255225888E+02 -0.27592007520E+03  0.29297550801E+03  0.91867909798E+02 0.  0.
          5    1    3    3  502    0  0.13714559599E+02 -0.38255533813E+02 -0.24615410892E+03  0.24952132725E+03  0.41800000000E+01 0.  1.
         -5    1    3    3    0  502 -0.26250009138E+02  0.71510759701E+02 -0.16669033695E+03  0.18331937313E+03  0.41800000000E+01 0.  1.
        -11    1    4    4    0    0  0.47302600785E+02 -0.10373598904E+02 -0.87438756355E+02  0.99953407687E+02  0.00000000000E+00 0.  1.
         11    1    4    4    0    0 -0.34767151246E+02 -0.22881626985E+02 -0.18848131884E+03  0.19302210032E+03  0.00000000000E+00 0. -1.
</event>
<event>
 7    1  0.5951278E-006  0.1354086E+03  0.7561462E-02  0.1219644E+00
          2   -1    0    0  501    0  0.00000000000E+00  0.00000000000E+00  0.73232487833E+03  0.73232487833E+03  0.00000000000E+00 0. -1.
         -2   -1    0    0    0  501 -0.00000000000E+00 -0.00000000000E+00 -0.54098742574E+02  0.54098742574E+02  0.00000000000E+00 0.  1.
         23    2    1    2    0    0 -0.97551011180E+01  0.12394078120E+02  0.28605627746E+03  0.30086363625E+03  0.91880131543E+02 0.  0.
          5    1    1    2  502    0  0.69601755430E+02  0.56057255580E+02  0.38387476610E+03  0.39416256635E+03  0.41800000000E+01 0. -1.
         -5    1    1    2    0  502 -0.59846654312E+02 -0.68451333700E+02  0.82950921905E+01  0.91397418301E+02  0.41800000000E+01 0.  1.
        -11    1    3    3    0    0  0.35402868613E+02 -0.13947351500E+02  0.85122400345E+02  0.93240092022E+02  0.00000000000E+00 0.  1.
         11    1    3    3    0    0 -0.45157969731E+02  0.26341429620E+02  0.20093387711E+03  0.20762354423E+03  0.00000000000E+00 0. -1.
</event>
<event>
 8    1  0.5951278E-006  0.1695845E+03  0.7561462E-02  0.1178282E+00
         -2   -1    0    0    0  501 -0.00000000000E+00  0.00000000000E+00  0.10131454326E+03  0.10131454326E+03  0.00000000000E+00 0.  1.
          2   -1    0    0  501    0  0.00000000000E+00 -0.00000000000E+00 -0.35948424420E+03  0.35948424420E+03  0.00000000000E+00 0. -1.
         23    2    1    2    0    0  0.14373015631E+03  0.56176784267E+02 -0.10261497067E+03  0.22359401495E+03  0.12510100876E+03 0.  0.
         23    2    1    2    0    0 -0.14373015631E+03 -0.56176784267E+02 -0.15555473028E+03  0.23720477251E+03  0.90855055263E+02 0.  0.
          5    1    3    3  502    0  0.14467382700E+03  0.40287616116E+02 -0.35342480082E+02  0.15433784866E+03  0.41800000000E+01 0.  1.
         -5    1    3    3    0  502 -0.94367069427E+00  0.15889168152E+02 -0.67272490584E+02  0.69256166284E+02  0.41800000000E+01 0.  1.
        -11    1    4    4    0    0 -0.13046948760E+03 -0.74204929398E+02 -0.15356850464E+03  0.21473691895E+03  0.00000000000E+00 0. -1.
         11    1    4    4    0    0 -0.13260668708E+02  0.18028145131E+02 -0.19862256376E+01  0.22467853563E+02  0.00000000000E+00 0.  1.
</event>
<event>
 8    1  0.5951278E-006  0.9101965E+02  0.7561462E-02  0.1300401E+00
          2   -1    0    0  501    0  0.00000000000E+00  0.00000000000E+00  0.31802672396E+03  0.31802672396E+03  0.00000000000E+00 0. -1.
         -2   -1    0    0    0  501 -0.00000000000E+00 -0.00000000000E+00 -0.50949365576E+02  0.50949365576E+02  0.00000000000E+00 0.  1.
         23    2    1    2    0    0  0.34030374390E+02  0.34038051930E+02  0.91221138434E+02  0.16212506862E+03  0.12508631587E+03 0.  0.
         23    2    1    2    0    0 -0.34030374390E+02 -0.34038051930E+02  0.17585621995E+03  0.20685102092E+03  0.97699945742E+02 0.  0.
          5    1    3    3  502    0  0.22308381175E+01 -0.14503595455E+02 -0.26632052122E+02  0.30693151028E+02  0.41800000000E+01 0. -1.
         -5    1    3    3    0  502  0.31799536272E+02  0.48541647385E+02  0.11785319056E+03  0.13143191759E+03  0.41800000000E+01 0. -1.
        -11    1    4    4    0    0  0.17090052638E+02 -0.51750067826E+02  0.80429373798E+02  0.97154637505E+02  0.00000000000E+00 0. -1.
         11    1    4    4    0    0 -0.51120427028E+02  0.17712015897E+02  0.95426846155E+02  0.10969638341E+03  0.00000000000E+00 0.  1.
</event>
<event>
 8    1  0.5951278E-006  0.1886646E+03  0.7561462E-02  0.1159671E+00
         -2   -1    0    0    0  501 -0.00000000000E+00  0.00000000000E+00  0.84849474662E+02  0.84849474662E+02  0.00000000000E+00 0.  1.
          2   -1    0    0  501    0  0.00000000000E+00 -0.00000000000E+00 -0.11214087499E+04  0.11214087499E+04  0.00000000000E+00 0. -1.
         23    2    1    2    0    0  0.12276361034E+03 -0.12959885887E+03 -0.84925003741E+02  0.23394157611E+03  0.12509850729E+03 0.  0.
         23    2    1    2    0    0 -0.12276361034E+03  0.12959885887E+03 -0.95163427152E+03  0.97231664848E+03  0.89023086484E+02 0.  0.
          5    1    3    3  502    0  0.25822501388E+02 -0.33536793011E+02 -0.87596401995E+02  0.97376178329E+02  0.41800000000E+01 0. -1.
         -5    1    3    3    0  502  0.96941108952E+02 -0.96062065861E+02  0.26713982542E+01  0.13656539778E+03  0.41800000000E+01 0. -1.
        -11    1    4    4    0    0 -0.46895875328E+02 -0.13536655493E+01 -0.18248590969E+03  0.18842017612E+03  0.00000000000E+00 0.  1.
         11    1    4    4    0    0 -0.75867735012E+02  0.13095252442E+03 -0.76914836183E+03  0.78389647236E+03  0.00000000000E+00 0. -1.
</event>
<event>
 8    1  0.5951278E-006  0.1007681E+03  0.7561462E-02  0.1278689E+00
          1   -1    0    0  501    0  0.00000000000E+00  0.00000000000E+00  0.34066765352E+03  0.34066765352E+03  0.00000000000E+00 0. -1.
         -1   -1    0    0    0  501 -0.00000000000E+00 -0.00000000000E+00 -0.42630030115E+02  0.42630030115E+02  0.00000000000E+00 0.  1.
         23    2    1    2    0    0 -0.34350388794E+01 -0.41814419574E+02  0.12260606100E+03  0.18010626522E+03  0.12508307401E+03 0.  0.
         23    2    1    2    0    0  0.34350388794E+01  0.41814419574E+02  0.17543156240E+03  0.20319141841E+03  0.93542900594E+02 0.  0.
          5    1    3    3  502    0 -0.79276158000E+00  0.35436978432E+02  0.88671915812E+02  0.95585506041E+02  0.41800000000E+01 0. -1.
         -5    1    3    3    0  502 -0.26422772994E+01 -0.77251398007E+02  0.33934145188E+02  0.84520759184E+02  0.41800000000E+01 0. -1.
        -11    1    4    4    0    0 -0.70878402124E+01  0.63730703505E+02  0.69737439721E+02  0.94737271161E+02  0.00000000000E+00 0.  1.
         11    1    4    4    0    0  0.10522879092E+02 -0.21916283931E+02  0.10569412268E+03  0.10845414725E+03  0.00000000000E+00 0. -1.
</event>
<event>
 8    1  0.5951278E-006  0.1008158E+03  0.7561462E-02  0.1278590E+00
          1   -1    0    0  501    0  0.00000000000E+00  0.00000000000E+00  0.33411474743E+03  0.33411474743E+03  0.00000000000E+00 0. -1.
         -1   -1    0    0    0  501 -0.00000000000E+00 -0.00000000000E+00 -0.51985026269E+02  0.51985026269E+02  0.00000000000E+00 0.  1.
         23    2    1    2    0    0 -0.65469096421E+02 -0.33485374453E+02  0.14560637098E+03  0.20556035387E+03  0.12508545448E+03 0.  0.
         23    2    1    2    0    0  0.65469096421E+02  0.33485374453E+02  0.13652335018E+03  0.18053941984E+03  0.92457471740E+02 0.  0.
          5    1    3    3  502    0 -0.40318859291E+02  0.32058242736E+02  0.12010537087E+03  0.13075210841E+03  0.41800000000E+01 0. -1.
         -5    1    3    3    0  502 -0.25150237131E+02 -0.65543617189E+02  0.25501000113E+02  0.74808245460E+02  0.41800000000E+01 0. -1.
        -11    1    4    4    0    0  0.53604588051E+02  0.11774124294E+02  0.15523030104E+02  0.57035483048E+02  0.00000000000E+00 0.  1.
         11    1    4    4    0    0  0.11864508371E+02  0.21711250160E+02  0.12100032008E+03  0.12350393679E+03  0.00000000000E+00 0. -1.
</event>
<event>
 8    1  0.5951278E-006  0.2074172E+03  0.7561462E-02  0.1143628E+00
          2   -1    0    0  501    0  0.00000000000E+00  0.00000000000E+00  0.23348215933E+03  0.23348215933E+03  0.00000000000E+00 0. -1.
         -2   -1    0    0    0  501 -0.00000000000E+00 -0.00000000000E+00 -0.24933749868E+03  0.24933749868E+03  0.00000000000E+00 0.  1.
         23    2    1    2    0    0 -0.37405960570E+02  0.18752477277E+03 -0.10918582495E+03  0.25324721110E+03  0.12509140366E+03 0.  0.
         23    2    1    2    0    0  0.37405960570E+02 -0.18752477277E+03  0.93330485601E+02  0.22957244691E+03  0.86186904732E+02 0.  0.
          5    1    3    3  502    0 -0.75510840061E+02  0.14977952444E+03 -0.54211916226E+02  0.17632979660E+03  0.41800000000E+01 0. -1.
         -5    1    3    3    0  502  0.38104879492E+02  0.37745248335E+02 -0.54973908723E+02  0.76917414499E+02  0.41800000000E+01 0. -1.
        -11    1    4    4    0    0  0.55106226559E+01 -0.98983643563E+02  0.30860522628E+01  0.99184940256E+02  0.00000000000E+00 0.  1.
         11    1    4    4    0    0  0.31895337914E+02 -0.88541129209E+02  0.90244433338E+02  0.13038750665E+03  0.00000000000E+00 0. -1.
</event>
<event>
 8    1  0.5951278E-006  0.9049730E+02  0.7561462E-02  0.1301652E+00
         -1   -1    0    0    0  501 -0.00000000000E+00  0.00000000000E+00  0.53543533150E+02  0.53543533150E+02  0.00000000000E+00 0.  1.
          1   -1    0    0  501    0  0.00000000000E+00 -0.00000000000E+00 -0.34338446261E+03  0.34338446261E+03  0.00000000000E+00 0. -1.
         23    2    1    2    0    0  0.53420599200E+02  0.56066722140E+02 -0.11776831964E+03  0.18845062665E+03  0.12508806428E+03 0.  0.
         23    2    1    2    0    0 -0.53420599200E+02 -0.56066722140E+02 -0.17207260983E+03  0.20847736911E+03  0.88637422277E+02 0.  0.
          5    1    3    3  502    0  0.65066741837E+02  0.56771007252E+02 -0.18498077338E+02  0.88409724708E+02  0.41800000000E+01 0. -1.
         -5    1    3    3    0  502 -0.11646142638E+02 -0.70428511164E+00 -0.99270242300E+02  0.10004090195E+03  0.41800000000E+01 0. -1.
        -11    1    4    4    0    0 -0.12782847474E+02 -0.33070317391E+02 -0.15461386036E+03  0.15862689840E+03  0.00000000000E+00 0. -1.
         11    1    4    4    0    0 -0.40637751726E+02 -0.22996404749E+02 -0.17458749468E+02  0.49850470707E+02  0.00000000000E+00 0.  1.
</event>
<event>
 8    1  0.5951278E-006  0.1266656E+03  0.7561462E-02  0.1232489E+00
         -1   -1    0    0    0  501 -0.00000000000E+00  0.00000000000E+00  0.56147123837E+03  0.56147123837E+03  0.00000000000E+00 0.  1.
          1   -1    0    0  501    0  0.00000000000E+00 -0.00000000000E+00 -0.77963590000E+02  0.77963590000E+02  0.00000000000E+00 0. -1.
         23    2    1    2    0    0  0.81629756553E+02  0.76589205020E+02  0.46367156421E+03  0.49312127416E+03  0.12509175868E+03 0.  0.
         23    2    1    2    0    0 -0.81629756553E+02 -0.76589205020E+02  0.19836084162E+02  0.14631355421E+03  0.92113312998E+02 0.  0.
          5    1    3    3  502    0  0.99877062711E+01  0.14060907815E+02 -0.19658533962E+01  0.17854982070E+02  0.41800000000E+01 0.  1.
         -5    1    3    3    0  502  0.71642050282E+02  0.62528297205E+02  0.46563741761E+03  0.47526629209E+03  0.41800000000E+01 0.  1.
        -11    1    4    4    0    0 -0.11077791597E+02 -0.68496921193E+02  0.28016082409E+02  0.74829449771E+02  0.00000000000E+00 0. -1.
         11    1    4    4    0    0 -0.70551964956E+02 -0.80922838275E+01 -0.81799982467E+01  0.71484104443E+02  0.00000000000E+00 0.  1.
</event>
<event>
 8    1  0.5951278E-006  0.1350498E+03  0.7561462E-02  0.1220149E+00
          2   -1    0    0  501    0  0.00000000000E+00  0.00000000000E+00  0.51442974119E+03  0.51442974119E+03  0.00000000000E+00 0. -1.
         -2   -1    0    0    0  501 -0.00000000000E+00 -0.00000000000E+00 -0.43571387742E+02  0.43571387742E+02  0.00000000000E+00 0.  1.
         23    2    1    2    0    0  0.70642844894E+02  0.75527402288E+02  0.24227760449E+03  0.29161736890E+03  0.12508977647E+03 0.  0.
         23    2    1    2    0    0 -0.70642844894E+02 -0.75527402288E+02  0.22858074896E+03  0.26638376003E+03  0.89534064922E+02 0.  0.
          5    1    3    3  502    0  0.10674888534E+03  0.52121253958E+02  0.18398930157E+03  0.21904676471E+03  0.41800000000E+01 0.  1.
         -5    1    3    3    0  502 -0.36106040446E+02  0.23406148330E+02  0.58288302914E+02  0.72570604193E+02  0.41800000000E+01 0.  1.
        -11    1    4    4    0    0 -0.22535380039E+02 -0.46866179471E+02  0.29950680583E+02  0.60011043976E+02  0.00000000000E+00 0.  1.
         11    1    4    4    0    0 -0.48107464855E+02 -0.28661222817E+02  0.19863006837E+03  0.20637271605E+03  0.00000000000E+00 0. -1.
</event>
<event>
 8    1  0.5951278E-006  0.2971928E+03  0.7561462E-02  0.1086652E+00
          2   -1    0    0  501    0  0.00000000000E+00  0.00000000000E+00  0.13220085031E+04  0.13220085031E+04  0.00000000000E+00 0. -1.
         -2   -1    0    0    0  501 -0.00000000000E+00 -0.00000000000E+00 -0.11644811557E+03  0.11644811557E+03  0.00000000000E+00 0.  1.
         23    2    1    2    0    0  0.57513822194E+02 -0.27993259608E+03  0.15972590425E+03  0.35047205423E+03  0.12509275847E+03 0.  0.
         23    2    1    2    0    0 -0.57513822194E+02  0.27993259608E+03  0.10458344833E+04  0.10879845645E+04  0.90942552948E+02 0.  0.
          5    1    3    3  502    0  0.74297834423E+02 -0.27081640203E+03  0.11847172595E+03  0.30481914976E+03  0.41800000000E+01 0. -1.
         -5    1    3    3    0  502 -0.16784012229E+02 -0.91161940461E+01  0.41254178291E+02  0.45652904473E+02  0.41800000000E+01 0. -1.
        -11    1    4    4    0    0 -0.73606328327E+02  0.23451175351E+03  0.77974593035E+03  0.81756796048E+03  0.00000000000E+00 0.  1.
         11    1    4    4    0    0  0.16092506133E+02  0.45420842568E+02  0.26608855298E+03  0.27041660400E+03  0.00000000000E+00 0. -1.
</event>
<event>
 8    1  0.5951278E-006  0.2023062E+03  0.7561462E-02  0.1147808E+00
         -2   -1    0    0    0  501 -0.00000000000E+00  0.00000000000E+00  0.50729175670E+02  0.50729175670E+02  0.00000000000E+00 0.  1.
          2   -1    0    0  501    0  0.00000000000E+00 -0.00000000000E+00 -0.89427142406E+03  0.89427142406E+03  0.00000000000E+00 0. -1.
         23    2    1    2    0    0  0.11173334268E+03 -0.14439776724E+03 -0.45825464551E+03  0.50890054709E+03  0.12508953453E+03 0.  0.
         23    2    1    2    0    0 -0.11173334268E+03  0.14439776724E+03 -0.38528760288E+03  0.43610005264E+03  0.91660590921E+02 0.  0.
          5    1    3    3  502    0  0.12224711760E+03 -0.67231252984E+02 -0.24700113717E+03  0.28371012196E+03  0.41800000000E+01 0. -1.
         -5    1    3    3    0  502 -0.10513774917E+02 -0.77166514251E+02 -0.21125350834E+03  0.22519042513E+03  0.41800000000E+01 0. -1.
        -11    1    4    4    0    0 -0.10148159550E+03  0.10377649023E+03 -0.20611223141E+03  0.25209190009E+03  0.00000000000E+00 0.  1.
         11    1    4    4    0    0 -0.10251747182E+02  0.40621277003E+02 -0.17917537147E+03  0.18400815255E+03  0.00000000000E+00 0. -1.
</event>
<event>
 8    1  0.5951278E-006  0.1269572E+03  0.7561462E-02  0.1232042E+00
         -1   -1    0    0    0  501 -0.00000000000E+00  0.00000000000E+00  0.53489323285E+02  0.53489323285E+02  0.00000000000E+00 0.  1.
          1   -1    0    0  501    0  0.00000000000E+00 -0.00000000000E+00 -0.46724633435E+03  0.46724633435E+03  0.00000000000E+00 0. -1.
         23    2    1    2    0    0 -0.71265759584E+02 -0.72325116568E+02 -0.13849383476E+03  0.21245287157E+03  0.12508376952E+03 0.  0.
         23    2    1    2    0    0  0.71265759584E+02  0.72325116568E+02 -0.27526317630E+03  0.30828278606E+03  0.94650562485E+02 0.  0.
          5    1    3    3  502    0 -0.32287520257E+02  0.26231759606E+02 -0.82555486428E+02  0.92539018342E+02  0.41800000000E+01 0.  1.
         -5    1    3    3    0  502 -0.38978239327E+02 -0.98556876174E+02 -0.55938348333E+02  0.11991385323E+03  0.41800000000E+01 0.  1.
        -11    1    4    4    0    0  0.66511542298E+02  0.49993718382E+02 -0.27293086070E+03  0.28533210801E+03  0.00000000000E+00 0. -1.
         11    1    4    4    0    0  0.47542172863E+01  0.22331398186E+02 -0.23323155954E+01  0.22950678050E+02  0.00000000000E+00 0.  1.
</event>
<event>
 8    1  0.5951278E-006  0.1115591E+03  0.7561462E-02  0.1257710E+00
         -2   -1    0    0    0  501 -0.00000000000E+00  0.00000000000E+00  0.24340400799E+02  0.24340400799E+02  0.00000000000E+00 0.  1.
          2   -1    0    0  501    0  0.00000000000E+00 -0.00000000000E+00 -0.61392822511E+03  0.61392822511E+03  0.00000000000E+00 0. -1.
         23    2    1    2    0    0  0.26525145847E+02  0.14992093454E+02 -0.20447267902E+03  0.24162903312E+03  0.12508863639E+03 0.  0.
         23    2    1    2    0    0 -0.26525145847E+02 -0.14992093454E+02 -0.38511514529E+03  0.39663959278E+03  0.89894077686E+02 0.  0.
          5    1    3    3  502    0  0.14473872318E+02  0.70340206165E+02 -0.11586082844E+03  0.13637610330E+03  0.41800000000E+01 0.  1.
         -5    1    3    3    0  502  0.12051273529E+02 -0.55348112711E+02 -0.88611850577E+02  0.10525292983E+03  0.41800000000E+01 0.  1.
        -11    1    4    4    0    0 -0.11899861912E+02 -0.52653997267E+02 -0.19917311678E+03  0.20635886361E+03  0.00000000000E+00 0.  1.
         11    1    4    4    0    0 -0.14625283935E+02  0.37661903813E+02 -0.18594202851E+03  0.19028072918E+03  0.00000000000E+00 0. -1.
</event>
<event>
 8    1  0.5951278E-006  0.7837612E+02  0.7561462E-02  0.1333724E+00
         -1   -1    0    0    0  501 -0.00000000000E+00  0.00000000000E+00  0.23034975280E+02  0.23034975280E+02  0.00000000000E+00 0.  1.
          1   -1    0    0  501    0  0.00000000000E+00 -0.00000000000E+00 -0.62784699536E+03  0.62784699536E+03  0.00000000000E+00 0. -1.
         23    2    1    2    0    0  0.13129306614E+02  0.49186454745E+02 -0.30679412325E+03  0.33520434291E+03  0.12509049293E+03 0.  0.
         23    2    1    2    0    0 -0.13129306614E+02 -0.49186454745E+02 -0.29801789683E+03  0.31567762773E+03  0.90807553634E+02 0.  0.
          5    1    3    3  502    0 -0.14075462509E+02  0.54406135924E+02 -0.30146580177E+03  0.30668754182E+03  0.41800000000E+01 0. -1.
         -5    1    3    3    0  502  0.27204769123E+02 -0.52196811789E+01 -0.53283214833E+01  0.28516801091E+02  0.41800000000E+01 0. -1.
        -11    1    4    4    0    0  0.87085567422E+01  0.75910684855E+01 -0.39048380934E-01  0.11552696917E+02  0.00000000000E+00 0.  1.
         11    1    4    4    0    0 -0.21837863356E+02 -0.56777523231E+02 -0.29797884845E+03  0.30412493081E+03  0.00000000000E+00 0. -1.
</event>
<event>
 8    1  0.5951278E-006  0.1281337E+03  0.7561462E-02  0.1230252E+00
         -2   -1    0    0    0  501 -0.00000000000E+00  0.00000000000E+00  0.44510430374E+02  0.44510430374E+02  0.00000000000E+00 0.  1.
          2   -1    0    0  501    0  0.00000000000E+00 -0.00000000000E+00 -0.62395800424E+03  0.62395800424E+03  0.00000000000E+00 0. -1.
         23    2    1    2    0    0 -0.79874355463E+02 -0.96246514368E+02 -0.32490133655E+03  0.36993796958E+03  0.12509963490E+03 0.  0.
         23    2    1    2    0    0  0.79874355463E+02  0.96246514368E+02 -0.25454623731E+03  0.29853046503E+03  0.93184480660E+02 0.  0.
          5    1    3    3  502    0 -0.69838028241E+02 -0.89836859555E+02 -0.33496915482E+03  0.35379346885E+03  0.41800000000E+01 0. -1.
         -5    1    3    3    0  502 -0.10036327222E+02 -0.64096548132E+01  0.10067818267E+02  0.16144500723E+02  0.41800000000E+01 0. -1.
        -11    1    4    4    0    0  0.29744539538E+02  0.62883869401E+02 -0.21626013411E+03  0.22717298314E+03  0.00000000000E+00 0. -1.
         11    1    4    4    0    0  0.50129815925E+02  0.33362644967E+02 -0.38286103197E+02  0.71357481891E+02  0.00000000000E+00 0.  1.
</event>
<event>
 7    1  0.5951278E-006  0.9416646E+02  0.7561462E-02  0.1293065E+00
         -1   -1    0    0    0  501 -0.00000000000E+00  0.00000000000E+00  0.17786639815E+03  0.17786639815E+03  0.00000000000E+00 0.  1.
          1   -1    0    0  501    0  0.00000000000E+00 -0.00000000000E+00 -0.13188311908E+03  0.13188311908E+03  0.00000000000E+00 0. -1.
         23    2    1    2    0    0  0.50757544521E+02 -0.19343861172E+02 -0.54880810285E+02  0.11932561263E+03  0.90973541217E+02 0.  0.
          5    1    1    2  502    0 -0.22430494703E+02 -0.28721440759E+02 -0.30459524955E+02  0.47679170634E+02  0.41800000000E+01 0. -1.
         -5    1    1    2    0  502 -0.28327049818E+02  0.48065301931E+02  0.13132361431E+03  0.14274473397E+03  0.41800000000E+01 0.  1.
        -11    1    3    3    0    0  0.27073574649E+02  0.30340227065E+02  0.12894464673E+01  0.40683786633E+02  0.00000000000E+00 0.  1.
         11    1    3    3    0    0  0.23683969872E+02 -0.49684088237E+02 -0.56170256752E+02  0.78641825999E+02  0.00000000000E+00 0. -1.
</event>
<event>
 8    1  0.5951278E-006  0.9462102E+02  0.7561462E-02  0.1292032E+00
          1   -1    0    0  501    0  0.00000000000E+00  0.00000000000E+00  0.11704619968E+03  0.11704619968E+03  0.00000000000E+00 0. -1.
         -1   -1    0    0    0  501 -0.00000000000E+00 -0.00000000000E+00 -0.13919053921E+03  0.13919053921E+03  0.00000000000E+00 0.  1.
         23    2    1    2    0    0 -0.42103841362E+02  0.30612633091E+02 -0.69960512201E+02  0.14220822319E+03  0.11233360455E+03 0.  0.
         23    2    1    2    0    0  0.42103841362E+02 -0.30612633091E+02  0.47816172665E+02  0.11402851570E+03  0.89477646722E+02 0.  0.
          5    1    3    3  502    0 -0.58733423450E+02  0.34568900345E+02  0.18183376437E+01  0.68303752847E+02  0.41800000000E+01 0. -1.
         -5    1    3    3    0  502  0.16629582088E+02 -0.39562672543E+01 -0.71778849845E+02  0.73904470339E+02  0.41800000000E+01 0.  1.
        -11    1    4    4    0    0  0.69684853489E+02 -0.13721747004E+02  0.29949061513E+02  0.77079254226E+02  0.00000000000E+00 0. -1.
         11    1    4    4    0    0 -0.27581012127E+02 -0.16890886087E+02  0.17867111152E+02  0.36949261477E+02  0.00000000000E+00 0.  1.
</event>
<event>
 8    1  0.5951278E-006  0.8924236E+02  0.7561462E-02  0.1304697E+00
          1   -1    0    0  501    0  0.00000000000E+00  0.00000000000E+00  0.13849974285E+03  0.13849974285E+03  0.00000000000E+00 0. -1.
         -1   -1    0    0    0  501 -0.00000000000E+00 -0.00000000000E+00 -0.11117033016E+03  0.11117033016E+03  0.00000000000E+00 0.  1.
         23    2    1    2    0    0 -0.45039544024E+02  0.12509572590E+02 -0.20027077288E+02  0.13501610135E+03  0.12507283425E+03 0.  0.
         23    2    1    2    0    0  0.45039544024E+02 -0.12509572590E+02  0.47356489981E+02  0.11465397166E+03  0.93369406886E+02 0.  0.
          5    1    3    3  502    0  0.14231456847E+02 -0.25061992126E+01 -0.59992892172E+02  0.61850100321E+02  0.41800000000E+01 0.  1.
         -5    1    3    3    0  502 -0.59271000870E+02  0.15015771802E+02  0.39965814885E+02  0.73166001028E+02  0.41800000000E+01 0.  1.
        -11    1    4    4    0    0  0.61599290801E+02 -0.37544698332E+02  0.43880969270E+02  0.84437056226E+02  0.00000000000E+00 0. -1.
         11    1    4    4    0    0 -0.16559746777E+02  0.25035125742E+02  0.34755207111E+01  0.30216915436E+02  0.00000000000E+00 0.  1.
</event>
<event>
 7    1  0.5951278E-006  0.1628860E+03  0.7561462E-02  0.1185476E+00
          2   -1    0    0  501    0  0.00000000000E+00  0.00000000000E+00  0.76260103618E+03  0.76260103618E+03  0.00000000000E+00 0. -1.
         -2   -1    0    0    0  501 -0.00000000000E+00 -0.00000000000E+00 -0.47300610422E+02  0.47300610422E+02  0.00000000000E+00 0.  1.
         23    2    1    2    0    0  0.12905298701E+03 -0.70463558043E+02  0.35200345829E+03  0.38673500588E+03  0.63543242444E+02 0.  0.
          5    1    1    2  502    0 -0.12639531405E+03  0.36613497605E+02  0.36589154279E+03  0.38885783662E+03  0.41800000000E+01 0. -1.
         -5    1    1    2    0  502 -0.26576729562E+01  0.33850060438E+02 -0.25945753191E+01  0.34308804093E+02  0.41800000000E+01 0.  1.
        -11    1    3    3    0    0  0.13884777643E+02  0.11922667510E+02  0.33510750166E+02  0.38182553967E+02  0.00000000000E+00 0. -1.
         11    1    3    3    0    0  0.11516820937E+03 -0.82386225553E+02  0.31849270812E+03  0.34855245192E+03  0.00000000000E+00 0.  1.
</event>
<event>
 8    1  0.5951278E-006  0.1139702E+03  0.7561462E-02  0.1253389E+00
          1   -1    0    0  501    0  0.00000000000E+00  0.00000000000E+00  0.44344933797E+03  0.44344933797E+03  0.00000000000E+00 0. -1.
         -1   -1    0    0    0  501 -0.00000000000E+00 -0.00000000000E+00 -0.52190144933E+02  0.52190144933E+02  0.00000000000E+00 0.  1.
         23    2    1    2    0    0 -0.10152468894E+03  0.28480188704E+02  0.18415068770E+03  0.24632833270E+03  0.12509111918E+03 0.  0.
         23    2    1    2    0    0  0.10152468894E+03 -0.28480188704E+02  0.20710850533E+03  0.24931115020E+03  0.90242634149E+02 0.  0.
          5    1    3    3  502    0 -0.64258702803E+01  0.77591072176E+01  0.13817474351E+03  0.13860457315E+03  0.41800000000E+01 0.  1.
         -5    1    3    3    0  502 -0.95098818659E+02  0.20721081486E+02  0.45975944191E+02  0.10772375955E+03  0.41800000000E+01 0.  1.
        -11    1    4    4    0    0  0.69316966067E+02  0.93332199804E+01  0.54045448766E+02  0.88390391515E+02  0.00000000000E+00 0.  1.
         11    1    4    4    0    0  0.32207722873E+02 -0.37813408684E+02  0.15306305657E+03  0.16092075868E+03  0.00000000000E+00 0. -1.
</event>
<event>
 8    1  0.5951278E-006  0.8510886E+02  0.7561462E-02  0.1315148E+00
          3   -1    0    0  501    0  0.00000000000E+00  0.00000000000E+00  0.71390112479E+03  0.71390112479E+03  0.00000000000E+00 0. -1.
         -3   -1    0    0    0  501 -0.00000000000E+00 -0.00000000000E+00 -0.20223003725E+02  0.20223003725E+02  0.00000000000E+00 0.  1.
         23    2    1    2    0    0  0.36421187912E+02  0.35898122652E+02  0.38692452134E+03  0.40984532765E+03  0.12508968480E+03 0.  0.
         23    2    1    2    0    0 -0.36421187912E+02 -0.35898122652E+02  0.30675359973E+03  0.32427880087E+03  0.91890106143E+02 0.  0.
          5    1    3    3  502    0  0.14397031434E+01 -0.17159196142E+02  0.54684676441E-02  0.17719570743E+02  0.41800000000E+01 0.  1.
         -5    1    3    3    0  502  0.34981484769E+02  0.53057318795E+02  0.38691905288E+03  0.39212575691E+03  0.41800000000E+01 0.  1.
        -11    1    4    4    0    0 -0.39139462109E+02  0.11919800602E+02  0.23142065300E+03  0.23500956954E+03  0.00000000000E+00 0. -1.
         11    1    4    4    0    0  0.27182741970E+01 -0.47817923254E+02  0.75332946724E+02  0.89269231324E+02  0.00000000000E+00 0.  1.
</event>
<event>
 8    1  0.5951278E-006  0.1071932E+03  0.7561462E-02  0.1265858E+00
          2   -1    0    0  501    0  0.00000000000E+00  0.00000000000E+00  0.14435852781E+03  0.14435852781E+03  0.00000000000E+00 0. -1.
         -2   -1    0    0    0  501 -0.00000000000E+00 -0.00000000000E+00 -0.11480522783E+03  0.11480522783E+03  0.00000000000E+00 0.  1.
         23    2    1    2    0    0  0.65950761977E+02 -0.93124637368E+01  0.22635646651E+02  0.14351455036E+03  0.12509128139E+03 0.  0.
         23    2    1    2    0    0 -0.65950761977E+02  0.93124637368E+01  0.69176533265E+01  0.11564920529E+03  0.94290295205E+02 0.  0.
          5    1    3    3  502    0  0.54767144756E+02  0.29765834036E+02  0.61108800417E+02  0.87391091703E+02  0.41800000000E+01 0. -1.
         -5    1    3    3    0  502  0.11183617221E+02 -0.39078297773E+02 -0.38473153766E+02  0.56123458657E+02  0.41800000000E+01 0. -1.
        -11    1    4    4    0    0 -0.72141093964E+02 -0.24874256395E+02 -0.10079142069E+02  0.76971781676E+02  0.00000000000E+00 0.  1.
         11    1    4    4    0    0  0.61903319870E+01  0.34186720132E+02  0.16996795395E+02  0.38677423611E+02  0.00000000000E+00 0. -1.
</event>
<event>
 7    1  0.5951278E-006  0.2352888E+03  0.7561462E-02  0.1122972E+00
         -2   -1    0    0    0  501 -0.00000000000E+00  0.00000000000E+00  0.17548765742E+03  0.17548765742E+03  0.00000000000E+00 0.  1.
          2   -1    0    0  501    0  0.00000000000E+00 -0.00000000000E+00 -0.34687363776E+03  0.34687363776E+03  0.00000000000E+00 0. -1.
         23    2    1    2    0    0 -0.18316056180E+03 -0.19066893708E+02 -0.14080393920E+03  0.24889414883E+03  0.90615728190E+02 0.  0.
          5    1    1    2  502    0  0.20129784425E+03  0.71397004882E+02 -0.39404308455E+02  0.21722920230E+03  0.41800000000E+01 0. -1.
         -5    1    1    2    0  502 -0.18137282454E+02 -0.52330111174E+02  0.88222673038E+01  0.56237944047E+02  0.41800000000E+01 0.  1.
        -11    1    3    3    0    0  0.10794579833E+01 -0.17126335275E+02 -0.28045089340E+02  0.32878619581E+02  0.00000000000E+00 0. -1.
         11    1    3    3    0    0 -0.18424001978E+03 -0.19405584331E+01 -0.11275884986E+03  0.21601552925E+03  0.00000000000E+00 0.  1.
</event>
<event>
 8    1  0.5951278E-006  0.1139762E+03  0.7561462E-02  0.1253379E+00
          1   -1    0    0  501    0  0.00000000000E+00  0.00000000000E+00  0.10887751116E+03  0.10887751116E+03  0.00000000000E+00 0. -1.
         -1   -1    0    0    0  501 -0.00000000000E+00 -0.00000000000E+00 -0.17440099643E+03  0.17440099643E+03  0.00000000000E+00 0.  1.
         23    2    1    2    0    0  0.73770407007E+02  0.24621443531E+02 -0.83696147541E+02  0.16941281461E+03  0.12508944083E+03 0.  0.
         23    2    1    2    0    0 -0.73770407007E+02 -0.24621443531E+02  0.18172662274E+02  0.11386569298E+03  0.81159484675E+02 0.  0.
          5    1    3    3  502    0  0.95521148613E+02  0.11988144074E+02 -0.16790602237E+02  0.97813098071E+02  0.41800000000E+01 0. -1.
         -5    1    3    3    0  502 -0.21750741606E+02  0.12633299457E+02 -0.66905545304E+02  0.71599716536E+02  0.41800000000E+01 0. -1.
        -11    1    4    4    0    0 -0.43387222209E+02 -0.50217923046E+02 -0.71572245222E+01  0.66749656995E+02  0.00000000000E+00 0.  1.
         11    1    4    4    0    0 -0.30383184798E+02  0.25596479515E+02  0.25329886796E+02  0.47116035987E+02  0.00000000000E+00 0. -1.
</event>
<event>
 8    1  0.5951278E-006  0.1003317E+03  0.7561462E-02  0.1279600E+00
         -1   -1    0    0    0  501 -0.00000000000E+00  0.00000000000E+00  0.10984836089E+03  0.10984836089E+03  0.00000000000E+00 0.  1.
          1   -1    0    0  501    0  0.00000000000E+00 -0.00000000000E+00 -0.12644712906E+03  0.12644712906E+03  0.00000000000E+00 0. -1.
         23    2    1    2    0    0 -0.43550120345E+02  0.53847078581E+01  0.42690994031E+01  0.13263164238E+03  0.12508924531E+03 0.  0.
         23    2    1    2    0    0  0.43550120345E+02 -0.53847078581E+01 -0.20867867572E+02  0.10366384756E+03  0.91570286299E+02 0.  0.
          5    1    3    3  502    0 -0.52571777566E+02 -0.42480609362E+02  0.33625208950E+02  0.75607678480E+02  0.41800000000E+01 0.  1.
         -5    1    3    3    0  502  0.90216572206E+01  0.47865317220E+02 -0.29356109547E+02  0.57023963904E+02  0.41800000000E+01 0.  1.
        -11    1    4    4    0    0 -0.90206439091E+01  0.22720160925E+02 -0.34721296473E+02  0.42463468508E+02  0.00000000000E+00 0. -1.
         11    1    4    4    0    0  0.52570764254E+02 -0.28104868783E+02  0.13853428900E+02  0.61200379050E+02  0.00000000000E+00 0.  1.
</event>
<event>
 8    1  0.5951278E-006  0.1108847E+03  0.7561462E-02  0.1258940E+00
         -4   -1    0    0    0  501 -0.00000000000E+00  0.00000000000E+00  0.43054977512E+03  0.43054977512E+03  0.00000000000E+00 0.  1.
          4   -1    0    0  501    0  0.00000000000E+00 -0.00000000000E+00 -0.46286039543E+02  0.46286039543E+02  0.00000000000E+00 0. -1.
         23    2    1    2    0    0 -0.20000466213E+01 -0.57749867377E+02  0.32747953103E+03  0.35528879624E+03  0.12509291793E+03 0.  0.
         23    2    1    2    0    0  0.20000466213E+01  0.57749867377E+02  0.56784204547E+02  0.12154701843E+03  0.90610068062E+02 0.  0.
          5    1    3    3  502    0  0.38982895903E+02  0.13029209566E+02  0.19663719564E+03  0.20093054915E+03  0.41800000000E+01 0. -1.
         -5    1    3    3    0  502 -0.40982942525E+02 -0.70779076943E+02  0.13084233540E+03  0.15435824708E+03  0.41800000000E+01 0. -1.
        -11    1    4    4    0    0 -0.34914651876E+02  0.49765379493E+02  0.57633685687E+02  0.83769132964E+02  0.00000000000E+00 0.  1.
         11    1    4    4    0    0  0.36914698497E+02  0.79844878842E+01 -0.84948113996E+00  0.37777885464E+02  0.00000000000E+00 0. -1.
</event>
<event>
 8    1  0.5951278E-006  0.6283759E+02  0.7561462E-02  0.1386295E+00
         -2   -1    0    0    0  501 -0.00000000000E+00  0.00000000000E+00  0.20260032221E+02  0.20260032221E+02  0.00000000000E+00 0.  1.
          2   -1    0    0  501    0  0.00000000000E+00 -0.00000000000E+00 -0.61330799948E+03  0.61330799948E+03  0.00000000000E+00 0. -1.
         23    2    1    2    0    0 -0.24873248039E+02 -0.12869766035E+02 -0.34993564668E+03  0.37267491229E+03  0.12508926447E+03 0.  0.
         23    2    1    2    0    0  0.24873248039E+02  0.12869766035E+02 -0.24311232058E+03  0.26089311941E+03  0.90428479993E+02 0.  0.
          5    1    3    3  502    0 -0.17875609724E+02 -0.20274451171E+02 -0.52952468655E+01  0.27858622232E+02  0.41800000000E+01 0.  1.
         -5    1    3    3    0  502 -0.69976383156E+01  0.74046851366E+01 -0.34464039981E+03  0.34481629005E+03  0.41800000000E+01 0.  1.
        -11    1    4    4    0    0  0.66313825158E+00  0.46151572895E+02 -0.17781577038E+03  0.18370861610E+03  0.00000000000E+00 0. -1.
         11    1    4    4    0    0  0.24210109788E+02 -0.33281806861E+02 -0.65296550193E+02  0.77184503308E+02  0.00000000000E+00 0.  1.
</event>
<event>
 8    1  0.5951278E-006  0.1054317E+03  0.7561462E-02  0.1269271E+00
         -2   -1    0    0    0  501 -0.00000000000E+00  0.00000000000E+00  0.16772258578E+03  0.16772258578E+03  0.00000000000E+00 0.  1.
          2   -1    0    0  501    0  0.00000000000E+00 -0.00000000000E+00 -0.10702158265E+03  0.10702158265E+03  0.00000000000E+00 0. -1.
         23    2    1    2    0    0  0.32061971536E+01 -0.26467412140E+02  0.10773004721E+03  0.16722266749E+03  0.12508738484E+03 0.  0.
         23    2    1    2    0    0 -0.32061971536E+01  0.26467412140E+02 -0.47029044077E+02  0.10752150094E+03  0.92942662814E+02 0.  0.
          5    1    3    3  502    0  0.36182842407E+02 -0.57982772853E+02  0.25447551594E+02  0.73049642809E+02  0.41800000000E+01 0. -1.
         -5    1    3    3    0  502 -0.32976645254E+02  0.31515360713E+02  0.82282495613E+02  0.94173024680E+02  0.41800000000E+01 0. -1.
        -11    1    4    4    0    0 -0.46705759897E+02  0.21648376558E+01 -0.20240056996E+02  0.50948743231E+02  0.00000000000E+00 0. -1.
         11    1    4    4    0    0  0.43499562743E+02  0.24302574484E+02 -0.26788987081E+02  0.56572757704E+02  0.00000000000E+00 0.  1.
</event>
<event>
 8    1  0.5951278E-006  0.1610742E+03  0.7561462E-02  0.1187489E+00
         -1   -1    0    0    0  501 -0.00000000000E+00  0.00000000000E+00  0.88735848810E+02  0.88735848810E+02  0.00000000000E+00 0.  1.
          1   -1    0    0  501    0  0.00000000000E+00 -0.00000000000E+00 -0.38686995583E+03  0.38686995583E+03  0.00000000000E+00 0. -1.
         23    2    1    2    0    0 -0.12346720559E+03  0.53358264289E+02 -0.71922698621E+02  0.19725814667E+03  0.12508655653E+03 0.  0.
         23    2    1    2    0    0  0.12346720559E+03 -0.53358264289E+02 -0.22621140840E+03  0.27834765798E+03  0.90634221936E+02 0.  0.
          5    1    3    3  502    0 -0.30089281039E+02 -0.24072400036E+02  0.21287154225E+02  0.44220590361E+02  0.41800000000E+01 0. -1.
         -5    1    3    3    0  502 -0.93377924554E+02  0.77430664325E+02 -0.93209852846E+02  0.15303755630E+03  0.41800000000E+01 0. -1.
        -11    1    4    4    0    0  0.10391029549E+02  0.23223950670E+02 -0.30931742887E+02  0.40051193463E+02  0.00000000000E+00 0.  1.
         11    1    4    4    0    0  0.11307617604E+03 -0.76582214959E+02 -0.19527966552E+03  0.23829646452E+03  0.00000000000E+00 0. -1.
</event>
<event>
 8    1  0.5951278E-006  0.1348773E+03  0.7561462E-02  0.1220393E+00
          1   -1    0    0  501    0  0.00000000000E+00  0.00000000000E+00  0.12763986892E+03  0.12763986892E+03  0.00000000000E+00 0. -1.
         -1   -1    0    0    0  501 -0.00000000000E+00 -0.00000000000E+00 -0.17067985126E+03  0.17067985126E+03  0.00000000000E+00 0.  1.
         23    2    1    2    0    0  0.92369982922E+02  0.34727257665E+02 -0.43601248962E+02  0.16518505146E+03  0.12508731409E+03 0.  0.
         23    2    1    2    0    0 -0.92369982922E+02 -0.34727257665E+02  0.56126662231E+00  0.13313466873E+03  0.89366262240E+02 0.  0.
          5    1    3    3  502    0  0.39895899628E+02  0.67189214973E+02 -0.62900103251E+02  0.10039904783E+03  0.41800000000E+01 0. -1.
         -5    1    3    3    0  502  0.52474083294E+02 -0.32461957308E+02  0.19298854289E+02  0.64786003633E+02  0.41800000000E+01 0. -1.
        -11    1    4    4    0    0 -0.47342358019E+02  0.26035127247E+02  0.15149699428E+02  0.56112744598E+02  0.00000000000E+00 0. -1.
         11    1    4    4    0    0 -0.45027624903E+02 -0.60762384913E+02 -0.14588432806E+02  0.77021924128E+02  0.00000000000E+00 0.  1.
</event>
<event>
 8    1  0.5951278E-006  0.1099951E+03  0.7561462E-02  0.1260579E+00
         -1   -1    0    0    0  501 -0.00000000000E+00  0.00000000000E+00  0.71872791431E+02  0.71872791431E+02  0.00000000000E+00 0.  1.
          1   -1    0    0  501    0  0.00000000000E+00 -0.00000000000E+00 -0.37151301171E+03  0.37151301171E+03  0.00000000000E+00 0. -1.
         23    2    1    2    0    0 -0.52803811192E+02  0.40829313356E+02 -0.22585788906E+02  0.14357067174E+03  0.12508854710E+03 0.  0.
         23    2    1    2    0    0  0.52803811192E+02 -0.40829313356E+02 -0.27705443137E+03  0.29981513141E+03  0.93137960956E+02 0.  0.
          5    1    3    3  502    0 -0.26707691973E+02 -0.29572705014E+02 -0.49515090592E+02  0.63695072719E+02  0.41800000000E+01 0. -1.
         -5    1    3    3    0  502 -0.26096119219E+02  0.70402018370E+02  0.26929301687E+02  0.79875599016E+02  0.41800000000E+01 0. -1.
        -11    1    4    4    0    0 -0.69593033333E+01 -0.44316740825E+02 -0.61631996539E+02  0.76229314687E+02  0.00000000000E+00 0.  1.
         11    1    4    4    0    0  0.59763114525E+02  0.34874274689E+01 -0.21542243484E+03  0.22358581672E+03  0.00000000000E+00 0. -1.
</event>
<event>
 8    1  0.5951278E-006  0.1085574E+03  0.7561462E-02  0.1263265E+00
          2   -1    0    0  501    0  0.00000000000E+00  0.00000000000E+00  0.33027232188E+03  0.33027232188E+03  0.00000000000E+00 0.  1.
         -2   -1    0    0    0  501 -0.00000000000E+00 -0.00000000000E+00 -0.45473969836E+02  0.45473969836E+02  0.00000000000E+00 0. -1.
         23    2    1    2    0    0  0.49145170033E+02  0.26684331966E+02  0.13407255485E+03  0.19170431071E+03  0.12509113266E+03 0.  0.
         23    2    1    2    0    0 -0.49145170033E+02 -0.26684331966E+02  0.15072579720E+03  0.18404198101E+03  0.89587295542E+02 0.  0.
          5    1    3    3  502    0  0.84266271532E+02  0.78801381029E+01  0.12436252276E+03  0.15048724385E+03  0.41800000000E+01 0. -1.
         -5    1    3    3    0  502 -0.35121101498E+02  0.18804193863E+02  0.97100320870E+01  0.41217066858E+02  0.41800000000E+01 0. -1.
        -11    1    4    4    0    0  0.44216015485E+01  0.20478436663E+02  0.46455939814E+01  0.21459228128E+02  0.00000000000E+00 0. -1.
         11    1    4    4    0    0 -0.53566771582E+02 -0.47162768628E+02  0.14608020322E+03  0.16258275288E+03  0.00000000000E+00 0.  1.
</event>
<event>
 8    1  0.5951278E-006  0.8340370E+02  0.7561462E-02  0.1319661E+00
          2   -1    0    0  501    0  0.00000000000E+00  0.00000000000E+00  0.16429501293E+03  0.16429501293E+03  0.00000000000E+00 0.  1.
         -2   -1    0    0    0  501 -0.00000000000E+00 -0.00000000000E+00 -0.73152198539E+02  0.73152198539E+02  0.00000000000E+00 0. -1.
         23    2    1    2    0    0  0.19757141918E+02  0.37106891638E+01  0.46076670580E+02  0.13481264115E+03  0.12508906735E+03 0.  0.
         23    2    1    2    0    0 -0.19757141918E+02 -0.37106891638E+01  0.45066143814E+02  0.10263457032E+03  0.89993243280E+02 0.  0.
          5    1    3    3  502    0  0.27284293889E+02  0.37663142509E+02 -0.26882961253E+02  0.53880525261E+02  0.41800000000E+01 0.  1.
         -5    1    3    3    0  502 -0.75271519708E+01 -0.33952453346E+02  0.72959631834E+02  0.80932115889E+02  0.41800000000E+01 0.  1.
        -11    1    4    4    0    0  0.14235611487E+01  0.38147147517E+02  0.87086459834E+00  0.38183632556E+02  0.00000000000E+00 0. -1.
         11    1    4    4    0    0 -0.21180703067E+02 -0.41857836681E+02  0.44195279216E+02  0.64450937766E+02  0.00000000000E+00 0.  1.
</event>
<event>
 8    1  0.5951278E-006  0.1034960E+03  0.7561462E-02  0.1273112E+00
          2   -1    0    0  501    0  0.00000000000E+00  0.00000000000E+00  0.18844035880E+03  0.18844035880E+03  0.00000000000E+00 0. -1.
         -2   -1    0    0    0  501 -0.00000000000E+00 -0.00000000000E+00 -0.11731856559E+03  0.11731856559E+03  0.00000000000E+00 0.  1.
         23    2    1    2    0    0  0.47180334848E+02 -0.21580596494E+02 -0.50776091530E+02  0.14463230473E+03  0.12509430827E+03 0.  0.
         23    2    1    2    0    0 -0.47180334848E+02  0.21580596494E+02  0.12189788474E+03  0.16112661966E+03  0.91711433941E+02 0.  0.
          5    1    3    3  502    0  0.61324467136E+02 -0.43766367580E+02  0.12030260169E+02  0.76409323779E+02  0.41800000000E+01 0.  1.
         -5    1    3    3    0  502 -0.14144132288E+02  0.22185771086E+02 -0.62806351698E+02  0.68222980956E+02  0.41800000000E+01 0.  1.
        -11    1    4    4    0    0  0.27664036146E+02  0.82902656359E+01  0.26976174533E+02  0.39518873879E+02  0.00000000000E+00 0.  1.
         11    1    4    4    0    0 -0.74844370994E+02  0.13290330858E+02  0.94921710211E+02  0.12160774578E+03  0.00000000000E+00 0. -1.
</event>
<event>
 8    1  0.5951278E-006  0.1823546E+03  0.7561462E-02  0.1165544E+00
          2   -1    0    0  501    0  0.00000000000E+00  0.00000000000E+00  0.36837609062E+03  0.36837609062E+03  0.00000000000E+00 0. -1.
         -2   -1    0    0    0  501 -0.00000000000E+00 -0.00000000000E+00 -0.92850297358E+02  0.92850297358E+02  0.00000000000E+00 0.  1.
         23    2    1    2    0    0  0.16867883313E+02 -0.14822942940E+03  0.13073562091E+03  0.23508523301E+03  0.12616170170E+03 0.  0.
         23    2    1    2    0    0 -0.16867883313E+02  0.14822942940E+03  0.14479017235E+03  0.22614115497E+03  0.88989542830E+02 0.  0.
          5    1    3    3  502    0  0.57312646704E+02 -0.14211926206E+03  0.11227064718E+03  0.19001261731E+03  0.41800000000E+01 0. -1.
         -5    1    3    3    0  502 -0.40444763391E+02 -0.61101673479E+01  0.18464973731E+02  0.45072615696E+02  0.41800000000E+01 0.  1.
        -11    1    4    4    0    0 -0.44557660658E+02  0.12927672854E+03  0.13250348220E+03  0.19040753783E+03  0.00000000000E+00 0.  1.
         11    1    4    4    0    0  0.27689777345E+02  0.18952700865E+02  0.12286690150E+02  0.35733617146E+02  0.00000000000E+00 0. -1.
</event>
<event>
 8    1  0.5951278E-006  0.9823761E+02  0.7561462E-02  0.1284046E+00
         -1   -1    0    0    0  501 -0.00000000000E+00  0.00000000000E+00  0.49042826696E+03  0.49042826696E+03  0.00000000000E+00 0.  1.
          1   -1    0    0  501    0  0.00000000000E+00 -0.00000000000E+00 -0.36279703608E+02  0.36279703608E+02  0.00000000000E+00 0. -1.
         23    2    1    2    0    0 -0.36731471636E+02 -0.67015091569E+02  0.28630139732E+03  0.32164630755E+03  0.12509050141E+03 0.  0.
         23    2    1    2    0    0  0.36731471636E+02  0.67015091569E+02  0.16784716603E+03  0.20506166302E+03  0.89651497424E+02 0.  0.
          5    1    3    3  502    0 -0.42925923984E+02  0.80772817300E+01  0.20923178442E+03  0.21378327681E+03  0.41800000000E+01 0. -1.
         -5    1    3    3    0  502  0.61944523473E+01 -0.75092373299E+02  0.77069612903E+02  0.10786303074E+03  0.41800000000E+01 0. -1.
        -11    1    4    4    0    0  0.15584237051E+02  0.39257872628E+02  0.16469442574E+03  0.17002441847E+03  0.00000000000E+00 0.  1.
         11    1    4    4    0    0  0.21147234585E+02  0.27757218942E+02  0.31527402865E+01  0.35037244545E+02  0.00000000000E+00 0. -1.
</event>
<event>
 8    1  0.5951278E-006  0.1159370E+03  0.7561462E-02  0.1249954E+00
          1   -1    0    0  501    0  0.00000000000E+00  0.00000000000E+00  0.57076987818E+02  0.57076987818E+02  0.00000000000E+00 0. -1.
         -1   -1    0    0    0  501 -0.00000000000E+00 -0.00000000000E+00 -0.30353546994E+03  0.30353546994E+03  0.00000000000E+00 0.  1.
         23    2    1    2    0    0  0.66977383306E+02 -0.89624626264E+01 -0.18427273327E+03  0.23274456268E+03  0.12508915068E+03 0.  0.
         23    2    1    2    0    0 -0.66977383306E+02  0.89624626264E+01 -0.62185748845E+02  0.12786789508E+03  0.88976601537E+02 0.  0.
          5    1    3    3  502    0  0.86656392569E+02 -0.38987773460E+02 -0.86726614698E+02  0.12871812207E+03  0.41800000000E+01 0.  1.
         -5    1    3    3    0  502 -0.19679009262E+02  0.30025310833E+02 -0.97546118576E+02  0.10402644061E+03  0.41800000000E+01 0.  1.
        -11    1    4    4    0    0 -0.62081611888E+02 -0.24542063822E+02 -0.65900180598E+02  0.93804441442E+02  0.00000000000E+00 0.  1.
         11    1    4    4    0    0 -0.48957714179E+01  0.33504526448E+02  0.37144317537E+01  0.34063453635E+02  0.00000000000E+00 0. -1.
</event>
<event>
 8    1  0.5951278E-006  0.1689047E+03  0.7561462E-02  0.1178995E+00
          1   -1    0    0  501    0  0.00000000000E+00  0.00000000000E+00  0.80274493511E+03  0.80274493511E+03  0.00000000000E+00 0. -1.
         -1   -1    0    0    0  501 -0.00000000000E+00 -0.00000000000E+00 -0.39826091540E+02  0.39826091540E+02  0.00000000000E+00 0.  1.
         23    2    1    2    0    0 -0.12095979448E+03 -0.73823650169E+02  0.42520651593E+03  0.46532681056E+03  0.12508899322E+03 0.  0.
         23    2    1    2    0    0  0.12095979448E+03  0.73823650169E+02  0.33771232764E+03  0.37724421609E+03  0.90456504097E+02 0.  0.
          5    1    3    3  502    0  0.15259772298E+02  0.80718164162E+01  0.11883362888E+03  0.12015372913E+03  0.41800000000E+01 0. -1.
         -5    1    3    3    0  502 -0.13621956678E+03 -0.81895466585E+02  0.30637288705E+03  0.34517308143E+03  0.41800000000E+01 0. -1.
        -11    1    4    4    0    0  0.12233991815E+03  0.42225558605E+02  0.30696809184E+03  0.33313580231E+03  0.00000000000E+00 0. -1.
         11    1    4    4    0    0 -0.13801236686E+01  0.31598091564E+02  0.30744235793E+02  0.44108413781E+02  0.00000000000E+00 0.  1.
</event>
<event>
 7    1  0.5951278E-006  0.6682818E+02  0.7561462E-02  0.1371224E+00
         -2   -1    0    0    0  501 -0.00000000000E+00  0.00000000000E+00  0.45218473856E+02  0.45218473856E+02  0.00000000000E+00 0.  1.
          2   -1    0    0  501    0  0.00000000000E+00 -0.00000000000E+00 -0.20307152920E+03  0.20307152920E+03  0.00000000000E+00 0. -1.
         23    2    1    2    0    0 -0.15116310893E+02  0.13990959377E+02 -0.46849504836E+02  0.13486845463E+03  0.12478130530E+03 0.  0.
          5    1    3    3  502    0  0.47016695199E+02  0.18658867203E+01  0.11559389087E+02  0.48632736266E+02  0.41800000000E+01 0. -1.
         -5    1    3    3    0  502 -0.62133006092E+02  0.12125072656E+02 -0.58408893923E+02  0.86235718367E+02  0.41800000000E+01 0.  1.
        -11    1    1    2    0    0  0.11623324256E+02 -0.38429534505E+01 -0.49693188950E+02  0.51178931075E+02  0.00000000000E+00 0. -1.
         11    1    1    2    0    0  0.34929866369E+01 -0.10148005926E+02 -0.61310361554E+02  0.62242617344E+02  0.00000000000E+00 0.  1.
</event>
<event>
 8    1  0.5951278E-006  0.9980403E+02  0.7561462E-02  0.1280709E+00
          2   -1    0    0  501    0  0.00000000000E+00  0.00000000000E+00  0.10399218592E+03  0.10399218592E+03  0.00000000000E+00 0.  1.
         -2   -1    0    0    0  501 -0.00000000000E+00 -0.00000000000E+00 -0.32978204738E+03  0.32978204738E+03  0.00000000000E+00 0. -1.
         23    2    1    2    0    0 -0.10132859097E+02  0.54605130261E+02 -0.28145913303E+03  0.31297015229E+03  0.12508668024E+03 0.  0.
         23    2    1    2    0    0  0.10132859097E+02 -0.54605130261E+02  0.55669271573E+02  0.12080408101E+03  0.91706941435E+02 0.  0.
          5    1    3    3  502    0  0.22253078572E+02  0.79583508818E+02 -0.24289577881E+03  0.25660196053E+03  0.41800000000E+01 0. -1.
         -5    1    3    3    0  502 -0.32385937668E+02 -0.24978378558E+02 -0.38563354214E+02  0.56368191760E+02  0.41800000000E+01 0. -1.
        -11    1    4    4    0    0 -0.37300120895E+01 -0.60553703312E+02  0.74883670313E+02  0.96375453589E+02  0.00000000000E+00 0.  1.
         11    1    4    4    0    0  0.13862871186E+02  0.59485730510E+01 -0.19214398739E+02  0.24428627423E+02  0.00000000000E+00 0. -1.
</event>
<event>
 8    1  0.5951278E-006  0.1060327E+03  0.7561462E-02  0.1268098E+00
          1   -1    0    0  501    0  0.00000000000E+00  0.00000000000E+00  0.29799517901E+02  0.29799517901E+02  0.00000000000E+00 0. -1.
         -1   -1    0    0    0  501 -0.00000000000E+00 -0.00000000000E+00 -0.54380608970E+03  0.54380608970E+03  0.00000000000E+00 0.  1.
         23    2    1    2    0    0 -0.20096110338E+02 -0.34205119866E+02 -0.41432647916E+03  0.43226748476E+03  0.11668291722E+03 0.  0.
         23    2    1    2    0    0  0.20096110338E+02  0.34205119866E+02 -0.99680092637E+02  0.14133812284E+03  0.92013587171E+02 0.  0.
          5    1    3    3  502    0  0.47744480730E+02 -0.16582218119E+02 -0.21613302662E+03  0.22200329500E+03  0.41800000000E+01 0. -1.
         -5    1    3    3    0  502 -0.67840591068E+02 -0.17622901747E+02 -0.19819345254E+03  0.21026418976E+03  0.41800000000E+01 0.  1.
        -11    1    4    4    0    0  0.85104917581E+00  0.59413246939E+02 -0.34142216787E+02  0.68529914370E+02  0.00000000000E+00 0. -1.
         11    1    4    4    0    0  0.19245061162E+02 -0.25208127073E+02 -0.65537875850E+02  0.72808208470E+02  0.00000000000E+00 0.  1.
</event>
<event>
 7    1  0.5951278E-006  0.1269493E+03  0.7561462E-02  0.1232054E+00
          1   -1    0    0  501    0  0.00000000000E+00  0.00000000000E+00  0.24820445813E+03  0.24820445813E+03  0.00000000000E+00 0. -1.
         -1   -1    0    0    0  501 -0.00000000000E+00 -0.00000000000E+00 -0.95326898786E+02  0.95326898786E+02  0.00000000000E+00 0.  1.
         23    2    1    2    0    0  0.78273357783E+02  0.31507889539E+02  0.10106045642E+03  0.15938274727E+03  0.89834172974E+02 0.  0.
          5    1    1    2  502    0 -0.10493275703E+03 -0.29067900244E+02  0.87215801291E+02  0.13957039341E+03  0.41800000000E+01 0. -1.
         -5    1    1    2    0  502  0.26659399249E+02 -0.24399892947E+01 -0.35398698368E+02  0.44578216230E+02  0.41800000000E+01 0.  1.
        -11    1    3    3    0    0 -0.96784717449E+01  0.28211092645E+02  0.48300692223E+02  0.56767027690E+02  0.00000000000E+00 0. -1.
         11    1    3    3    0    0  0.87951829528E+02  0.32967968944E+01  0.52759764199E+02  0.10261571958E+03  0.00000000000E+00 0.  1.
</event>
<event>
 8    1  0.5951278E-006  0.6779136E+02  0.7561462E-02  0.1367769E+00
          1   -1    0    0  501    0  0.00000000000E+00  0.00000000000E+00  0.38452184115E+03  0.38452184115E+03  0.00000000000E+00 0. -1.
         -1   -1    0    0    0  501 -0.00000000000E+00 -0.00000000000E+00 -0.33647652537E+02  0.33647652537E+02  0.00000000000E+00 0.  1.
         23    2    1    2    0    0  0.31449975926E+02 -0.31422310640E+01  0.19348599249E+03  0.23255887377E+03  0.12509127020E+03 0.  0.
         23    2    1    2    0    0 -0.31449975926E+02  0.31422310640E+01  0.15738819612E+03  0.18561061991E+03  0.93173404700E+02 0.  0.
          5    1    3    3  502    0  0.42654397507E+01 -0.93430338698E+01 -0.16943232266E+02  0.20249241413E+02  0.41800000000E+01 0.  1.
         -5    1    3    3    0  502  0.27184536176E+02  0.62008028059E+01  0.21042922476E+03  0.21230963236E+03  0.41800000000E+01 0.  1.
        -11    1    4    4    0    0 -0.58654694946E+02  0.22594321881E+02  0.83568644479E+02  0.10456861365E+03  0.00000000000E+00 0. -1.
         11    1    4    4    0    0  0.27204719020E+02 -0.19452090817E+02  0.73819551642E+02  0.81042006260E+02  0.00000000000E+00 0.  1.
</event>
<event>
 8    1  0.5951278E-006  0.1280484E+03  0.7561462E-02  0.1230381E+00
          2   -1    0    0  501    0  0.00000000000E+00  0.00000000000E+00  0.62074471894E+03  0.62074471894E+03  0.00000000000E+00 0. -1.
         -2   -1    0    0    0  501 -0.00000000000E+00 -0.00000000000E+00 -0.41663052181E+02  0.41663052181E+02  0.00000000000E+00 0.  1.
         23    2    1    2    0    0 -0.97333032612E+02 -0.17186282393E+02  0.17739283759E+03  0.23850541438E+03  0.12509007282E+03 0.  0.
         23    2    1    2    0    0  0.97333032612E+02  0.17186282393E+02  0.40168882917E+03  0.42390235674E+03  0.92575401886E+02 0.  0.
          5    1    3    3  502    0  0.62789070083E+01 -0.36476739118E+02  0.66888229661E+01  0.37844285204E+02  0.41800000000E+01 0.  1.
         -5    1    3    3    0  502 -0.10361193962E+03  0.19290456726E+02  0.17070401462E+03  0.20066112917E+03  0.41800000000E+01 0.  1.
        -11    1    4    4    0    0  0.46897789503E+02  0.36436728537E+02  0.91725224375E+02  0.10927284490E+03  0.00000000000E+00 0.  1.
         11    1    4    4    0    0  0.50435243109E+02 -0.19250446144E+02  0.30996360479E+03  0.31462951184E+03  0.00000000000E+00 0. -1.
</event>
<event>
 8    1  0.5951278E-006  0.9985517E+02  0.7561462E-02  0.1280601E+00
         -2   -1    0    0    0  501 -0.00000000000E+00  0.00000000000E+00  0.42521889717E+02  0.42521889717E+02  0.00000000000E+00 0.  1.
          2   -1    0    0  501    0  0.00000000000E+00 -0.00000000000E+00 -0.48133041816E+03  0.48133041816E+03  0.00000000000E+00 0. -1.
         23    2    1    2    0    0 -0.37325506961E+02 -0.56609578357E+02 -0.12307874972E+03  0.18813399551E+03  0.12509270084E+03 0.  0.
         23    2    1    2    0    0  0.37325506961E+02  0.56609578357E+02 -0.31572977872E+03  0.33571831236E+03  0.91780467693E+02 0.  0.
          5    1    3    3  502    0  0.12305350275E+02 -0.21116260911E+02  0.20435766804E+02  0.32131154432E+02  0.41800000000E+01 0. -1.
         -5    1    3    3    0  502 -0.49630857237E+02 -0.35493317445E+02 -0.14351451652E+03  0.15600284108E+03  0.41800000000E+01 0. -1.
        -11    1    4    4    0    0 -0.30669326353E+02  0.18174375358E+02 -0.87019542155E+02  0.94038907988E+02  0.00000000000E+00 0.  1.
         11    1    4    4    0    0  0.67994833314E+02  0.38435202999E+02 -0.22871023657E+03  0.24167940437E+03  0.00000000000E+00 0. -1.
</event>
<event>
 8    1  0.5951278E-006  0.1256980E+03  0.7561462E-02  0.1233982E+00
          1   -1    0    0  501    0  0.00000000000E+00  0.00000000000E+00  0.11310247990E+03  0.11310247990E+03  0.00000000000E+00 0. -1.
         -1   -1    0    0    0  501 -0.00000000000E+00 -0.00000000000E+00 -0.18078625267E+03  0.18078625267E+03  0.00000000000E+00 0.  1.
         23    2    1    2    0    0  0.62822258149E+02 -0.73594162920E+02 -0.55098643836E+02  0.16038598816E+03  0.11543425709E+03 0.  0.
         23    2    1    2    0    0 -0.62822258149E+02  0.73594162920E+02 -0.12585128927E+02  0.13350274441E+03  0.91114545270E+02 0.  0.
          5    1    3    3  502    0 -0.12164164832E+02 -0.32963349623E+02  0.24987383438E+02  0.43317329736E+02  0.41800000000E+01 0. -1.
         -5    1    3    3    0  502  0.74986422980E+02 -0.40630813297E+02 -0.80086027274E+02  0.11706865842E+03  0.41800000000E+01 0.  1.
        -11    1    4    4    0    0  0.22509943297E+02  0.13402960981E+02  0.73115859063E+01  0.27199194818E+02  0.00000000000E+00 0.  1.
         11    1    4    4    0    0 -0.85332201446E+02  0.60191201939E+02 -0.19896714833E+02  0.10630354959E+03  0.00000000000E+00 0. -1.
</event>
<event>
 7    1  0.5951278E-006  0.7577557E+02  0.7561462E-02  0.1341486E+00
          2   -1    0    0  501    0  0.00000000000E+00  0.00000000000E+00  0.38198899043E+02  0.38198899043E+02  0.00000000000E+00 0. -1.
         -2   -1    0    0    0  501 -0.00000000000E+00 -0.00000000000E+00 -0.42676264709E+03  0.42676264709E+03  0.00000000000E+00 0.  1.
         23    2    1    2    0    0  0.38647087150E+02 -0.20333697103E+01 -0.10961582896E+03  0.15123128518E+03  0.96734377145E+02 0.  0.
          5    1    1    2  502    0 -0.13702659700E+02 -0.11964614093E+02  0.11449900207E+02  0.21897202744E+02  0.41800000000E+01 0. -1.
         -5    1    1    2    0  502 -0.24944427450E+02  0.13997983803E+02 -0.29039781930E+03  0.29183305821E+03  0.41800000000E+01 0.  1.
        -11    1    3    3    0    0  0.51541493045E+02 -0.39125171198E+02 -0.63509435512E+02  0.90668367834E+02  0.00000000000E+00 0.  1.
         11    1    3    3    0    0 -0.12894405895E+02  0.37091801488E+02 -0.46106393444E+02  0.60562917346E+02  0.00000000000E+00 0. -1.
</event>
<event>
 8    1  0.5951278E-006  0.9184920E+02  0.7561462E-02  0.1298434E+00
          3   -1    0    0  501    0  0.00000000000E+00  0.00000000000E+00  0.72471285617E+02  0.72471285617E+02  0.00000000000E+00 0. -1.
         -3   -1    0    0    0  501 -0.00000000000E+00 -0.00000000000E+00 -0.18519158227E+03  0.18519158227E+03  0.00000000000E+00 0.  1.
         23    2    1    2    0    0 -0.13150647267E+02  0.36967222686E+02 -0.63462041785E+02  0.14565419905E+03  0.12509276508E+03 0.  0.
         23    2    1    2    0    0  0.13150647267E+02 -0.36967222686E+02 -0.49258254868E+02  0.11200866884E+03  0.92628565493E+02 0.  0.
          5    1    3    3  502    0  0.30418095161E+02  0.17299110609E+02 -0.85776970269E+02  0.92734463764E+02  0.41800000000E+01 0.  1.
         -5    1    3    3    0  502 -0.43568742428E+02  0.19668112078E+02  0.22314928484E+02  0.52919735286E+02  0.41800000000E+01 0.  1.
        -11    1    4    4    0    0  0.13119756059E+02 -0.68093246821E+02 -0.31399675896E+02  0.76123307259E+02  0.00000000000E+00 0. -1.
         11    1    4    4    0    0  0.30891208464E-01  0.31126024134E+02 -0.17858578971E+02  0.35885361578E+02  0.00000000000E+00 0.  1.
</event>
<event>
 7    1  0.5951278E-006  0.1112439E+03  0.7561462E-02  0.1258284E+00
          2   -1    0    0  501    0  0.00000000000E+00  0.00000000000E+00  0.72764740350E+03  0.72764740350E+03  0.00000000000E+00 0. -1.
         -2   -1    0    0    0  501 -0.00000000000E+00 -0.00000000000E+00 -0.30163683852E+02  0.30163683852E+02  0.00000000000E+00 0.  1.
         23    2    1    2    0    0 -0.13077082594E+02 -0.69112431567E+01  0.44921032831E+03  0.45759029643E+03  0.85908002890E+02 0.  0.
          5    1    1    2  502    0 -0.37810487266E+02  0.53946931215E+02  0.21170329731E+03  0.22175586312E+03  0.41800000000E+01 0. -1.
         -5    1    1    2    0  502  0.50887569860E+02 -0.47035688058E+02  0.36570094031E+02  0.78464927801E+02  0.41800000000E+01 0.  1.
        -11    1    3    3    0    0 -0.48605086551E+02  0.65880943664E+01  0.26473937958E+03  0.26924486351E+03  0.00000000000E+00 0. -1.
         11    1    3    3    0    0  0.35528003957E+02 -0.13499337523E+02  0.18447094872E+03  0.18834543292E+03  0.00000000000E+00 0.  1.
</event>
<event>
 8    1  0.5951278E-006  0.8735297E+02  0.7561462E-02  0.1309391E+00
         -4   -1    0    0    0  501 -0.00000000000E+00  0.00000000000E+00  0.11615587377E+03  0.11615587377E+03  0.00000000000E+00 0.  1.
          4   -1    0    0  501    0  0.00000000000E+00 -0.00000000000E+00 -0.11963086633E+03  0.11963086633E+03  0.00000000000E+00 0. -1.
         23    2    1    2    0    0  0.24773893022E+02 -0.49819116308E+02  0.25840402915E+02  0.12899532456E+03  0.11347412573E+03 0.  0.
         23    2    1    2    0    0 -0.24773893022E+02  0.49819116308E+02 -0.29315395477E+02  0.10679141553E+03  0.86309465844E+02 0.  0.
          5    1    3    3  502    0 -0.20597899395E+02 -0.37961468224E+02 -0.32364607185E+02  0.54132122880E+02  0.41800000000E+01 0. -1.
         -5    1    3    3    0  502  0.45371792417E+02 -0.11857648084E+02  0.58205010099E+02  0.74863201681E+02  0.41800000000E+01 0.  1.
        -11    1    4    4    0    0  0.88836713411E+01  0.49788983625E+02  0.13485077140E+02  0.52342237366E+02  0.00000000000E+00 0.  1.
         11    1    4    4    0    0 -0.33657564363E+02  0.30132682893E-01 -0.42800472617E+02  0.54449178167E+02  0.00000000000E+00 0. -1.
</event>
<event>
 8    1  0.5951278E-006  0.9763323E+02  0.7561462E-02  0.1285353E+00
         -1   -1    0    0    0  501 -0.00000000000E+00  0.00000000000E+00  0.13600689693E+03  0.13600689693E+03  0.00000000000E+00 0.  1.
          1   -1    0    0  501    0  0.00000000000E+00 -0.00000000000E+00 -0.10032622214E+03  0.10032622214E+03  0.00000000000E+00 0. -1.
         23    2    1    2    0    0 -0.16966641580E+01  0.44429556296E+02  0.29401099036E+02  0.13596875617E+03  0.12508482677E+03 0.  0.
         23    2    1    2    0    0  0.16966641580E+01 -0.44429556296E+02  0.62795757549E+01  0.10036436290E+03  0.89759167373E+02 0.  0.
          5    1    3    3  502    0  0.45316257956E+02 -0.22428261212E+02  0.78439810051E+01  0.51338003215E+02  0.41800000000E+01 0. -1.
         -5    1    3    3    0  502 -0.47012922114E+02  0.66857817509E+02  0.21557118031E+02  0.84630752954E+02  0.41800000000E+01 0. -1.
        -11    1    4    4    0    0  0.82090538981E+01  0.70386435346E+01 -0.33364068023E+02  0.35072668900E+02  0.00000000000E+00 0. -1.
         11    1    4    4    0    0 -0.65123897401E+01 -0.51468199831E+02  0.39643643778E+02  0.65291694004E+02  0.00000000000E+00 0.  1.
</event>
<event>
 8    1  0.5951278E-006  0.1276353E+03  0.7561462E-02  0.1231007E+00
         -2   -1    0    0    0  501 -0.00000000000E+00  0.00000000000E+00  0.10556687027E+03  0.10556687027E+03  0.00000000000E+00 0.  1.
          2   -1    0    0  501    0  0.00000000000E+00 -0.00000000000E+00 -0.19994348203E+03  0.19994348203E+03  0.00000000000E+00 0. -1.
         23    2    1    2    0    0  0.32300359516E+01  0.77955346788E+02  0.56836127021E+01  0.14753551260E+03  0.12508778838E+03 0.  0.
         23    2    1    2    0    0 -0.32300359516E+01 -0.77955346788E+02 -0.10006022446E+03  0.15797483970E+03  0.94109150642E+02 0.  0.
          5    1    3    3  502    0  0.45192500118E+02  0.82533574234E+02  0.29737394126E+02  0.98772151703E+02  0.41800000000E+01 0.  1.
         -5    1    3    3    0  502 -0.41962464167E+02 -0.45782274458E+01 -0.24053781424E+02  0.48763360900E+02  0.41800000000E+01 0.  1.
        -11    1    4    4    0    0 -0.40004766424E+02 -0.70620559695E+02 -0.85106156945E+02  0.11760400817E+03  0.00000000000E+00 0. -1.
         11    1    4    4    0    0  0.36774730473E+02 -0.73347870932E+01 -0.14954067512E+02  0.40370831527E+02  0.00000000000E+00 0.  1.
</event>
<event>
 8    1  0.5951278E-006  0.1160620E+03  0.7561462E-02  0.1249739E+00
          1   -1    0    0  501    0  0.00000000000E+00  0.00000000000E+00  0.12205734544E+03  0.12205734544E+03  0.00000000000E+00 0. -1.
         -1   -1    0    0    0  501 -0.00000000000E+00 -0.00000000000E+00 -0.12550610854E+03  0.12550610854E+03  0.00000000000E+00 0.  1.
         23    2    1    2    0    0  0.35874317725E+02 -0.27056228613E+02 -0.40516210976E+02  0.13895306295E+03  0.12508950464E+03 0.  0.
         23    2    1    2    0    0 -0.35874317725E+02  0.27056228613E+02  0.37067447868E+02  0.10861039103E+03  0.91669052411E+02 0.  0.
          5    1    3    3  502    0  0.73311459165E+02  0.16373738384E+02 -0.19274212815E+02  0.77663614603E+02  0.41800000000E+01 0.  1.
         -5    1    3    3    0  502 -0.37437141440E+02 -0.43429966997E+02 -0.21241998161E+02  0.61289448345E+02  0.41800000000E+01 0.  1.
        -11    1    4    4    0    0 -0.64274886482E+02  0.70512960692E+01  0.35662650856E+02  0.73843120699E+02  0.00000000000E+00 0.  1.
         11    1    4    4    0    0  0.28400568757E+02  0.20004932544E+02  0.14047970120E+01  0.34767270334E+02  0.00000000000E+00 0. -1.
</event>
<event>
 8    1  0.5951278E-006  0.7958161E+02  0.7561462E-02  0.1330243E+00
         -2   -1    0    0    0  501 -0.00000000000E+00  0.00000000000E+00  0.16880527423E+03  0.16880527423E+03  0.00000000000E+00 0. -1.
          2   -1    0    0  501    0  0.00000000000E+00 -0.00000000000E+00 -0.77661964985E+02  0.77661964985E+02  0.00000000000E+00 0.  1.
         23    2    1    2    0    0 -0.35972590172E+02 -0.19630772792E+01  0.60657768143E+02  0.14361607267E+03  0.12509328750E+03 0.  0.
         23    2    1    2    0    0  0.35972590172E+02  0.19630772792E+01  0.30485541100E+02  0.10285116654E+03  0.91384426063E+02 0.  0.
          5    1    3    3  502    0 -0.71628360938E+02  0.20838820135E+02  0.67317780487E+02  0.10056855614E+03  0.41800000000E+01 0. -1.
         -5    1    3    3    0  502  0.35655770766E+02 -0.22801897415E+02 -0.66600123442E+01  0.43047516526E+02  0.41800000000E+01 0. -1.
        -11    1    4    4    0    0  0.14006430620E+02  0.11353196860E+02 -0.31570269652E+02  0.36355977549E+02  0.00000000000E+00 0.  1.
         11    1    4    4    0    0  0.21966159552E+02 -0.93901195808E+01  0.62055810751E+02  0.66495188993E+02  0.00000000000E+00 0. -1.
</event>
<event>
 8    1  0.5951278E-006  0.1030231E+03  0.7561462E-02  0.1274064E+00
          2   -1    0    0  501    0  0.00000000000E+00  0.00000000000E+00  0.20046150234E+03  0.20046150234E+03  0.00000000000E+00 0. -1.
         -2   -1    0    0    0  501 -0.00000000000E+00 -0.00000000000E+00 -0.85362633078E+02  0.85362633078E+02  0.00000000000E+00 0.  1.
         23    2    1    2    0    0 -0.46715556913E+02 -0.53378405722E+02  0.46348820880E+02  0.15108952456E+03  0.12509290060E+03 0.  0.
         23    2    1    2    0    0  0.46715556913E+02  0.53378405722E+02  0.68750048382E+02  0.13473461086E+03  0.91625590065E+02 0.  0.
          5    1    3    3  502    0  0.55086431406E+01  0.30186262810E+02 -0.15541705250E+02  0.34649280133E+02  0.41800000000E+01 0.  1.
         -5    1    3    3    0  502 -0.52224200054E+02 -0.83564668532E+02  0.61890526129E+02  0.11644024443E+03  0.41800000000E+01 0.  1.
        -11    1    4    4    0    0  0.24457961955E+02  0.47500411980E+02  0.89177654743E+02  0.10395737178E+03  0.00000000000E+00 0. -1.
         11    1    4    4    0    0  0.22257594958E+02  0.58779937417E+01 -0.20427606360E+02  0.30777239079E+02  0.00000000000E+00 0.  1.
</event>
<event>
 8    1  0.5951278E-006  0.1322882E+03  0.7561462E-02  0.1224099E+00
          1   -1    0    0  501    0  0.00000000000E+00  0.00000000000E+00  0.19862153528E+03  0.19862153528E+03  0.00000000000E+00 0. -1.
         -1   -1    0    0    0  501 -0.00000000000E+00 -0.00000000000E+00 -0.12230053594E+03  0.12230053594E+03  0.00000000000E+00 0.  1.
         23    2    1    2    0    0 -0.67020769432E+02  0.84359722044E+02  0.10528741506E+02  0.16543307749E+03  0.12509557343E+03 0.  0.
         23    2    1    2    0    0  0.67020769432E+02 -0.84359722044E+02  0.65792257834E+02  0.15548899372E+03  0.90773673160E+02 0.  0.
          5    1    3    3  502    0 -0.10541762674E+02 -0.28104471078E+02 -0.19429476447E+02  0.35999541801E+02  0.41800000000E+01 0. -1.
         -5    1    3    3    0  502 -0.56479006758E+02  0.11246419312E+03  0.29958217953E+02  0.12943353569E+03  0.41800000000E+01 0. -1.
        -11    1    4    4    0    0  0.20656242951E+02 -0.34926192347E+02  0.76767539895E+02  0.86831874713E+02  0.00000000000E+00 0. -1.
         11    1    4    4    0    0  0.46364526482E+02 -0.49433529697E+02 -0.10975282061E+02  0.68657119008E+02  0.00000000000E+00 0.  1.
</event>
<event>
 7    1  0.5951278E-006  0.1521196E+03  0.7561462E-02  0.1197892E+00
          2   -1    0    0  501    0  0.00000000000E+00  0.00000000000E+00  0.32200963948E+02  0.32200963948E+02  0.00000000000E+00 0. -1.
         -2   -1    0    0    0  501 -0.00000000000E+00 -0.00000000000E+00 -0.12298050455E+04  0.12298050455E+04  0.00000000000E+00 0.  1.
         23    2    1    2    0    0 -0.19482837358E+02  0.37106628220E+01 -0.21068081397E+03  0.23074614996E+03  0.92000165080E+02 0.  0.
          5    1    1    2  502    0  0.25986596722E+02  0.10870284875E+03 -0.15171387309E+03  0.18848390972E+03  0.41800000000E+01 0. -1.
         -5    1    1    2    0  502 -0.65037593637E+01 -0.11241351157E+03 -0.83520939448E+03  0.84277594976E+03  0.41800000000E+01 0.  1.
        -11    1    3    3    0    0 -0.31184887122E+02 -0.30462898499E+02 -0.51291049796E+02  0.67314613265E+02  0.00000000000E+00 0.  1.
         11    1    3    3    0    0  0.11702049764E+02  0.34173561321E+02 -0.15938976417E+03  0.16343153669E+03  0.00000000000E+00 0. -1.
</event>
<event>
 8    1  0.5951278E-006  0.1521067E+03  0.7561462E-02  0.1197908E+00
          1   -1    0    0  501    0  0.00000000000E+00  0.00000000000E+00  0.34934783674E+02  0.34934783674E+02  0.00000000000E+00 0. -1.
         -1   -1    0    0    0  501 -0.00000000000E+00 -0.00000000000E+00 -0.10034967749E+04  0.10034967749E+04  0.00000000000E+00 0.  1.
         23    2    1    2    0    0 -0.13705300422E+03  0.58627077461E+02 -0.59322826477E+03  0.62432982179E+03  0.12508913651E+03 0.  0.
         23    2    1    2    0    0  0.13705300422E+03 -0.58627077461E+02 -0.37533372649E+03  0.41410173683E+03  0.91565179086E+02 0.  0.
          5    1    3    3  502    0 -0.13824272413E+03  0.59336678509E+02 -0.59868883229E+03  0.61731489736E+03  0.41800000000E+01 0.  1.
         -5    1    3    3    0  502  0.11897199130E+01 -0.70960104753E+00  0.54605675184E+01  0.70149244287E+01  0.41800000000E+01 0.  1.
        -11    1    4    4    0    0  0.30775709863E+02 -0.17124292916E+02 -0.21175694638E+03  0.21466576361E+03  0.00000000000E+00 0.  1.
         11    1    4    4    0    0  0.10627729436E+03 -0.41502784545E+02 -0.16357678012E+03  0.19943597322E+03  0.00000000000E+00 0. -1.
</event>
<event>
 8    1  0.5951278E-006  0.1160824E+03  0.7561462E-02  0.1249703E+00
         -2   -1    0    0    0  501 -0.00000000000E+00  0.00000000000E+00  0.39867949418E+02  0.39867949418E+02  0.00000000000E+00 0.  1.
          2   -1    0    0  501    0  0.00000000000E+00 -0.00000000000E+00 -0.60555273483E+03  0.60555273483E+03  0.00000000000E+00 0. -1.
         23    2    1    2    0    0  0.60773761099E+02  0.92721043497E+02 -0.31687086772E+03  0.35825519255E+03  0.12509594014E+03 0.  0.
         23    2    1    2    0    0 -0.60773761099E+02 -0.92721043497E+02 -0.24881391770E+03  0.28716549170E+03  0.90912111597E+02 0.  0.
          5    1    3    3  502    0  0.13183435112E+02  0.60974094060E+02 -0.28671168180E+03  0.29344966176E+03  0.41800000000E+01 0.  1.
         -5    1    3    3    0  502  0.47590325987E+02  0.31746949437E+02 -0.30159185916E+02  0.64805530791E+02  0.41800000000E+01 0.  1.
        -11    1    4    4    0    0 -0.30209933532E+02 -0.61885269107E+02 -0.53833622553E+02  0.87409870917E+02  0.00000000000E+00 0.  1.
         11    1    4    4    0    0 -0.30563827567E+02 -0.30835774390E+02 -0.19498029515E+03  0.19975562078E+03  0.00000000000E+00 0. -1.
</event>
<event>
 8    1  0.5951278E-006  0.1647783E+03  0.7561462E-02  0.1183405E+00
         -2   -1    0    0    0  501 -0.00000000000E+00  0.00000000000E+00  0.28234896231E+03  0.28234896231E+03  0.00000000000E+00 0.  1.
          2   -1    0    0  501    0  0.00000000000E+00 -0.00000000000E+00 -0.17752135368E+03  0.17752135368E+03  0.00000000000E+00 0. -1.
         23    2    1    2    0    0 -0.13239943353E+03 -0.49147865014E+02  0.19800856572E+03  0.26734604919E+03  0.11100178055E+03 0.  0.
         23    2    1    2    0    0  0.13239943353E+03  0.49147865014E+02 -0.93180957090E+02  0.19252426680E+03  0.91857388955E+02 0.  0.
          5    1    3    3  502    0 -0.33677144405E+02 -0.69722687369E+02  0.71185124611E+02  0.10526251733E+03  0.41800000000E+01 0. -1.
         -5    1    3    3    0  502 -0.98722289129E+02  0.20574822355E+02  0.12682344111E+03  0.16208353186E+03  0.41800000000E+01 0.  1.
        -11    1    4    4    0    0  0.83830741550E+02  0.57698793699E+02 -0.10007429411E+03  0.14272914336E+03  0.00000000000E+00 0. -1.
         11    1    4    4    0    0  0.48568691984E+02 -0.85509286855E+01  0.68933370221E+01  0.49795123433E+02  0.00000000000E+00 0.  1.
</event>
<event>
 7    1  0.5951278E-006  0.1252357E+03  0.7561462E-02  0.1234701E+00
         -3   -1    0    0    0  501 -0.00000000000E+00  0.00000000000E+00  0.10079263825E+03  0.10079263825E+03  0.00000000000E+00 0.  1.
          3   -1    0    0  501    0  0.00000000000E+00 -0.00000000000E+00 -0.36474698291E+03  0.36474698291E+03  0.00000000000E+00 0. -1.
         23    2    1    2    0    0  0.59075905222E+02  0.22944653289E+02 -0.29703855680E+03  0.31695492428E+03  0.90620638418E+02 0.  0.
          5    1    1    2  502    0 -0.20644180128E+02  0.52371295186E+02  0.29873918460E+02  0.63865938784E+02  0.41800000000E+01 0. -1.
         -5    1    1    2    0  502 -0.38431725094E+02 -0.75315948475E+02  0.32102936716E+01  0.84718758100E+02  0.41800000000E+01 0.  1.
        -11    1    3    3    0    0 -0.78793898679E+01  0.39594394903E+02 -0.87847182683E+02  0.96679513847E+02  0.00000000000E+00 0.  1.
         11    1    3    3    0    0  0.66955295090E+02 -0.16649741614E+02 -0.20919137411E+03  0.22027541043E+03  0.00000000000E+00 0. -1.
</event>
<event>
 8    1  0.5951278E-006  0.1471425E+03  0.7561462E-02  0.1204029E+00
         -2   -1    0    0    0  501 -0.00000000000E+00  0.00000000000E+00  0.95442277668E+03  0.95442277668E+03  0.00000000000E+00 0.  1.
          2   -1    0    0  501    0  0.00000000000E+00 -0.00000000000E+00 -0.24426733994E+02  0.24426733994E+02  0.00000000000E+00 0. -1.
         23    2    1    2    0    0  0.67855219528E+02  0.76020783852E+02  0.60637399422E+03  0.62747161482E+03  0.12509083155E+03 0.  0.
         23    2    1    2    0    0 -0.67855219528E+02 -0.76020783852E+02  0.32362204846E+03  0.35137789586E+03  0.91387663559E+02 0.  0.
          5    1    3    3  502    0 -0.15128787038E+02  0.76253694922E+02  0.31543823156E+03  0.32490345723E+03  0.41800000000E+01 0.  1.
         -5    1    3    3    0  502  0.82984006566E+02 -0.23291107040E+00  0.29093576266E+03  0.30256815759E+03  0.41800000000E+01 0.  1.
        -11    1    4    4    0    0 -0.68973517610E+02 -0.12847292781E+02  0.20945531764E+03  0.22089347920E+03  0.00000000000E+00 0.  1.
         11    1    4    4    0    0  0.11182980822E+01 -0.63173491071E+02  0.11416673082E+03  0.13048441666E+03  0.00000000000E+00 0. -1.
</event>
<event>
 8    1  0.5951278E-006  0.7503856E+02  0.7561462E-02  0.1343752E+00
          1   -1    0    0  501    0  0.00000000000E+00  0.00000000000E+00  0.23697241029E+03  0.23697241029E+03  0.00000000000E+00 0. -1.
         -1   -1    0    0    0  501 -0.00000000000E+00 -0.00000000000E+00 -0.50997895123E+02  0.50997895123E+02  0.00000000000E+00 0.  1.
         23    2    1    2    0    0 -0.83127396825E+01  0.12235484517E+02  0.10726355167E+03  0.16544539814E+03  0.12509157257E+03 0.  0.
         23    2    1    2    0    0  0.83127396825E+01 -0.12235484517E+02  0.78710963503E+02  0.12252490728E+03  0.92726093442E+02 0.  0.
          5    1    3    3  502    0 -0.63047434411E+01  0.55736885539E+02  0.10791334805E+03  0.12169270022E+03  0.41800000000E+01 0.  1.
         -5    1    3    3    0  502 -0.20079962414E+01 -0.43501401023E+02 -0.64979638431E+00  0.43752697919E+02  0.41800000000E+01 0.  1.
        -11    1    4    4    0    0  0.19409810580E+02 -0.25971326479E+02  0.93832734519E+02  0.99276546138E+02  0.00000000000E+00 0. -1.
         11    1    4    4    0    0 -0.11097070898E+02  0.13735841963E+02 -0.15121771016E+02  0.23248361138E+02  0.00000000000E+00 0.  1.
</event>
<event>
 8    1  0.5951278E-006  0.1080479E+03  0.7561462E-02  0.1264228E+00
         -1   -1    0    0    0  501 -0.00000000000E+00  0.00000000000E+00  0.23781491313E+02  0.23781491313E+02  0.00000000000E+00 0.  1.
          1   -1    0    0  501    0  0.00000000000E+00 -0.00000000000E+00 -0.52528393459E+03  0.52528393459E+03  0.00000000000E+00 0. -1.
         23    2    1    2    0    0 -0.11509467509E+02 -0.32845062467E+02 -0.24652585960E+03  0.27567538087E+03  0.11836659240E+03 0.  0.
         23    2    1    2    0    0  0.11509467509E+02  0.32845062467E+02 -0.25497658367E+03  0.27339004503E+03  0.92291887661E+02 0.  0.
          5    1    3    3  502    0 -0.10627220162E+02 -0.76276355780E+02 -0.18315184444E+03  0.19872868635E+03  0.41800000000E+01 0. -1.
         -5    1    3    3    0  502 -0.88224734772E+00  0.43431293313E+02 -0.63374015165E+02  0.76946694519E+02  0.41800000000E+01 0.  1.
        -11    1    4    4    0    0  0.50318859325E+02  0.14272497876E+02 -0.10413302497E+03  0.11653059121E+03  0.00000000000E+00 0.  1.
         11    1    4    4    0    0 -0.38809391815E+02  0.18572564592E+02 -0.15084355870E+03  0.15685945381E+03  0.00000000000E+00 0. -1.
</event>
<event>
 8    1  0.5951278E-006  0.9767077E+02  0.7561462E-02  0.1285272E+00
         -2   -1    0    0    0  501 -0.00000000000E+00  0.00000000000E+00  0.36320305485E+02  0.36320305485E+02  0.00000000000E+00 0.  1.
          2   -1    0    0  501    0  0.00000000000E+00 -0.00000000000E+00 -0.41740554694E+03  0.41740554694E+03  0.00000000000E+00 0. -1.
         23    2    1    2    0    0 -0.37525812202E+02 -0.45364487758E+02 -0.22557637087E+03  0.26457185950E+03  0.12508975343E+03 0.  0.
         23    2    1    2    0    0  0.37525812202E+02  0.45364487758E+02 -0.15550887058E+03  0.18915399292E+03  0.90167072023E+02 0.  0.
          5    1    3    3  502    0 -0.76881989334E+02 -0.47774611617E+02 -0.19315564061E+03  0.21335376186E+03  0.41800000000E+01 0.  1.
         -5    1    3    3    0  502  0.39356177132E+02  0.24101238587E+01 -0.32420730254E+02  0.51218097638E+02  0.41800000000E+01 0.  1.
        -11    1    4    4    0    0  0.34323332909E+02  0.20440559747E+02 -0.95854318067E+01  0.41082699129E+02  0.00000000000E+00 0.  1.
         11    1    4    4    0    0  0.32024792925E+01  0.24923928011E+02 -0.14592343878E+03  0.14807129379E+03  0.00000000000E+00 0. -1.
</event>
<event>
 8    1  0.5951278E-006  0.1128320E+03  0.7561462E-02  0.1255414E+00
         -2   -1    0    0    0  501 -0.00000000000E+00  0.00000000000E+00  0.12332558779E+03  0.12332558779E+03  0.00000000000E+00 0.  1.
          2   -1    0    0  501    0  0.00000000000E+00 -0.00000000000E+00 -0.22847076739E+03  0.22847076739E+03  0.00000000000E+00 0. -1.
         23    2    1    2    0    0 -0.16544988154E+02 -0.65809726429E+02  0.57891269315E+02  0.15363374936E+03  0.12508906089E+03 0.  0.
         23    2    1    2    0    0  0.16544988154E+02  0.65809726429E+02 -0.16303644891E+03  0.19816260582E+03  0.89904827161E+02 0.  0.
          5    1    3    3  502    0 -0.38354748878E+02 -0.84667365454E+02  0.75299171392E+02  0.11969581090E+03  0.41800000000E+01 0.  1.
         -5    1    3    3    0  502  0.21809760724E+02  0.18857639025E+02 -0.17407902077E+02  0.33937938464E+02  0.41800000000E+01 0.  1.
        -11    1    4    4    0    0 -0.22213140393E+02  0.60397539296E+02 -0.60158177185E+02  0.88092523186E+02  0.00000000000E+00 0.  1.
         11    1    4    4    0    0  0.38758128547E+02  0.54121871329E+01 -0.10287827172E+03  0.11007008263E+03  0.00000000000E+00 0. -1.
</event>
<event>
 8    1  0.5951278E-006  0.1005012E+03  0.7561462E-02  0.1279245E+00
         -2   -1    0    0    0  501 -0.00000000000E+00  0.00000000000E+00  0.51729378029E+02  0.51729378029E+02  0.00000000000E+00 0. -1.
          2   -1    0    0  501    0  0.00000000000E+00 -0.00000000000E+00 -0.32936577715E+03  0.32936577715E+03  0.00000000000E+00 0.  1.
         23    2    1    2    0    0 -0.59671235388E+02  0.12102834768E+02 -0.92986792857E+02  0.16733717964E+03  0.12509217842E+03 0.  0.
         23    2    1    2    0    0  0.59671235388E+02 -0.12102834768E+02 -0.18464960626E+03  0.21375797553E+03  0.88824884292E+02 0.  0.
          5    1    3    3  502    0 -0.40963969607E+01 -0.52830089856E+02 -0.41849528557E+02  0.67650974145E+02  0.41800000000E+01 0.  1.
         -5    1    3    3    0  502 -0.55574838428E+02  0.64932924625E+02 -0.51137264300E+02  0.99686205499E+02  0.41800000000E+01 0.  1.
        -11    1    4    4    0    0  0.39787172907E+02 -0.16662695638E+01 -0.18698673469E+03  0.19118011019E+03  0.00000000000E+00 0.  1.
         11    1    4    4    0    0  0.19884062481E+02 -0.10436565205E+02  0.23371284318E+01  0.22577865341E+02  0.00000000000E+00 0. -1.
</event>
<event>
 8    1  0.5951278E-006  0.1411918E+03  0.7561462E-02  0.1211734E+00
          2   -1    0    0  501    0  0.00000000000E+00  0.00000000000E+00  0.30553959161E+02  0.30553959161E+02  0.00000000000E+00 0. -1.
         -2   -1    0    0    0  501 -0.00000000000E+00 -0.00000000000E+00 -0.85453049003E+03  0.85453049003E+03  0.00000000000E+00 0.  1.
         23    2    1    2    0    0  0.93956189483E+02  0.57247678527E+02 -0.56969394417E+03  0.59355201157E+03  0.12509091967E+03 0.  0.
         23    2    1    2    0    0 -0.93956189483E+02 -0.57247678527E+02 -0.25428258670E+03  0.29153243762E+03  0.90699867940E+02 0.  0.
          5    1    3    3  502    0 -0.29033974672E+02  0.18959803668E+02 -0.82265782309E+02  0.89373246441E+02  0.41800000000E+01 0.  1.
         -5    1    3    3    0  502  0.12299016415E+03  0.38287874859E+02 -0.48742816186E+03  0.50417876513E+03  0.41800000000E+01 0.  1.
        -11    1    4    4    0    0 -0.33952872882E+02  0.23127104678E+01 -0.16539052818E+03  0.16885547968E+03  0.00000000000E+00 0.  1.
         11    1    4    4    0    0 -0.60003316600E+02 -0.59560388995E+02 -0.88892058525E+02  0.12267695794E+03  0.00000000000E+00 0. -1.
</event>
<event>
 8    1  0.5951278E-006  0.1186579E+03  0.7561462E-02  0.1245328E+00
          2   -1    0    0  501    0  0.00000000000E+00  0.00000000000E+00  0.42799822599E+03  0.42799822599E+03  0.00000000000E+00 0. -1.
         -2   -1    0    0    0  501 -0.00000000000E+00 -0.00000000000E+00 -0.52226352735E+02  0.52226352735E+02  0.00000000000E+00 0.  1.
         23    2    1    2    0    0 -0.84899444884E+02 -0.13979115692E+02  0.10943867208E+03  0.18715438579E+03  0.12508640917E+03 0.  0.
         23    2    1    2    0    0  0.84899444884E+02  0.13979115692E+02  0.26633320117E+03  0.29307019293E+03  0.86910485669E+02 0.  0.
          5    1    3    3  502    0 -0.86634587476E+02  0.12985832538E+02  0.15174876666E+02  0.89005240720E+02  0.41800000000E+01 0. -1.
         -5    1    3    3    0  502  0.17351425920E+01 -0.26964948230E+02  0.94263795415E+02  0.98149145074E+02  0.41800000000E+01 0. -1.
        -11    1    4    4    0    0  0.62799937962E+02 -0.32569609134E+02  0.15708051279E+03  0.17227564873E+03  0.00000000000E+00 0.  1.
         11    1    4    4    0    0  0.22099506922E+02  0.46548724826E+02  0.10925268838E+03  0.12079454419E+03  0.00000000000E+00 0. -1.
</event>
<event>
 8    1  0.5951278E-006  0.1389361E+03  0.7561462E-02  0.1214768E+00
         -1   -1    0    0    0  501 -0.00000000000E+00  0.00000000000E+00  0.10945171971E+03  0.10945171971E+03  0.00000000000E+00 0.  1.
          1   -1    0    0  501    0  0.00000000000E+00 -0.00000000000E+00 -0.23102401968E+03  0.23102401968E+03  0.00000000000E+00 0. -1.
         23    2    1    2    0    0  0.48097477462E+01 -0.85037792148E+02 -0.49733396153E+01  0.15182003561E+03  0.12557877742E+03 0.  0.
         23    2    1    2    0    0 -0.48097477462E+01  0.85037792148E+02 -0.11659896035E+03  0.18865570378E+03  0.12141292043E+03 0.  0.
          5    1    3    3  502    0  0.60841311739E+02 -0.54870292480E+02 -0.23633687652E+02  0.85372348000E+02  0.41800000000E+01 0. -1.
         -5    1    3    3    0  502 -0.56031563993E+02 -0.30167499668E+02  0.18660348037E+02  0.66447687609E+02  0.41800000000E+01 0.  1.
        -11    1    4    4    0    0 -0.42123720734E+02  0.33508821454E+01 -0.99565413034E+00  0.42268517679E+02  0.00000000000E+00 0.  1.
         11    1    4    4    0    0  0.37313972988E+02  0.81686910003E+02 -0.11560330622E+03  0.14638718610E+03  0.00000000000E+00 0. -1.
</event>
<event>
 8    1  0.5951278E-006  0.6714716E+02  0.7561462E-02  0.1370072E+00
          3   -1    0    0  501    0  0.00000000000E+00  0.00000000000E+00  0.54365697947E+03  0.54365697947E+03  0.00000000000E+00 0. -1.
         -3   -1    0    0    0  501 -0.00000000000E+00 -0.00000000000E+00 -0.25094666925E+02  0.25094666925E+02  0.00000000000E+00 0.  1.
         23    2    1    2    0    0  0.44015222067E+02 -0.31479047664E+00  0.27521022476E+03  0.30548831472E+03  0.12507998940E+03 0.  0.
         23    2    1    2    0    0 -0.44015222067E+02  0.31479047664E+00  0.24335208778E+03  0.26326333167E+03  0.90276820456E+02 0.  0.
          5    1    3    3  502    0  0.12341887362E+02  0.20748265489E+02  0.26466333302E+03  0.26579496788E+03  0.41800000000E+01 0. -1.
         -5    1    3    3    0  502  0.31673334705E+02 -0.21063055966E+02  0.10546891748E+02  0.39693346842E+02  0.41800000000E+01 0. -1.
        -11    1    4    4    0    0 -0.14857951340E+02 -0.27483084002E+02  0.21842913282E+02  0.38120748746E+02  0.00000000000E+00 0.  1.
         11    1    4    4    0    0 -0.29157270728E+02  0.27797874479E+02  0.22150917449E+03  0.22514258293E+03  0.00000000000E+00 0. -1.
</event>
<event>
 8    1  0.5951278E-006  0.6675296E+02  0.7561462E-02  0.1371496E+00
          2   -1    0    0  501    0  0.00000000000E+00  0.00000000000E+00  0.96980692569E+02  0.96980692569E+02  0.00000000000E+00 0. -1.
         -2   -1    0    0    0  501 -0.00000000000E+00 -0.00000000000E+00 -0.12556316571E+03  0.12556316571E+03  0.00000000000E+00 0.  1.
         23    2    1    2    0    0  0.71576421169E+00  0.12748223232E+02 -0.34954541791E+02  0.13050601052E+03  0.12508784624E+03 0.  0.
         23    2    1    2    0    0 -0.71576421169E+00 -0.12748223232E+02  0.63720686468E+01  0.92037847760E+02  0.90924873646E+02 0.  0.
          5    1    3    3  502    0 -0.19075532861E+02  0.35298289191E+02  0.35549934257E+02  0.53769093348E+02  0.41800000000E+01 0.  1.
         -5    1    3    3    0  502  0.19791297073E+02 -0.22550065959E+02 -0.70504476049E+02  0.76736917174E+02  0.41800000000E+01 0.  1.
        -11    1    4    4    0    0 -0.11753216013E+02 -0.35602742482E+02 -0.29770138295E+02  0.47874361541E+02  0.00000000000E+00 0.  1.
         11    1    4    4    0    0  0.11037451801E+02  0.22854519249E+02  0.36142206942E+02  0.44163486219E+02  0.00000000000E+00 0. -1.
</event>
<event>
 8    1  0.5951278E-006  0.1180781E+03  0.7561462E-02  0.1246302E+00
         -1   -1    0    0    0  501 -0.00000000000E+00  0.00000000000E+00  0.32212612821E+02  0.32212612821E+02  0.00000000000E+00 0.  1.
          1   -1    0    0  501    0  0.00000000000E+00 -0.00000000000E+00 -0.68421840311E+03  0.68421840311E+03  0.00000000000E+00 0. -1.
         23    2    1    2    0    0 -0.61931848462E+02 -0.24870365842E+02 -0.17071734455E+03  0.22191465907E+03  0.12509042821E+03 0.  0.
         23    2    1    2    0    0  0.61931848462E+02  0.24870365842E+02 -0.48128844574E+03  0.49451635686E+03  0.91944386721E+02 0.  0.
          5    1    3    3  502    0 -0.52364568553E+02  0.34622880999E+02 -0.14141732562E+03  0.15478089131E+03  0.41800000000E+01 0. -1.
         -5    1    3    3    0  502 -0.95672799092E+01 -0.59493246841E+02 -0.29300018926E+02  0.67133767759E+02  0.41800000000E+01 0. -1.
        -11    1    4    4    0    0  0.44245513086E+02  0.59385666318E+02 -0.34223090164E+03  0.35015184253E+03  0.00000000000E+00 0. -1.
         11    1    4    4    0    0  0.17686335376E+02 -0.34515300476E+02 -0.13905754411E+03  0.14436451433E+03  0.00000000000E+00 0.  1.
</event>
<event>
 8    1  0.5951278E-006  0.1201869E+03  0.7561462E-02  0.1242789E+00
         -3   -1    0    0    0  501 -0.00000000000E+00  0.00000000000E+00  0.22677709699E+03  0.22677709699E+03  0.00000000000E+00 0.  1.
          3   -1    0    0  501    0  0.00000000000E+00 -0.00000000000E+00 -0.94759753738E+02  0.94759753738E+02  0.00000000000E+00 0. -1.
         23    2    1    2    0    0  0.79007598381E+02 -0.29532665631E+02  0.13578171499E+03  0.20297333655E+03  0.12508845784E+03 0.  0.
         23    2    1    2    0    0 -0.79007598381E+02  0.29532665631E+02 -0.37643717299E+01  0.11856351418E+03  0.83239158210E+02 0.  0.
          5    1    3    3  502    0 -0.16254720742E+02  0.11724486766E+02  0.84811097367E+02  0.87247201519E+02  0.41800000000E+01 0.  1.
         -5    1    3    3    0  502  0.95262319123E+02 -0.41257152398E+02  0.50970617619E+02  0.11572613503E+03  0.41800000000E+01 0.  1.
        -11    1    4    4    0    0 -0.20173983659E+02 -0.27471939376E+02 -0.12219996393E+02  0.36208084478E+02  0.00000000000E+00 0. -1.
         11    1    4    4    0    0 -0.58833614722E+02  0.57004605007E+02  0.84556246627E+01  0.82355429704E+02  0.00000000000E+00 0.  1.
</event>
<event>
 8    1  0.5951278E-006  0.1796122E+03  0.7561462E-02  0.1168179E+00
          3   -1    0    0  501    0  0.00000000000E+00  0.00000000000E+00  0.32603154021E+03  0.32603154021E+03  0.00000000000E+00 0. -1.
         -3   -1    0    0    0  501 -0.00000000000E+00 -0.00000000000E+00 -0.10502497124E+03  0.10502497124E+03  0.00000000000E+00 0.  1.
         23    2    1    2    0    0 -0.78098736207E+02  0.12680156772E+03  0.14273700396E+03  0.24124575609E+03  0.12509041673E+03 0.  0.
         23    2    1    2    0    0  0.78098736207E+02 -0.12680156772E+03  0.78269565014E+02  0.18981075536E+03  0.87885993587E+02 0.  0.
          5    1    3    3  502    0 -0.10657486110E+03  0.11138405107E+03  0.14033156988E+03  0.20850666597E+03  0.41800000000E+01 0. -1.
         -5    1    3    3    0  502  0.28476124889E+02  0.15417516652E+02  0.24054340814E+01  0.32739090115E+02  0.41800000000E+01 0. -1.
        -11    1    4    4    0    0  0.87739004309E+02 -0.63447781928E+02  0.56499254455E+02  0.12213074823E+03  0.00000000000E+00 0. -1.
         11    1    4    4    0    0 -0.96402681018E+01 -0.63353785795E+02  0.21770310559E+02  0.67680007132E+02  0.00000000000E+00 0.  1.
</event>
<event>
 8    1  0.5951278E-006  0.9091948E+02  0.7561462E-02  0.1300640E+00
          1   -1    0    0  501    0  0.00000000000E+00  0.00000000000E+00  0.51161687103E+03  0.51161687103E+03  0.00000000000E+00 0. -1.
         -1   -1    0    0    0  501 -0.00000000000E+00 -0.00000000000E+00 -0.27928765631E+02  0.27928765631E+02  0.00000000000E+00 0.  1.
         23    2    1    2    0    0 -0.19362989743E+02 -0.37915863535E+02  0.20552156284E+03  0.24370092803E+03  0.12384866350E+03 0.  0.
         23    2    1    2    0    0  0.19362989743E+02  0.37915863535E+02  0.27816654256E+03  0.29584470864E+03  0.91295827652E+02 0.  0.
          5    1    3    3  502    0  0.11808172380E+01 -0.64619952023E+02  0.43163472836E+02  0.77831165455E+02  0.41800000000E+01 0. -1.
         -5    1    3    3    0  502 -0.20543806981E+02  0.26704088488E+02  0.16235809000E+03  0.16586976257E+03  0.41800000000E+01 0.  1.
        -11    1    4    4    0    0 -0.26369847348E+02  0.51612543017E+01  0.25681613421E+02  0.37169243509E+02  0.00000000000E+00 0.  1.
         11    1    4    4    0    0  0.45732837091E+02  0.32754609233E+02  0.25248492914E+03  0.25867546513E+03  0.00000000000E+00 0. -1.
</event>
<event>
 8    1  0.5951278E-006  0.1134254E+03  0.7561462E-02  0.1254355E+00
          1   -1    0    0  501    0  0.00000000000E+00  0.00000000000E+00  0.50499850280E+02  0.50499850280E+02  0.00000000000E+00 0. -1.
         -1   -1    0    0    0  501 -0.00000000000E+00 -0.00000000000E+00 -0.65724522200E+03  0.65724522200E+03  0.00000000000E+00 0.  1.
         23    2    1    2    0    0  0.75500647466E+02  0.13607649829E+02 -0.56184048507E+03  0.58068542593E+03  0.12508124290E+03 0.  0.
         23    2    1    2    0    0 -0.75500647466E+02 -0.13607649829E+02 -0.44904886649E+02  0.12705964635E+03  0.90786502209E+02 0.  0.
          5    1    3    3  502    0 -0.17538522390E+01 -0.45219627281E+02 -0.24835656173E+03  0.25248038506E+03  0.41800000000E+01 0.  1.
         -5    1    3    3    0  502  0.77254499705E+02  0.58827277110E+02 -0.31348392335E+03  0.32820504087E+03  0.41800000000E+01 0.  1.
        -11    1    4    4    0    0 -0.20642925810E+02  0.11776554812E+02 -0.60189020502E+02  0.64711172283E+02  0.00000000000E+00 0.  1.
         11    1    4    4    0    0 -0.54857721655E+02 -0.25384204640E+02  0.15284133854E+02  0.62348474064E+02  0.00000000000E+00 0. -1.
</event>
<event>
 8    1  0.5951278E-006  0.9444354E+02  0.7561462E-02  0.1292434E+00
          4   -1    0    0  501    0  0.00000000000E+00  0.00000000000E+00  0.33518452701E+03  0.33518452701E+03  0.00000000000E+00 0. -1.
         -4   -1    0    0    0  501 -0.00000000000E+00 -0.00000000000E+00 -0.38516200490E+02  0.38516200490E+02  0.00000000000E+00 0.  1.
         23    2    1    2    0    0  0.32684553208E+02  0.14320592880E+01  0.15267829329E+03  0.20007105536E+03  0.12508970836E+03 0.  0.
         23    2    1    2    0    0 -0.32684553208E+02 -0.14320592880E+01  0.14399003323E+03  0.17362967214E+03  0.91344417273E+02 0.  0.
          5    1    3    3  502    0  0.72314597469E+02 -0.25396126894E+02  0.11821280133E+03  0.14094716410E+03  0.41800000000E+01 0. -1.
         -5    1    3    3    0  502 -0.39630044262E+02  0.26828186182E+02  0.34465491962E+02  0.59123891264E+02  0.41800000000E+01 0. -1.
        -11    1    4    4    0    0  0.14936565050E+01  0.22382861689E+02 -0.13151448137E+01  0.22471161809E+02  0.00000000000E+00 0.  1.
         11    1    4    4    0    0 -0.34178209713E+02 -0.23814920977E+02  0.14530517804E+03  0.15115851034E+03  0.00000000000E+00 0. -1.
</event>
<event>
 8    1  0.5951278E-006  0.1564279E+03  0.7561462E-02  0.1192790E+00
         -3   -1    0    0    0  501 -0.00000000000E+00  0.00000000000E+00  0.92726506707E+03  0.92726506707E+03  0.00000000000E+00 0.  1.
          3   -1    0    0  501    0  0.00000000000E+00 -0.00000000000E+00 -0.35446470983E+02  0.35446470983E+02  0.00000000000E+00 0. -1.
         23    2    1    2    0    0  0.13478863823E+03  0.50473034990E+02  0.42707042833E+03  0.46770719483E+03  0.12508143380E+03 0.  0.
         23    2    1    2    0    0 -0.13478863823E+03 -0.50473034990E+02  0.46474816775E+03  0.49500434322E+03  0.91230127271E+02 0.  0.
          5    1    3    3  502    0  0.67462634205E+02 -0.20737008718E+02  0.78712670596E+02  0.10580353235E+03  0.41800000000E+01 0.  1.
         -5    1    3    3    0  502  0.67326004027E+02  0.71210043707E+02  0.34835775774E+03  0.36190366248E+03  0.41800000000E+01 0.  1.
        -11    1    4    4    0    0 -0.70279262037E+02 -0.29677019209E+02  0.11016182899E+03  0.13399824143E+03  0.00000000000E+00 0. -1.
         11    1    4    4    0    0 -0.64509376196E+02 -0.20796015781E+02  0.35458633876E+03  0.36100610179E+03  0.00000000000E+00 0.  1.
</event>
<event>
 8    1  0.5951278E-006  0.1047382E+03  0.7561462E-02  0.1270636E+00
         -1   -1    0    0    0  501 -0.00000000000E+00  0.00000000000E+00  0.29701790768E+02  0.29701790768E+02  0.00000000000E+00 0.  1.
          1   -1    0    0  501    0  0.00000000000E+00 -0.00000000000E+00 -0.63586822871E+03  0.63586822871E+03  0.00000000000E+00 0. -1.
         23    2    1    2    0    0 -0.49212569836E+02  0.34843787584E+02 -0.19157368374E+03  0.23660647526E+03  0.12508469640E+03 0.  0.
         23    2    1    2    0    0  0.49212569836E+02 -0.34843787584E+02 -0.41459275420E+03  0.42896354421E+03  0.92122765173E+02 0.  0.
          5    1    3    3  502    0  0.13361190635E+02  0.35583979493E+02 -0.35556441364E+01  0.38403854194E+02  0.41800000000E+01 0. -1.
         -5    1    3    3    0  502 -0.62573760471E+02 -0.74019190866E+00 -0.18801803960E+03  0.19820262107E+03  0.41800000000E+01 0. -1.
        -11    1    4    4    0    0 -0.90410337072E+01  0.24043718682E+02 -0.70279438286E+02  0.74826734155E+02  0.00000000000E+00 0.  1.
         11    1    4    4    0    0  0.58253603543E+02 -0.58887506266E+02 -0.34431331592E+03  0.35413681006E+03  0.00000000000E+00 0. -1.
</event>
<event>
 8    1  0.5951278E-006  0.9498519E+02  0.7561462E-02  0.1291209E+00
          1   -1    0    0  501    0  0.00000000000E+00  0.00000000000E+00  0.17562179713E+02  0.17562179713E+02  0.00000000000E+00 0. -1.
         -1   -1    0    0    0  501 -0.00000000000E+00 -0.00000000000E+00 -0.72214267927E+03  0.72214267927E+03  0.00000000000E+00 0.  1.
         23    2    1    2    0    0 -0.43294030289E+02 -0.20158629955E+02 -0.39473881413E+03  0.41319240302E+03  0.11237654166E+03 0.  0.
         23    2    1    2    0    0  0.43294030289E+02  0.20158629955E+02 -0.30984168543E+03  0.32651245596E+03  0.91256618651E+02 0.  0.
          5    1    3    3  502    0 -0.44171799711E+02  0.34621672538E+02 -0.28456833758E+03  0.29008002215E+03  0.41800000000E+01 0. -1.
         -5    1    3    3    0  502  0.87776942181E+00 -0.54780302493E+02 -0.11017047655E+03  0.12311238087E+03  0.41800000000E+01 0.  1.
        -11    1    4    4    0    0 -0.16060002488E+02 -0.40806199494E-02 -0.74715074355E+01  0.17712908285E+02  0.00000000000E+00 0. -1.
         11    1    4    4    0    0  0.59354032777E+02  0.20162710575E+02 -0.30237017799E+03  0.30879954768E+03  0.00000000000E+00 0.  1.
</event>
<event>
 8    1  0.5951278E-006  0.2314516E+03  0.7561462E-02  0.1125622E+00
         -2   -1    0    0    0  501 -0.00000000000E+00  0.00000000000E+00  0.15031736909E+03  0.15031736909E+03  0.00000000000E+00 0.  1.
          2   -1    0    0  501    0  0.00000000000E+00 -0.00000000000E+00 -0.51207956276E+03  0.51207956276E+03  0.00000000000E+00 0. -1.
         23    2    1    2    0    0  0.21741239099E+03 -0.56124536806E+02 -0.40392862142E+02  0.26018697669E+03  0.12509023998E+03 0.  0.
         23    2    1    2    0    0 -0.21741239099E+03  0.56124536806E+02 -0.32136933153E+03  0.40220995516E+03  0.89869290578E+02 0.  0.
          5    1    3    3  502    0  0.19764802817E+03 -0.73359319037E+02 -0.68314511657E+02  0.22165441036E+03  0.41800000000E+01 0.  1.
         -5    1    3    3    0  502  0.19764362820E+02  0.17234782231E+02  0.27921649515E+02  0.38532566329E+02  0.41800000000E+01 0.  1.
        -11    1    4    4    0    0 -0.19648913503E+03  0.56851481280E+02 -0.32175630844E+03  0.38127049863E+03  0.00000000000E+00 0. -1.
         11    1    4    4    0    0 -0.20923255964E+02 -0.72694447332E+00  0.38697690573E+00  0.20939456524E+02  0.00000000000E+00 0.  1.
</event>
<event>
 8    1  0.5951278E-006  0.1149830E+03  0.7561462E-02  0.1251611E+00
         -2   -1    0    0    0  501 -0.00000000000E+00  0.00000000000E+00  0.14461242029E+03  0.14461242029E+03  0.00000000000E+00 0.  1.
          2   -1    0    0  501    0  0.00000000000E+00 -0.00000000000E+00 -0.10820012205E+03  0.10820012205E+03  0.00000000000E+00 0. -1.
         23    2    1    2    0    0  0.46277332346E+02  0.26049687244E+02  0.53345923912E+02  0.14599482337E+03  0.12509405725E+03 0.  0.
         23    2    1    2    0    0 -0.46277332346E+02 -0.26049687244E+02 -0.16933625672E+02  0.10681771898E+03  0.91121346100E+02 0.  0.
          5    1    3    3  502    0  0.71346583024E+02  0.60037430293E+02  0.39503325809E+02  0.10135488688E+03  0.41800000000E+01 0.  1.
         -5    1    3    3    0  502 -0.25069250678E+02 -0.33987743050E+02  0.13842598103E+02  0.44639936485E+02  0.41800000000E+01 0.  1.
        -11    1    4    4    0    0 -0.32773520127E+02 -0.53987493034E+02  0.12120055637E+02  0.64309010055E+02  0.00000000000E+00 0.  1.
         11    1    4    4    0    0 -0.13503812219E+02  0.27937805790E+02 -0.29053681310E+02  0.42508708925E+02  0.00000000000E+00 0. -1.
</event>
<event>
 7    1  0.5951278E-006  0.1396854E+03  0.7561462E-02  0.1213753E+00
          2   -1    0    0  501    0  0.00000000000E+00  0.00000000000E+00  0.44689678031E+03  0.44689678031E+03  0.00000000000E+00 0. -1.
         -2   -1    0    0    0  501 -0.00000000000E+00 -0.00000000000E+00 -0.76261541773E+02  0.76261541773E+02  0.00000000000E+00 0.  1.
         23    2    1    2    0    0 -0.49488813288E+02  0.34074631812E+02  0.33524191542E+03  0.35476167692E+03  0.99289890646E+02 0.  0.
          5    1    1    2  502    0  0.43310903546E+02 -0.93734671265E+02  0.31973816125E+02  0.10817495219E+03  0.41800000000E+01 0. -1.
         -5    1    1    2    0  502  0.61779097422E+01  0.59660039452E+02  0.34195069880E+01  0.60221692971E+02  0.41800000000E+01 0.  1.
        -11    1    3    3    0    0 -0.88598931835E+01 -0.34816000674E+02  0.95729916356E+02  0.10224905132E+03  0.00000000000E+00 0.  1.
         11    1    3    3    0    0 -0.40628920105E+02  0.68890632487E+02  0.23951199906E+03  0.25251262560E+03  0.00000000000E+00 0. -1.
</event>
<event>
 8    1  0.5951278E-006  0.9991603E+02  0.7561462E-02  0.1280473E+00
          2   -1    0    0  501    0  0.00000000000E+00  0.00000000000E+00  0.14760767497E+03  0.14760767497E+03  0.00000000000E+00 0. -1.
         -2   -1    0    0    0  501 -0.00000000000E+00 -0.00000000000E+00 -0.10570934125E+03  0.10570934125E+03  0.00000000000E+00 0.  1.
         23    2    1    2    0    0 -0.35213829880E+02  0.51489218086E+02  0.20329603172E+02  0.14124871671E+03  0.12508698499E+03 0.  0.
         23    2    1    2    0    0  0.35213829880E+02 -0.51489218086E+02  0.21568730548E+02  0.11206829951E+03  0.90570084598E+02 0.  0.
          5    1    3    3  502    0  0.22706402953E+02  0.48370262862E+00  0.52635420062E+02  0.57478470303E+02  0.41800000000E+01 0. -1.
         -5    1    3    3    0  502 -0.57920232833E+02  0.51005515458E+02 -0.32305816890E+02  0.83770246409E+02  0.41800000000E+01 0. -1.
        -11    1    4    4    0    0  0.18785174713E+02 -0.71287990305E+02 -0.64821419664E+01  0.74005935675E+02  0.00000000000E+00 0.  1.
         11    1    4    4    0    0  0.16428655168E+02  0.19798772219E+02  0.28050872514E+02  0.38062363836E+02  0.00000000000E+00 0. -1.
</event>
<event>
 8    1  0.5951278E-006  0.3548928E+03  0.7561462E-02  0.1060625E+00
          2   -1    0    0  501    0  0.00000000000E+00  0.00000000000E+00  0.47738367537E+03  0.47738367537E+03  0.00000000000E+00 0. -1.
         -2   -1    0    0    0  501 -0.00000000000E+00 -0.00000000000E+00 -0.46344712435E+03  0.46344712435E+03  0.00000000000E+00 0.  1.
         23    2    1    2    0    0 -0.28986399246E+03 -0.18240628066E+03 -0.29618984008E+03  0.46975437235E+03  0.12509022196E+03 0.  0.
         23    2    1    2    0    0  0.28986399246E+03  0.18240628066E+03  0.31012639111E+03  0.47107642737E+03  0.91877291038E+02 0.  0.
          5    1    3    3  502    0 -0.10587964126E+03 -0.20531575914E+01 -0.10210230169E+03  0.14716340000E+03  0.41800000000E+01 0. -1.
         -5    1    3    3    0  502 -0.18398435121E+03 -0.18035312306E+03 -0.19408753839E+03  0.32259097236E+03  0.41800000000E+01 0. -1.
        -11    1    4    4    0    0  0.25908100717E+03  0.17955033025E+03  0.30698637852E+03  0.44000218859E+03  0.00000000000E+00 0.  1.
         11    1    4    4    0    0  0.30782985291E+02  0.28559504020E+01  0.31400125882E+01  0.31074238771E+02  0.00000000000E+00 0. -1.
</event>
<event>
 8    1  0.5951278E-006  0.1126889E+03  0.7561462E-02  0.1255670E+00
         -2   -1    0    0    0  501 -0.00000000000E+00  0.00000000000E+00  0.23044962796E+02  0.23044962796E+02  0.00000000000E+00 0. -1.
          2   -1    0    0  501    0  0.00000000000E+00 -0.00000000000E+00 -0.61528222010E+03  0.61528222010E+03  0.00000000000E+00 0.  1.
         23    2    1    2    0    0  0.19880760336E+02 -0.42348228489E+02 -0.35444230082E+03  0.37877060633E+03  0.12509680460E+03 0.  0.
         23    2    1    2    0    0 -0.19880760336E+02  0.42348228489E+02 -0.23779495648E+03  0.25955657656E+03  0.92922322517E+02 0.  0.
          5    1    3    3  502    0  0.66433439366E+02 -0.32086160372E+02 -0.28509050913E+03  0.29451145028E+03  0.41800000000E+01 0. -1.
         -5    1    3    3    0  502 -0.46552679029E+02 -0.10262068117E+02 -0.69351791697E+02  0.84259156051E+02  0.41800000000E+01 0. -1.
        -11    1    4    4    0    0  0.34315706631E+02 -0.84652044644E+00 -0.68312278944E+02  0.76451630283E+02  0.00000000000E+00 0.  1.
         11    1    4    4    0    0 -0.54196466967E+02  0.43194748935E+02 -0.16948267754E+03  0.18310494628E+03  0.00000000000E+00 0. -1.
</event>
<event>
 8    1  0.5951278E-006  0.1333949E+03  0.7561462E-02  0.1222503E+00
          1   -1    0    0  501    0  0.00000000000E+00  0.00000000000E+00  0.10441198486E+03  0.10441198486E+03  0.00000000000E+00 0. -1.
         -1   -1    0    0    0  501 -0.00000000000E+00 -0.00000000000E+00 -0.21486085751E+03  0.21486085751E+03  0.00000000000E+00 0.  1.
         23    2    1    2    0    0  0.35671851521E+02  0.74392300129E+02 -0.12983951768E+03  0.19827290314E+03  0.12508856246E+03 0.  0.
         23    2    1    2    0    0 -0.35671851521E+02 -0.74392300129E+02  0.19390645021E+02  0.12099993923E+03  0.86361408456E+02 0.  0.
          5    1    3    3  502    0  0.14286901590E+02  0.10714307019E+03 -0.78786287424E+02  0.13382266076E+03  0.41800000000E+01 0. -1.
         -5    1    3    3    0  502  0.21384949931E+02 -0.32750770061E+02 -0.51053230255E+02  0.64450242378E+02  0.41800000000E+01 0. -1.
        -11    1    4    4    0    0  0.53872211611E+01  0.17672303051E+02  0.78503995034E+00  0.18491855901E+02  0.00000000000E+00 0.  1.
         11    1    4    4    0    0 -0.41059072683E+02 -0.92064603180E+02  0.18605605070E+02  0.10250808333E+03  0.00000000000E+00 0. -1.
</event>
<event>
 8    1  0.5951278E-006  0.1176178E+03  0.7561462E-02  0.1247079E+00
         -1   -1    0    0    0  501 -0.00000000000E+00  0.00000000000E+00  0.77702254362E+02  0.77702254362E+02  0.00000000000E+00 0.  1.
          1   -1    0    0  501    0  0.00000000000E+00 -0.00000000000E+00 -0.19338387872E+03  0.19338387872E+03  0.00000000000E+00 0. -1.
         23    2    1    2    0    0 -0.37933657561E+02 -0.41254048393E+02 -0.50175587388E+02  0.14597130389E+03  0.12509665505E+03 0.  0.
         23    2    1    2    0    0  0.37933657561E+02  0.41254048393E+02 -0.65506036974E+02  0.12511482919E+03  0.90674256100E+02 0.  0.
          5    1    3    3  502    0 -0.62827442440E+02  0.16945947723E+02 -0.19109490006E+00  0.65207066987E+02  0.41800000000E+01 0.  1.
         -5    1    3    3    0  502  0.24893784879E+02 -0.58199996117E+02 -0.49984492488E+02  0.80764236905E+02  0.41800000000E+01 0.  1.
        -11    1    4    4    0    0 -0.16636526402E+02  0.48747577746E+02 -0.32280237908E+02  0.60787450237E+02  0.00000000000E+00 0. -1.
         11    1    4    4    0    0  0.54570183963E+02 -0.74935293528E+01 -0.33225799066E+02  0.64327378957E+02  0.00000000000E+00 0.  1.
</event>
<event>
 8    1  0.5951278E-006  0.1683866E+03  0.7561462E-02  0.1179541E+00
          1   -1    0    0  501    0  0.00000000000E+00  0.00000000000E+00  0.18988629372E+03  0.18988629372E+03  0.00000000000E+00 0. -1.
         -1   -1    0    0    0  501 -0.00000000000E+00 -0.00000000000E+00 -0.23877979191E+03  0.23877979191E+03  0.00000000000E+00 0.  1.
         23    2    1    2    0    0  0.11120206707E+03 -0.10672765761E+03 -0.12225116260E+03  0.23311943490E+03  0.12507050632E+03 0.  0.
         23    2    1    2    0    0 -0.11120206707E+03  0.10672765761E+03  0.73357664400E+02  0.19554665073E+03  0.95396294813E+02 0.  0.
          5    1    3    3  502    0  0.19463467592E+02 -0.29209783944E+02  0.24820129460E+02  0.43192004761E+02  0.41800000000E+01 0.  1.
         -5    1    3    3    0  502  0.91738599482E+02 -0.77517873668E+02 -0.14707129206E+03  0.18992743014E+03  0.41800000000E+01 0.  1.
        -11    1    4    4    0    0 -0.86758535954E+02  0.17204867164E+02  0.37157147813E+02  0.95935940339E+02  0.00000000000E+00 0.  1.
         11    1    4    4    0    0 -0.24443531121E+02  0.89522790449E+02  0.36200516587E+02  0.99610710391E+02  0.00000000000E+00 0. -1.
</event>
<event>
 8    1  0.5951278E-006  0.1521706E+03  0.7561462E-02  0.1197831E+00
         -2   -1    0    0    0  501 -0.00000000000E+00  0.00000000000E+00  0.59551931529E+02  0.59551931529E+02  0.00000000000E+00 0.  1.
          2   -1    0    0  501    0  0.00000000000E+00 -0.00000000000E+00 -0.40293315307E+03  0.40293315307E+03  0.00000000000E+00 0. -1.
         23    2    1    2    0    0  0.12626709872E+02  0.11232689751E+03 -0.14782292296E+03  0.21855923988E+03  0.11462878817E+03 0.  0.
         23    2    1    2    0    0 -0.12626709872E+02 -0.11232689751E+03 -0.19555829859E+03  0.24392584472E+03  0.92086936475E+02 0.  0.
          5    1    3    3  502    0  0.57315559727E+02  0.95963527602E+02 -0.90093410591E+02  0.14362578824E+03  0.41800000000E+01 0. -1.
         -5    1    3    3    0  502 -0.44688849855E+02  0.16363369912E+02 -0.57729512365E+02  0.74933451637E+02  0.41800000000E+01 0.  1.
        -11    1    4    4    0    0  0.11558629565E+02 -0.11905028008E+03 -0.14938341043E+03  0.19136868713E+03  0.00000000000E+00 0. -1.
         11    1    4    4    0    0 -0.24185339437E+02  0.67233825691E+01 -0.46174888161E+02  0.52557157586E+02  0.00000000000E+00 0.  1.
</event>
<event>
 8    1  0.5951278E-006  0.7565401E+02  0.7561462E-02  0.1341858E+00
         -2   -1    0    0    0  501 -0.00000000000E+00  0.00000000000E+00  0.41420243233E+02  0.41420243233E+02  0.00000000000E+00 0.  1.
          2   -1    0    0  501    0  0.00000000000E+00 -0.00000000000E+00 -0.39380329560E+03  0.39380329560E+03  0.00000000000E+00 0. -1.
         23    2    1    2    0    0  0.52451613437E+02 -0.21585300443E+01 -0.11874627397E+03  0.18028642801E+03  0.12508672007E+03 0.  0.
         23    2    1    2    0    0 -0.52451613437E+02  0.21585300443E+01 -0.23363677840E+03  0.25493711083E+03  0.87469739068E+02 0.  0.
          5    1    3    3  502    0  0.68930828995E+02 -0.64818163439E+01 -0.99334764316E+01  0.70068676904E+02  0.41800000000E+01 0.  1.
         -5    1    3    3    0  502 -0.16479215559E+02  0.43232862996E+01 -0.10881279754E+03  0.11021775110E+03  0.41800000000E+01 0.  1.
        -11    1    4    4    0    0 -0.52700162481E+02  0.12417132427E+02 -0.23778313533E+03  0.24386945637E+03  0.00000000000E+00 0. -1.
         11    1    4    4    0    0  0.24854904482E+00 -0.10258602383E+02  0.41463569281E+01  0.11067654460E+02  0.00000000000E+00 0.  1.
</event>
<event>
 8    1  0.5951278E-006  0.5976118E+02  0.7561462E-02  0.1398837E+00
          2   -1    0    0  501    0  0.00000000000E+00  0.00000000000E+00  0.46826284060E+02  0.46826284060E+02  0.00000000000E+00 0. -1.
         -2   -1    0    0    0  501 -0.00000000000E+00 -0.00000000000E+00 -0.23702677004E+03  0.23702677004E+03  0.00000000000E+00 0.  1.
         23    2    1    2    0    0  0.20186142356E+02  0.30063786954E+02 -0.14558219605E+03  0.19531890858E+03  0.12507593138E+03 0.  0.
         23    2    1    2    0    0 -0.20186142356E+02 -0.30063786954E+02 -0.44618289933E+02  0.88534145527E+02  0.67351254617E+02 0.  0.
          5    1    3    3  502    0  0.40091512819E+02  0.20217709045E+02  0.28419121121E+01  0.45184444486E+02  0.41800000000E+01 0. -1.
         -5    1    3    3    0  502 -0.19905370463E+02  0.98460779090E+01 -0.14842410816E+03  0.15013446409E+03  0.41800000000E+01 0. -1.
        -11    1    4    4    0    0  0.91316060379E+01 -0.17888887072E+02  0.12163522166E+02  0.23480838592E+02  0.00000000000E+00 0. -1.
         11    1    4    4    0    0 -0.29317748394E+02 -0.12174899882E+02 -0.56781812099E+02  0.65053306935E+02  0.00000000000E+00 0.  1.
</event>
<event>
 8    1  0.5951278E-006  0.2535051E+03  0.7561462E-02  0.1111110E+00
         -2   -1    0    0    0  501 -0.00000000000E+00  0.00000000000E+00  0.94463819201E+02  0.94463819201E+02  0.00000000000E+00 0.  1.
          2   -1    0    0  501    0  0.00000000000E+00 -0.00000000000E+00 -0.11506218210E+04  0.11506218210E+04  0.00000000000E+00 0. -1.
         23    2    1    2    0    0 -0.24786398190E+03  0.30328852675E+02 -0.18728363429E+03  0.33627377610E+03  0.12509396464E+03 0.  0.
         23    2    1    2    0    0  0.24786398190E+03 -0.30328852675E+02 -0.86887436753E+03  0.90881186413E+03  0.92951304439E+02 0.  0.
          5    1    3    3  502    0 -0.16639645032E+03  0.73430081485E+01 -0.48269938645E+02  0.17346226628E+03  0.41800000000E+01 0.  1.
         -5    1    3    3    0  502 -0.81467531582E+02  0.22985844527E+02 -0.13901369565E+03  0.16281150982E+03  0.41800000000E+01 0.  1.
        -11    1    4    4    0    0  0.17604434151E+03  0.39028319824E+01 -0.70481915671E+03  0.72648254346E+03  0.00000000000E+00 0. -1.
         11    1    4    4    0    0  0.71819640386E+02 -0.34231684658E+02 -0.16405521082E+03  0.18232932067E+03  0.00000000000E+00 0.  1.
</event>
<event>
 8    1  0.5951278E-006  0.1016319E+03  0.7561462E-02  0.1276901E+00
         -3   -1    0    0    0  501 -0.00000000000E+00  0.00000000000E+00  0.35926988658E+02  0.35926988658E+02  0.00000000000E+00 0.  1.
          3   -1    0    0  501    0  0.00000000000E+00 -0.00000000000E+00 -0.52019587432E+03  0.52019587432E+03  0.00000000000E+00 0. -1.
         23    2    1    2    0    0 -0.31472375470E+01  0.50794765619E+02 -0.12842016868E+03  0.18635876698E+03  0.12509131461E+03 0.  0.
         23    2    1    2    0    0  0.31472375470E+01 -0.50794765619E+02 -0.35584871699E+03  0.36976409600E+03  0.86643891809E+02 0.  0.
          5    1    3    3  502    0 -0.33798465591E+01 -0.33696290607E+02 -0.19160429797E+01  0.34176117160E+02  0.41800000000E+01 0. -1.
         -5    1    3    3    0  502  0.23260901210E+00  0.84491056226E+02 -0.12650412570E+03  0.15218264982E+03  0.41800000000E+01 0. -1.
        -11    1    4    4    0    0 -0.25950538408E+02 -0.48934397415E+02 -0.31345669600E+03  0.31831290574E+03  0.00000000000E+00 0. -1.
         11    1    4    4    0    0  0.29097775955E+02 -0.18603682048E+01 -0.42392020992E+02  0.51451190260E+02  0.00000000000E+00 0.  1.
</event>
<event>
 8    1  0.5951278E-006  0.5272498E+02  0.7561462E-02  0.1431174E+00
          2   -1    0    0  501    0  0.00000000000E+00  0.00000000000E+00  0.17790511366E+03  0.17790511366E+03  0.00000000000E+00 0. -1.
         -2   -1    0    0    0  501 -0.00000000000E+00 -0.00000000000E+00 -0.69723700581E+02  0.69723700581E+02  0.00000000000E+00 0.  1.
         23    2    1    2    0    0 -0.44583787788E+01  0.30732740281E+02  0.59257789288E+02  0.14185833614E+03  0.12509166030E+03 0.  0.
         23    2    1    2    0    0  0.44583787788E+01 -0.30732740281E+02  0.48923623793E+02  0.10577047810E+03  0.88484431431E+02 0.  0.
          5    1    3    3  502    0  0.18783801881E+02  0.17236541066E+02 -0.35143159908E+02  0.43617011009E+02  0.41800000000E+01 0. -1.
         -5    1    3    3    0  502 -0.23242180659E+02  0.13496199215E+02  0.94400949197E+02  0.98241325135E+02  0.41800000000E+01 0. -1.
        -11    1    4    4    0    0  0.18050451722E+02  0.81105504826E+00 -0.21098331355E+02  0.27777980553E+02  0.00000000000E+00 0.  1.
         11    1    4    4    0    0 -0.13592072943E+02 -0.31543795329E+02  0.70021955148E+02  0.77992497545E+02  0.00000000000E+00 0. -1.
</event>
<event>
 8    1  0.5951278E-006  0.1686260E+03  0.7561462E-02  0.1179288E+00
          2   -1    0    0  501    0  0.00000000000E+00  0.00000000000E+00  0.83606673769E+03  0.83606673769E+03  0.00000000000E+00 0. -1.
         -2   -1    0    0    0  501 -0.00000000000E+00 -0.00000000000E+00 -0.63470810041E+02  0.63470810041E+02  0.00000000000E+00 0.  1.
         23    2    1    2    0    0 -0.98183731254E+02 -0.12768006646E+03  0.15745266159E+03  0.25764704082E+03  0.12509361512E+03 0.  0.
         23    2    1    2    0    0  0.98183731254E+02  0.12768006646E+03  0.61514326606E+03  0.64189050692E+03  0.87635270524E+02 0.  0.
          5    1    3    3  502    0 -0.61533200439E+02 -0.10479790799E+03  0.33229688174E+02  0.12605800590E+03  0.41800000000E+01 0.  1.
         -5    1    3    3    0  502 -0.36650530815E+02 -0.22882158476E+02  0.12422297342E+03  0.13158903492E+03  0.41800000000E+01 0.  1.
        -11    1    4    4    0    0  0.66188911938E+02  0.36440860096E+02  0.16494676777E+03  0.18142862108E+03  0.00000000000E+00 0. -1.
         11    1    4    4    0    0  0.31994819315E+02  0.91239206367E+02  0.45019649828E+03  0.46046188584E+03  0.00000000000E+00 0.  1.
</event>
<event>
 8    1  0.5951278E-006  0.1043719E+03  0.7561462E-02  0.1271362E+00
          3   -1    0    0  501    0  0.00000000000E+00  0.00000000000E+00  0.18950923461E+03  0.18950923461E+03  0.00000000000E+00 0. -1.
         -3   -1    0    0    0  501 -0.00000000000E+00 -0.00000000000E+00 -0.74935949035E+02  0.74935949035E+02  0.00000000000E+00 0.  1.
         23    2    1    2    0    0  0.27598688036E+02 -0.28256281210E+02  0.38363782753E+02  0.13663234262E+03  0.12504604037E+03 0.  0.
         23    2    1    2    0    0 -0.27598688036E+02  0.28256281210E+02  0.76209502825E+02  0.12781284103E+03  0.94700205930E+02 0.  0.
          5    1    3    3  502    0  0.28781538611E+02  0.38412950815E+02  0.49298389873E+02  0.68932832520E+02  0.41800000000E+01 0. -1.
         -5    1    3    3    0  502 -0.11828505751E+01 -0.66669232025E+02 -0.10934607120E+02  0.67699510096E+02  0.41800000000E+01 0. -1.
        -11    1    4    4    0    0 -0.57884856565E+02  0.25776257634E+02  0.73887511137E+02  0.97336716501E+02  0.00000000000E+00 0. -1.
         11    1    4    4    0    0  0.30286168529E+02  0.24800235766E+01  0.23219916882E+01  0.30476124533E+02  0.00000000000E+00 0.  1.
</event>
<event>
 8    1  0.5951278E-006  0.1062394E+03  0.7561462E-02  0.1267697E+00
         -1   -1    0    0    0  501 -0.00000000000E+00  0.00000000000E+00  0.49403112025E+02  0.49403112025E+02  0.00000000000E+00 0. -1.
          1   -1    0    0  501    0  0.00000000000E+00 -0.00000000000E+00 -0.45127270219E+03  0.45127270219E+03  0.00000000000E+00 0.  1.
         23    2    1    2    0    0  0.71507742341E+02  0.48304731360E+02 -0.12792305162E+03  0.19863706860E+03  0.12508266706E+03 0.  0.
         23    2    1    2    0    0 -0.71507742341E+02 -0.48304731360E+02 -0.27394653855E+03  0.30203874562E+03  0.93455837622E+02 0.  0.
          5    1    3    3  502    0  0.38506082634E+02  0.31191854743E+02  0.14163779555E+02  0.51708173951E+02  0.41800000000E+01 0. -1.
         -5    1    3    3    0  502  0.33001659707E+02  0.17112876617E+02 -0.14208683117E+03  0.14692889464E+03  0.41800000000E+01 0. -1.
        -11    1    4    4    0    0  0.12717096402E+02 -0.38499762796E+02 -0.65874970653E+02  0.77352879938E+02  0.00000000000E+00 0. -1.
         11    1    4    4    0    0 -0.84224838743E+02 -0.98049685643E+01 -0.20807156790E+03  0.22468586568E+03  0.00000000000E+00 0.  1.
</event>
<event>
 8    1  0.5951278E-006  0.1155926E+03  0.7561462E-02  0.1250550E+00
          1   -1    0    0  501    0  0.00000000000E+00  0.00000000000E+00  0.44291562339E+03  0.44291562339E+03  0.00000000000E+00 0. -1.
         -1   -1    0    0    0  501 -0.00000000000E+00 -0.00000000000E+00 -0.66002836023E+02  0.66002836023E+02  0.00000000000E+00 0.  1.
         23    2    1    2    0    0  0.70181849231E+01 -0.11059057704E+03  0.95122207946E+02  0.19228960769E+03  0.12509008006E+03 0.  0.
         23    2    1    2    0    0 -0.70181849231E+01  0.11059057704E+03  0.28179057942E+03  0.31662885172E+03  0.92565481931E+02 0.  0.
          5    1    3    3  502    0  0.68930823609E+01 -0.45977574359E+02 -0.27100647083E+02  0.53975637104E+02  0.41800000000E+01 0.  1.
         -5    1    3    3    0  502  0.12510256222E+00 -0.64613002685E+02  0.12222285503E+03  0.13831397058E+03  0.41800000000E+01 0.  1.
        -11    1    4    4    0    0 -0.17775398355E+02  0.14150936396E+02  0.49216137091E+01  0.23247280896E+02  0.00000000000E+00 0. -1.
         11    1    4    4    0    0  0.10757213432E+02  0.96439640648E+02  0.27686896571E+03  0.29338157083E+03  0.00000000000E+00 0.  1.
</event>
<event>
 8    1  0.5951278E-006  0.1255989E+03  0.7561462E-02  0.1234136E+00
          1   -1    0    0  501    0  0.00000000000E+00  0.00000000000E+00  0.11553345609E+04  0.11553345609E+04  0.00000000000E+00 0. -1.
         -1   -1    0    0    0  501 -0.00000000000E+00 -0.00000000000E+00 -0.16078037241E+02  0.16078037241E+02  0.00000000000E+00 0.  1.
         23    2    1    2    0    0  0.21894253375E+02  0.78751795530E+02  0.60193130429E+03  0.62020165977E+03  0.12509036761E+03 0.  0.
         23    2    1    2    0    0 -0.21894253375E+02 -0.78751795530E+02  0.53732521932E+03  0.55121093832E+03  0.91836286819E+02 0.  0.
          5    1    3    3  502    0 -0.48727016567E+02  0.37097339908E+02  0.17512965065E+03  0.18557586510E+03  0.41800000000E+01 0. -1.
         -5    1    3    3    0  502  0.70621269942E+02  0.41654455622E+02  0.42680165364E+03  0.43462579467E+03  0.41800000000E+01 0. -1.
        -11    1    4    4    0    0 -0.11562288264E+02  0.11833199728E+02  0.20201219885E+02  0.26111308097E+02  0.00000000000E+00 0.  1.
         11    1    4    4    0    0 -0.10331965112E+02 -0.90584995258E+02  0.51712399944E+03  0.52509963023E+03  0.00000000000E+00 0. -1.
</event>
<event>
 7    1  0.6339645E-006  0.6499292E+02  0.7561462E-02  0.1377998E+00
          2   -1    0    0  501    0  0.00000000000E+00  0.00000000000E+00  0.62590730480E+02  0.62590730480E+02  0.00000000000E+00 0. -1.
         -2   -1    0    0    0  501 -0.00000000000E+00 -0.00000000000E+00 -0.81542980614E+02  0.81542980614E+02  0.00000000000E+00 0.  1.
         23    2    1    2    0    0 -0.13980538130E+02 -0.14525072793E+01 -0.20870147021E+02  0.11532327197E+03  0.11254478574E+03 0.  0.
          5    1    3    3  502    0  0.11557625569E+02  0.46670762662E+02 -0.34113773010E+02  0.59101274988E+02  0.41800000000E+01 0. -1.
         -5    1    3    3    0  502 -0.25538163699E+02 -0.48123269941E+02  0.13243625989E+02  0.56221996979E+02  0.41800000000E+01 0.  1.
        -11    1    1    2    0    0  0.45422820833E+01  0.12059057864E+02 -0.39050650455E+01  0.13464870445E+02  0.00000000000E+00 0. -1.
         11    1    1    2    0    0  0.94382560464E+01 -0.10606550585E+02  0.58229619325E+01  0.15345568682E+02  0.00000000000E+00 0.  1.
</event>
<event>
 7    1  0.5951278E-006  0.7731648E+02  0.7561462E-02  0.1336844E+00
         -3   -1    0    0    0  501 -0.00000000000E+00  0.00000000000E+00  0.55353315935E+03  0.55353315935E+03  0.00000000000E+00 0.  1.
          3   -1    0    0  501    0  0.00000000000E+00 -0.00000000000E+00 -0.37634115938E+02  0.37634115938E+02  0.00000000000E+00 0. -1.
         23    2    1    2    0    0 -0.58077037584E+02  0.79989636324E+01  0.96243583897E+02  0.14517952416E+03  0.91527815883E+02 0.  0.
          5    1    1    2  502    0  0.15896297489E+02 -0.37272249561E+02  0.24598572457E+02  0.47586500482E+02  0.41800000000E+01 0. -1.
         -5    1    1    2    0  502  0.42180740095E+02  0.29273285929E+02  0.39505688706E+03  0.39840125065E+03  0.41800000000E+01 0.  1.
        -11    1    3    3    0    0 -0.44116736774E+02 -0.35592778089E+01 -0.29361739042E+01  0.44357367362E+02  0.00000000000E+00 0. -1.
         11    1    3    3    0    0 -0.13960300810E+02  0.11558241441E+02  0.99179757801E+02  0.10082215680E+03  0.00000000000E+00 0.  1.
</event>
<event>
 8    1  0.5951278E-006  0.5612465E+02  0.7561462E-02  0.1414854E+00
          1   -1    0    0  501    0  0.00000000000E+00  0.00000000000E+00  0.87722732212E+02  0.87722732212E+02  0.00000000000E+00 0. -1.
         -1   -1    0    0    0  501 -0.00000000000E+00 -0.00000000000E+00 -0.13969414569E+03  0.13969414569E+03  0.00000000000E+00 0.  1.
         23    2    1    2    0    0  0.14904151652E+01  0.21578114159E+02 -0.33558872789E+02  0.13132749760E+03  0.12511145964E+03 0.  0.
         23    2    1    2    0    0 -0.14904151652E+01 -0.21578114159E+02 -0.18412540686E+02  0.96089380303E+02  0.91794939972E+02 0.  0.
          5    1    3    3  502    0  0.10765680038E+02  0.33373778402E+02  0.41601565585E+02  0.54569878236E+02  0.41800000000E+01 0. -1.
         -5    1    3    3    0  502 -0.92752648732E+01 -0.11795664244E+02 -0.75160438374E+02  0.76757619361E+02  0.41800000000E+01 0. -1.
        -11    1    4    4    0    0  0.26326741219E+02 -0.28942769100E+00 -0.44984412999E+02  0.52122725221E+02  0.00000000000E+00 0.  1.
         11    1    4    4    0    0 -0.27817156384E+02 -0.21288686468E+02  0.26571872313E+02  0.43966655082E+02  0.00000000000E+00 0. -1.
</event>
<event>
 8    1  0.5951278E-006  0.7753734E+02  0.7561462E-02  0.1336189E+00
          1   -1    0    0  501    0  0.00000000000E+00  0.00000000000E+00  0.92692985927E+03  0.92692985927E+03  0.00000000000E+00 0. -1.
         -1   -1    0    0    0  501 -0.00000000000E+00 -0.00000000000E+00 -0.19320646255E+02  0.19320646255E+02  0.00000000000E+00 0.  1.
         23    2    1    2    0    0 -0.69063987192E+02 -0.33025293285E+02  0.54412670290E+03  0.56354191652E+03  0.12508044830E+03 0.  0.
         23    2    1    2    0    0  0.69063987192E+02  0.33025293285E+02  0.36348251011E+03  0.38270858900E+03  0.92118535667E+02 0.  0.
          5    1    3    3  502    0 -0.20588100627E+02 -0.57955105226E+01  0.47138898432E+03  0.47189247162E+03  0.41800000000E+01 0. -1.
         -5    1    3    3    0  502 -0.48475886564E+02 -0.27229782762E+02  0.72737718579E+02  0.91649444906E+02  0.41800000000E+01 0. -1.
        -11    1    4    4    0    0  0.14210647778E+02  0.15820066079E+01  0.54903364886E+00  0.14308972470E+02  0.00000000000E+00 0.  1.
         11    1    4    4    0    0  0.54853339413E+02  0.31443286677E+02  0.36293347647E+03  0.36839961653E+03  0.00000000000E+00 0. -1.
</event>
<event>
 7    1  0.5951278E-006  0.1380893E+03  0.7561462E-02  0.1215923E+00
          2   -1    0    0  501    0  0.00000000000E+00  0.00000000000E+00  0.75136738767E+03  0.75136738767E+03  0.00000000000E+00 0.  1.
         -2   -1    0    0    0  501 -0.00000000000E+00 -0.00000000000E+00 -0.44982844132E+02  0.44982844132E+02  0.00000000000E+00 0. -1.
         23    2    1    2    0    0 -0.12266552057E+03 -0.34029116805E+02  0.41197288913E+03  0.44897218069E+03  0.12509814920E+03 0.  0.
          5    1    3    3  502    0 -0.32681525793E+02  0.82688798422E+01  0.28800442536E+03  0.29000082401E+03  0.41800000000E+01 0.  1.
         -5    1    3    3    0  502 -0.89983994773E+02 -0.42297996647E+02  0.12396846377E+03  0.15897135668E+03  0.41800000000E+01 0.  1.
        -11    1    1    2    0    0  0.70350178606E+02  0.51883903305E+02  0.58753982299E+02  0.10532386951E+03  0.00000000000E+00 0. -1.
         11    1    1    2    0    0  0.52315341959E+02 -0.17854786500E+02  0.23565767211E+03  0.24205418160E+03  0.00000000000E+00 0.  1.
</event>
<event>
 8    1  0.5951278E-006  0.1960928E+03  0.7561462E-02  0.1153078E+00
         -1   -1    0    0    0  501 -0.00000000000E+00  0.00000000000E+00  0.10369775285E+03  0.10369775285E+03  0.00000000000E+00 0.  1.
          1   -1    0    0  501    0  0.00000000000E+00 -0.00000000000E+00 -0.48527964648E+03  0.48527964648E+03  0.00000000000E+00 0. -1.
         23    2    1    2    0    0  0.98689720526E+02  0.14352134668E+03 -0.78082933225E+02  0.22821322403E+03  0.12508514408E+03 0.  0.
         23    2    1    2    0    0 -0.98689720526E+02 -0.14352134668E+03 -0.30349896040E+03  0.36076417530E+03  0.87756101363E+02 0.  0.
          5    1    3    3  502    0 -0.24537395049E+02  0.27907210927E+02  0.84335734247E+01  0.38333976290E+02  0.41800000000E+01 0. -1.
         -5    1    3    3    0  502  0.12322711557E+03  0.11561413575E+03 -0.86516506649E+02  0.18987924774E+03  0.41800000000E+01 0. -1.
        -11    1    4    4    0    0 -0.39937108366E+02 -0.11239317907E+03 -0.24376666172E+03  0.27138420126E+03  0.00000000000E+00 0. -1.
         11    1    4    4    0    0 -0.58752612159E+02 -0.31128167606E+02 -0.59732298680E+02  0.89379974041E+02  0.00000000000E+00 0.  1.
</event>
<event>
 8    1  0.5951278E-006  0.1247458E+03  0.7561462E-02  0.1235467E+00
          3   -1    0    0  501    0  0.00000000000E+00  0.00000000000E+00  0.58563494715E+03  0.58563494715E+03  0.00000000000E+00 0. -1.
         -3   -1    0    0    0  501 -0.00000000000E+00 -0.00000000000E+00 -0.70507019721E+02  0.70507019721E+02  0.00000000000E+00 0.  1.
         23    2    1    2    0    0  0.89447979276E+02 -0.53386968334E+02  0.49582400554E+02  0.17016601312E+03  0.12508776196E+03 0.  0.
         23    2    1    2    0    0 -0.89447979276E+02  0.53386968334E+02  0.46554552687E+03  0.48597595375E+03  0.92676214028E+02 0.  0.
          5    1    3    3  502    0  0.98973904001E+02 -0.61546841010E+02 -0.22779121239E+01  0.11664693993E+03  0.41800000000E+01 0. -1.
         -5    1    3    3    0  502 -0.95259247254E+01  0.81598726761E+01  0.51860312678E+02  0.53519073189E+02  0.41800000000E+01 0. -1.
        -11    1    4    4    0    0  0.25696901335E+01  0.22405608332E+02  0.20549026454E+02  0.30510278273E+02  0.00000000000E+00 0.  1.
         11    1    4    4    0    0 -0.92017669410E+02  0.30981360001E+02  0.44499650042E+03  0.45546567547E+03  0.00000000000E+00 0. -1.
</event>
<event>
 8    1  0.5951278E-006  0.9067516E+02  0.7561462E-02  0.1301225E+00
          4   -1    0    0  501    0  0.00000000000E+00  0.00000000000E+00  0.15370435422E+02  0.15370435422E+02  0.00000000000E+00 0. -1.
         -4   -1    0    0    0  501 -0.00000000000E+00 -0.00000000000E+00 -0.84021218712E+03  0.84021218712E+03  0.00000000000E+00 0.  1.
         23    2    1    2    0    0  0.27544131929E+02  0.17094905853E+02 -0.55097799138E+03  0.56593223612E+03  0.12510649016E+03 0.  0.
         23    2    1    2    0    0 -0.27544131929E+02 -0.17094905853E+02 -0.27386376032E+03  0.28965038643E+03  0.88572411796E+02 0.  0.
          5    1    3    3  502    0 -0.29678294465E+02  0.10910531939E+02 -0.43714927112E+03  0.43831130320E+03  0.41800000000E+01 0.  1.
         -5    1    3    3    0  502  0.57222426394E+02  0.61843739139E+01 -0.11382872026E+03  0.12762093292E+03  0.41800000000E+01 0.  1.
        -11    1    4    4    0    0 -0.25166923387E+02 -0.51468487415E+02 -0.13659863512E+03  0.14812685896E+03  0.00000000000E+00 0. -1.
         11    1    4    4    0    0 -0.23772085418E+01  0.34373581562E+02 -0.13726512520E+03  0.14152352747E+03  0.00000000000E+00 0.  1.
</event>
<event>
 8    1  0.5951278E-006  0.1231134E+03  0.7561462E-02  0.1238048E+00
          1   -1    0    0  501    0  0.00000000000E+00  0.00000000000E+00  0.70059644643E+02  0.70059644643E+02  0.00000000000E+00 0. -1.
         -1   -1    0    0    0  501 -0.00000000000E+00 -0.00000000000E+00 -0.35997166940E+03  0.35997166940E+03  0.00000000000E+00 0.  1.
         23    2    1    2    0    0  0.77823553600E+02  0.70405194018E+02 -0.22085085427E+03  0.27465247414E+03  0.12508191267E+03 0.  0.
         23    2    1    2    0    0 -0.77823553600E+02 -0.70405194018E+02 -0.69061170487E+02  0.15537883991E+03  0.91431623534E+02 0.  0.
          5    1    3    3  502    0  0.76056527884E+02  0.66659403183E+02 -0.68573517643E+02  0.12226148694E+03  0.41800000000E+01 0.  1.
         -5    1    3    3    0  502  0.17670257164E+01  0.37457908351E+01 -0.15227733663E+03  0.15239098720E+03  0.41800000000E+01 0.  1.
        -11    1    4    4    0    0 -0.86125432160E+01  0.22026341198E+02 -0.99736017415E+01  0.25667262007E+02  0.00000000000E+00 0.  1.
         11    1    4    4    0    0 -0.69211010384E+02 -0.92431535217E+02 -0.59087568746E+02  0.12971157790E+03  0.00000000000E+00 0. -1.
</event>
<event>
 8    1  0.5951278E-006  0.8516092E+02  0.7561462E-02  0.1315012E+00
         -3   -1    0    0    0  501 -0.00000000000E+00  0.00000000000E+00  0.28435526908E+03  0.28435526908E+03  0.00000000000E+00 0.  1.
          3   -1    0    0  501    0  0.00000000000E+00 -0.00000000000E+00 -0.68093514384E+02  0.68093514384E+02  0.00000000000E+00 0. -1.
         23    2    1    2    0    0  0.57830393602E+02  0.58929963982E+02  0.15685128849E+03  0.21694849278E+03  0.12508887536E+03 0.  0.
         23    2    1    2    0    0 -0.57830393602E+02 -0.58929963982E+02  0.59410466202E+02  0.13550029069E+03  0.89518881821E+02 0.  0.
          5    1    3    3  502    0  0.23842025543E+02  0.10767583243E+02 -0.18232638995E+02  0.32160294707E+02  0.41800000000E+01 0.  1.
         -5    1    3    3    0  502  0.33988368059E+02  0.48162380739E+02  0.17508392749E+03  0.18478819807E+03  0.41800000000E+01 0.  1.
        -11    1    4    4    0    0 -0.88021612832E+01 -0.20922595768E+02 -0.23023977828E+02  0.32331665778E+02  0.00000000000E+00 0.  1.
         11    1    4    4    0    0 -0.49028232319E+02 -0.38007368214E+02  0.82434444030E+02  0.10316862491E+03  0.00000000000E+00 0. -1.
</event>
<event>
 8    1  0.5951278E-006  0.2363504E+03  0.7561462E-02  0.1122248E+00
         -3   -1    0    0    0  501 -0.00000000000E+00  0.00000000000E+00  0.18483867147E+03  0.18483867147E+03  0.00000000000E+00 0.  1.
          3   -1    0    0  501    0  0.00000000000E+00 -0.00000000000E+00 -0.39189399143E+03  0.39189399143E+03  0.00000000000E+00 0. -1.
         23    2    1    2    0    0  0.22249009900E+03 -0.10576399771E+02  0.58032784864E+01  0.25553054179E+03  0.12509386620E+03 0.  0.
         23    2    1    2    0    0 -0.22249009900E+03  0.10576399771E+02 -0.21285859845E+03  0.32120212110E+03  0.90820236089E+02 0.  0.
          5    1    3    3  502    0  0.23398870207E+03 -0.14952523068E+02 -0.10432682155E+02  0.23473517823E+03  0.41800000000E+01 0.  1.
         -5    1    3    3    0  502 -0.11498603069E+02  0.43761232966E+01  0.16235960642E+02  0.20795363560E+02  0.41800000000E+01 0.  1.
        -11    1    4    4    0    0 -0.33596519052E+02  0.13704554360E+02  0.41659219610E+00  0.36286560207E+02  0.00000000000E+00 0.  1.
         11    1    4    4    0    0 -0.18889357995E+03 -0.31281545890E+01 -0.21327519065E+03  0.28491556090E+03  0.00000000000E+00 0. -1.
</event>
<event>
 8    1  0.5951278E-006  0.1580929E+03  0.7561462E-02  0.1190867E+00
          2   -1    0    0  501    0  0.00000000000E+00  0.00000000000E+00  0.61525476317E+03  0.61525476317E+03  0.00000000000E+00 0.  1.
         -2   -1    0    0    0  501 -0.00000000000E+00 -0.00000000000E+00 -0.48725929714E+02  0.48725929714E+02  0.00000000000E+00 0. -1.
         23    2    1    2    0    0  0.60710048822E+02 -0.11845173458E+03  0.33860789575E+03  0.38473066460E+03  0.12508338724E+03 0.  0.
         23    2    1    2    0    0 -0.60710048822E+02  0.11845173458E+03  0.22792093771E+03  0.27925002829E+03  0.91192658691E+02 0.  0.
          5    1    3    3  502    0 -0.38392551354E+02 -0.25745680259E+02  0.74661355909E+02  0.87912561774E+02  0.41800000000E+01 0. -1.
         -5    1    3    3    0  502  0.99102600176E+02 -0.92706054324E+02  0.26394653984E+03  0.29681810283E+03  0.41800000000E+01 0. -1.
        -11    1    4    4    0    0 -0.29972476987E+02  0.75093651687E+02  0.20682621568E+03  0.22206865919E+03  0.00000000000E+00 0.  1.
         11    1    4    4    0    0 -0.30737571836E+02  0.43358082896E+02  0.21094722027E+02  0.57181369100E+02  0.00000000000E+00 0. -1.
</event>
<event>
 8    1  0.5951278E-006  0.8728163E+02  0.7561462E-02  0.1309571E+00
         -1   -1    0    0    0  501 -0.00000000000E+00  0.00000000000E+00  0.75211682928E+02  0.75211682928E+02  0.00000000000E+00 0.  1.
          1   -1    0    0  501    0  0.00000000000E+00 -0.00000000000E+00 -0.18733619287E+03  0.18733619287E+03  0.00000000000E+00 0. -1.
         23    2    1    2    0    0  0.47740449899E+02  0.20570966151E+02 -0.28308422430E+02  0.12759117678E+03  0.11303020130E+03 0.  0.
         23    2    1    2    0    0 -0.47740449899E+02 -0.20570966151E+02 -0.83816087517E+02  0.13495669902E+03  0.92118721659E+02 0.  0.
          5    1    3    3  502    0  0.51697372870E+02  0.28455841122E+02 -0.66013313463E+02  0.88643009933E+02  0.41800000000E+01 0. -1.
         -5    1    3    3    0  502 -0.39569229715E+01 -0.78848749711E+01  0.37704891033E+02  0.38948166845E+02  0.41800000000E+01 0.  1.
        -11    1    4    4    0    0 -0.25107078351E+02  0.36468712719E+02 -0.38476773098E+02  0.58658285508E+02  0.00000000000E+00 0. -1.
         11    1    4    4    0    0 -0.22633371547E+02 -0.57039678870E+02 -0.45339314419E+02  0.76298413516E+02  0.00000000000E+00 0.  1.
</event>
<event>
 8    1  0.5951278E-006  0.1312262E+03  0.7561462E-02  0.1225648E+00
         -1   -1    0    0    0  501 -0.00000000000E+00  0.00000000000E+00  0.22600970594E+02  0.22600970594E+02  0.00000000000E+00 0.  1.
          1   -1    0    0  501    0  0.00000000000E+00 -0.00000000000E+00 -0.97907859062E+03  0.97907859062E+03  0.00000000000E+00 0. -1.
         23    2    1    2    0    0  0.41155252719E+02  0.91795112104E+02 -0.53603334640E+03  0.55955297559E+03  0.12509071349E+03 0.  0.
         23    2    1    2    0    0 -0.41155252719E+02 -0.91795112104E+02 -0.42044427362E+03  0.44212658562E+03  0.92641421954E+02 0.  0.
          5    1    3    3  502    0 -0.10592455368E+02 -0.24086012292E+02 -0.44343938751E+02  0.51731937938E+02  0.41800000000E+01 0. -1.
         -5    1    3    3    0  502  0.51747708087E+02  0.11588112440E+03 -0.49168940765E+03  0.50782103765E+03  0.41800000000E+01 0. -1.
        -11    1    4    4    0    0 -0.37250101119E+02 -0.32581373017E+02 -0.64648008250E+02  0.81415482998E+02  0.00000000000E+00 0.  1.
         11    1    4    4    0    0 -0.39051516009E+01 -0.59213739087E+02 -0.35579626537E+03  0.36071110262E+03  0.00000000000E+00 0. -1.
</event>
<event>
 8    1  0.5951278E-006  0.1382987E+03  0.7561462E-02  0.1215637E+00
         -2   -1    0    0    0  501 -0.00000000000E+00  0.00000000000E+00  0.69006862253E+03  0.69006862253E+03  0.00000000000E+00 0.  1.
          2   -1    0    0  501    0  0.00000000000E+00 -0.00000000000E+00 -0.59039715481E+02  0.59039715481E+02  0.00000000000E+00 0. -1.
         23    2    1    2    0    0  0.54156102140E+02 -0.10207734624E+03  0.56740160787E+03  0.59240495976E+03  0.12508550563E+03 0.  0.
         23    2    1    2    0    0 -0.54156102140E+02  0.10207734624E+03  0.63627299178E+02  0.15670337825E+03  0.84586331873E+02 0.  0.
          5    1    3    3  502    0  0.44839405077E+02 -0.11338899083E+02  0.55238662334E+02  0.72165955246E+02  0.41800000000E+01 0. -1.
         -5    1    3    3    0  502  0.93166970624E+01 -0.90738447159E+02  0.51216294554E+03  0.52023900451E+03  0.41800000000E+01 0. -1.
        -11    1    4    4    0    0 -0.77151357717E+01  0.90706662201E+02  0.22836580247E+02  0.93854841564E+02  0.00000000000E+00 0. -1.
         11    1    4    4    0    0 -0.46440966368E+02  0.11370684041E+02  0.40790718931E+02  0.62848536687E+02  0.00000000000E+00 0.  1.
</event>
<event>
 8    1  0.5951278E-006  0.9407261E+02  0.7561462E-02  0.1293279E+00
          1   -1    0    0  501    0  0.00000000000E+00  0.00000000000E+00  0.14748553046E+03  0.14748553046E+03  0.00000000000E+00 0. -1.
         -1   -1    0    0    0  501 -0.00000000000E+00 -0.00000000000E+00 -0.14628960688E+03  0.14628960688E+03  0.00000000000E+00 0.  1.
         23    2    1    2    0    0  0.30520854242E+01 -0.55540154708E+02 -0.90403332186E+02  0.15340678445E+03  0.11075583522E+03 0.  0.
         23    2    1    2    0    0 -0.30520854242E+01  0.55540154708E+02  0.91599255767E+02  0.14036835289E+03  0.90657745535E+02 0.  0.
          5    1    3    3  502    0  0.46390754031E+02 -0.20195518732E+02 -0.46993574793E+01  0.50985462606E+02  0.41800000000E+01 0. -1.
         -5    1    3    3    0  502 -0.43338668606E+02 -0.35344635976E+02 -0.85703974706E+02  0.10242132185E+03  0.41800000000E+01 0.  1.
        -11    1    4    4    0    0 -0.26725165057E+02  0.75270674899E+01 -0.65884326938E+01  0.28535918378E+02  0.00000000000E+00 0.  1.
         11    1    4    4    0    0  0.23673079633E+02  0.48013087218E+02  0.98187688460E+02  0.11183243451E+03  0.00000000000E+00 0. -1.
</event>
<event>
 8    1  0.5951278E-006  0.2136127E+03  0.7561462E-02  0.1138737E+00
          2   -1    0    0  501    0  0.00000000000E+00  0.00000000000E+00  0.46684166783E+03  0.46684166783E+03  0.00000000000E+00 0. -1.
         -2   -1    0    0    0  501 -0.00000000000E+00 -0.00000000000E+00 -0.98696646112E+02  0.98696646112E+02  0.00000000000E+00 0.  1.
         23    2    1    2    0    0 -0.96968168574E+02  0.15570691177E+03  0.16602579183E+03  0.27723574099E+03  0.12509046502E+03 0.  0.
         23    2    1    2    0    0  0.96968168574E+02 -0.15570691177E+03  0.20211922989E+03  0.28830257295E+03  0.92837074446E+02 0.  0.
          5    1    3    3  502    0 -0.77094044380E+02  0.17658941523E+03  0.14051719082E+03  0.23851596711E+03  0.41800000000E+01 0.  1.
         -5    1    3    3    0  502 -0.19874124194E+02 -0.20882503467E+02  0.25508601013E+02  0.38719773878E+02  0.41800000000E+01 0.  1.
        -11    1    4    4    0    0 -0.18358213868E+02 -0.25630064973E+02  0.26352207643E+02  0.41089695723E+02  0.00000000000E+00 0.  1.
         11    1    4    4    0    0  0.11532638244E+03 -0.13007684679E+03  0.17576702225E+03  0.24721287723E+03  0.00000000000E+00 0. -1.
</event>
<event>
 8    1  0.5951278E-006  0.1908250E+03  0.7561462E-02  0.1157719E+00
          2   -1    0    0  501    0  0.00000000000E+00  0.00000000000E+00  0.50217385953E+03  0.50217385953E+03  0.00000000000E+00 0. -1.
         -2   -1    0    0    0  501 -0.00000000000E+00 -0.00000000000E+00 -0.83087562802E+02  0.83087562802E+02  0.00000000000E+00 0.  1.
         23    2    1    2    0    0 -0.57970085164E+02  0.14652134615E+03  0.12055230785E+03  0.23454132448E+03  0.12509092017E+03 0.  0.
         23    2    1    2    0    0  0.57970085164E+02 -0.14652134615E+03  0.29853398887E+03  0.35072009785E+03  0.95147300922E+02 0.  0.
          5    1    3    3  502    0  0.31258450291E+02  0.30342408715E+01  0.25182729434E+02  0.40471466418E+02  0.41800000000E+01 0. -1.
         -5    1    3    3    0  502 -0.89228535455E+02  0.14348710528E+03  0.95369578420E+02  0.19406985806E+03  0.41800000000E+01 0. -1.
        -11    1    4    4    0    0  0.64700910720E+02 -0.44089456501E+02  0.16173276287E+03  0.17968743587E+03  0.00000000000E+00 0. -1.
         11    1    4    4    0    0 -0.67308255563E+01 -0.10243188965E+03  0.13680122600E+03  0.17103266198E+03  0.00000000000E+00 0.  1.
</event>
<event>
 8    1  0.5951278E-006  0.1196927E+03  0.7561462E-02  0.1243605E+00
          1   -1    0    0  501    0  0.00000000000E+00  0.00000000000E+00  0.61064693837E+03  0.61064693837E+03  0.00000000000E+00 0. -1.
         -1   -1    0    0    0  501 -0.00000000000E+00 -0.00000000000E+00 -0.31611327453E+02  0.31611327453E+02  0.00000000000E+00 0.  1.
         23    2    1    2    0    0  0.33501383062E+02 -0.59799964649E+02  0.19468662406E+03  0.24134778948E+03  0.12508994949E+03 0.  0.
         23    2    1    2    0    0 -0.33501383062E+02  0.59799964649E+02  0.38434898685E+03  0.40091047633E+03  0.91141033019E+02 0.  0.
          5    1    3    3  502    0 -0.21311550904E+02 -0.69273571603E+02  0.15989622197E+03  0.17560547863E+03  0.41800000000E+01 0. -1.
         -5    1    3    3    0  502  0.54812933967E+02  0.94736069533E+01  0.34790402086E+02  0.65742310851E+02  0.41800000000E+01 0. -1.
        -11    1    4    4    0    0  0.23088984295E+02  0.47903745414E+02  0.13864928743E+03  0.14849745764E+03  0.00000000000E+00 0.  1.
         11    1    4    4    0    0 -0.56590367358E+02  0.11896219235E+02  0.24569969942E+03  0.25241301869E+03  0.00000000000E+00 0. -1.
</event>
<event>
 8    1  0.5951278E-006  0.1179289E+03  0.7561462E-02  0.1246553E+00
         -1   -1    0    0    0  501 -0.00000000000E+00  0.00000000000E+00  0.30377911320E+02  0.30377911320E+02  0.00000000000E+00 0.  1.
          1   -1    0    0  501    0  0.00000000000E+00 -0.00000000000E+00 -0.60886290640E+03  0.60886290640E+03  0.00000000000E+00 0. -1.
         23    2    1    2    0    0 -0.38563515040E+02 -0.72840196493E+02 -0.29409240845E+03  0.33004689433E+03  0.12509104217E+03 0.  0.
         23    2    1    2    0    0  0.38563515040E+02  0.72840196493E+02 -0.28439258663E+03  0.30919392339E+03  0.89044371043E+02 0.  0.
          5    1    3    3  502    0 -0.73471495867E+02 -0.15944718567E+02 -0.10299909137E+03  0.12758753849E+03  0.41800000000E+01 0.  1.
         -5    1    3    3    0  502  0.34907980827E+02 -0.56895477926E+02 -0.19109331708E+03  0.20245935584E+03  0.41800000000E+01 0.  1.
        -11    1    4    4    0    0 -0.11380796856E+01  0.45406196208E+02 -0.23785274997E+03  0.24215067323E+03  0.00000000000E+00 0. -1.
         11    1    4    4    0    0  0.39701594726E+02  0.27434000284E+02 -0.46539836664E+02  0.67043250160E+02  0.00000000000E+00 0.  1.
</event>
<event>
 8    1  0.5951278E-006  0.7032820E+02  0.7561462E-02  0.1358981E+00
         -3   -1    0    0    0  501 -0.00000000000E+00  0.00000000000E+00  0.30731899305E+03  0.30731899305E+03  0.00000000000E+00 0.  1.
          3   -1    0    0  501    0  0.00000000000E+00 -0.00000000000E+00 -0.51776179541E+02  0.51776179541E+02  0.00000000000E+00 0. -1.
         23    2    1    2    0    0 -0.46267480269E+01 -0.45556985139E+02  0.20558107378E+03  0.24496551394E+03  0.12509068482E+03 0.  0.
         23    2    1    2    0    0  0.46267480269E+01  0.45556985139E+02  0.49961739730E+02  0.11412965866E+03  0.91828959787E+02 0.  0.
          5    1    3    3  502    0 -0.31744892641E+02 -0.33627498886E+02  0.20968613540E+03  0.21476567386E+03  0.41800000000E+01 0. -1.
         -5    1    3    3    0  502  0.27118144614E+02 -0.11929486254E+02 -0.41050616213E+01  0.30199840074E+02  0.41800000000E+01 0. -1.
        -11    1    4    4    0    0  0.24201176972E+02  0.16583289990E+02  0.68525225019E+02  0.74541323691E+02  0.00000000000E+00 0.  1.
         11    1    4    4    0    0 -0.19574428945E+02  0.28973695149E+02 -0.18563485289E+02  0.39588334964E+02  0.00000000000E+00 0. -1.
</event>
<event>
 8    1  0.5951278E-006  0.1085250E+03  0.7561462E-02  0.1263326E+00
          3   -1    0    0  501    0  0.00000000000E+00  0.00000000000E+00  0.23712992212E+02  0.23712992212E+02  0.00000000000E+00 0. -1.
         -3   -1    0    0    0  501 -0.00000000000E+00 -0.00000000000E+00 -0.54807771441E+03  0.54807771441E+03  0.00000000000E+00 0.  1.
         23    2    1    2    0    0  0.11574047838E+02 -0.22411547028E+02 -0.35448528068E+03  0.37675425209E+03  0.12509083192E+03 0.  0.
         23    2    1    2    0    0 -0.11574047838E+02  0.22411547028E+02 -0.16987944152E+03  0.19503645453E+03  0.92433532443E+02 0.  0.
          5    1    3    3  502    0  0.33947259009E+02 -0.67010618874E+02 -0.17663982099E+03  0.19199463064E+03  0.41800000000E+01 0. -1.
         -5    1    3    3    0  502 -0.22373211171E+02  0.44599071846E+02 -0.17784545969E+03  0.18475962145E+03  0.41800000000E+01 0. -1.
        -11    1    4    4    0    0 -0.39196606317E+02 -0.17727206899E+02 -0.52027452285E+02  0.67509137177E+02  0.00000000000E+00 0.  1.
         11    1    4    4    0    0  0.27622558479E+02  0.40138753927E+02 -0.11785198923E+03  0.12752731735E+03  0.00000000000E+00 0. -1.
</event>
<event>
 8    1  0.5951278E-006  0.1074290E+03  0.7561462E-02  0.1265406E+00
          2   -1    0    0  501    0  0.00000000000E+00  0.00000000000E+00  0.64224836211E+03  0.64224836211E+03  0.00000000000E+00 0.  1.
         -2   -1    0    0    0  501 -0.00000000000E+00 -0.00000000000E+00 -0.28013451223E+02  0.28013451223E+02  0.00000000000E+00 0. -1.
         23    2    1    2    0    0 -0.75813056932E+02 -0.29481390849E+01  0.28948061096E+03  0.32434959721E+03  0.12508927198E+03 0.  0.
         23    2    1    2    0    0  0.75813056932E+02  0.29481390849E+01  0.32475429992E+03  0.34591221612E+03  0.91834605768E+02 0.  0.
          5    1    3    3  502    0 -0.33813923489E+02  0.35497816891E+02  0.25033900226E+03  0.25512852620E+03  0.41800000000E+01 0. -1.
         -5    1    3    3    0  502 -0.41999133443E+02 -0.38445955976E+02  0.39141608699E+02  0.69221071014E+02  0.41800000000E+01 0. -1.
        -11    1    4    4    0    0  0.43938992700E+01  0.31384610981E+02  0.40378324567E+02  0.51329418973E+02  0.00000000000E+00 0. -1.
         11    1    4    4    0    0  0.71419157662E+02 -0.28436471896E+02  0.28437597535E+03  0.29458279714E+03  0.00000000000E+00 0.  1.
</event>
<event>
 8    1  0.5951278E-006  0.1078672E+03  0.7561462E-02  0.1264571E+00
          2   -1    0    0  501    0  0.00000000000E+00  0.00000000000E+00  0.56538922033E+03  0.56538922033E+03  0.00000000000E+00 0.  1.
         -2   -1    0    0    0  501 -0.00000000000E+00 -0.00000000000E+00 -0.21465981269E+02  0.21465981269E+02  0.00000000000E+00 0. -1.
         23    2    1    2    0    0 -0.70859664442E+01  0.26496397741E+00  0.25634073765E+03  0.28532249662E+03  0.12509225465E+03 0.  0.
         23    2    1    2    0    0  0.70859664442E+01 -0.26496397741E+00  0.28758250141E+03  0.30153270498E+03  0.90376965685E+02 0.  0.
          5    1    3    3  502    0  0.23685018911E+02 -0.56035314329E+02  0.12237615941E+03  0.13672722247E+03  0.41800000000E+01 0. -1.
         -5    1    3    3    0  502 -0.30770985355E+02  0.56300278307E+02  0.13396457824E+03  0.14859527415E+03  0.41800000000E+01 0. -1.
        -11    1    4    4    0    0 -0.12400126419E+02  0.42067580964E+02  0.14933978209E+03  0.15564644235E+03  0.00000000000E+00 0. -1.
         11    1    4    4    0    0  0.19486092863E+02 -0.42332544941E+02  0.13824271932E+03  0.14588626262E+03  0.00000000000E+00 0.  1.
</event>
<event>
 8    1  0.5951278E-006  0.2460703E+03  0.7561462E-02  0.1115814E+00
         -1   -1    0    0    0  501 -0.00000000000E+00  0.00000000000E+00  0.68418138953E+02  0.68418138953E+02  0.00000000000E+00 0.  1.
          1   -1    0    0  501    0  0.00000000000E+00 -0.00000000000E+00 -0.12592782450E+04  0.12592782450E+04  0.00000000000E+00 0. -1.
         23    2    1    2    0    0 -0.17542460950E+03  0.16371039557E+03 -0.31524455421E+03  0.41545369460E+03  0.12509099154E+03 0.  0.
         23    2    1    2    0    0  0.17542460950E+03 -0.16371039557E+03 -0.87561555182E+03  0.91224268934E+03  0.88933921634E+02 0.  0.
          5    1    3    3  502    0 -0.17035578697E+02  0.60789695834E+01 -0.11146332601E+03  0.11299871794E+03  0.41800000000E+01 0. -1.
         -5    1    3    3    0  502 -0.15838903080E+03  0.15763142599E+03 -0.20378122820E+03  0.30245497665E+03  0.41800000000E+01 0. -1.
        -11    1    4    4    0    0  0.65645597790E+02 -0.10943249688E+03 -0.34968956093E+03  0.37224669899E+03  0.00000000000E+00 0.  1.
         11    1    4    4    0    0  0.10977901171E+03 -0.54277898694E+02 -0.52592599089E+03  0.53999599035E+03  0.00000000000E+00 0. -1.
</event>
<event>
 8    1  0.5951278E-006  0.2250814E+03  0.7561462E-02  0.1130150E+00
          1   -1    0    0  501    0  0.00000000000E+00  0.00000000000E+00  0.26293999539E+03  0.26293999539E+03  0.00000000000E+00 0. -1.
         -1   -1    0    0    0  501 -0.00000000000E+00 -0.00000000000E+00 -0.22381543468E+03  0.22381543468E+03  0.00000000000E+00 0.  1.
         23    2    1    2    0    0 -0.59490742680E+01  0.20953260862E+03 -0.34384058891E+02  0.24653312174E+03  0.12512797868E+03 0.  0.
         23    2    1    2    0    0  0.59490742680E+01 -0.20953260862E+03  0.73508619597E+02  0.24022230833E+03  0.91454549939E+02 0.  0.
          5    1    3    3  502    0 -0.47908250048E+02  0.17459875125E+03  0.14247850920E+01  0.18110612020E+03  0.41800000000E+01 0.  1.
         -5    1    3    3    0  502  0.41959175780E+02  0.34933857367E+02 -0.35808843983E+02  0.65427001536E+02  0.41800000000E+01 0.  1.
        -11    1    4    4    0    0  0.25258299612E+02 -0.10428450256E+03  0.78738031062E+02  0.13308988207E+03  0.00000000000E+00 0. -1.
         11    1    4    4    0    0 -0.19309225344E+02 -0.10524810606E+03 -0.52294114651E+01  0.10713242626E+03  0.00000000000E+00 0.  1.
</event>
<event>
 8    1  0.5951278E-006  0.1188607E+03  0.7561462E-02  0.1244988E+00
          3   -1    0    0  501    0  0.00000000000E+00  0.00000000000E+00  0.50763555914E+03  0.50763555914E+03  0.00000000000E+00 0. -1.
         -3   -1    0    0    0  501 -0.00000000000E+00 -0.00000000000E+00 -0.32121412313E+02  0.32121412313E+02  0.00000000000E+00 0.  1.
         23    2    1    2    0    0 -0.45026624540E+02  0.54086566777E+02  0.25991045768E+03  0.29690726310E+03  0.12509085997E+03 0.  0.
         23    2    1    2    0    0  0.45026624540E+02 -0.54086566777E+02  0.21560368915E+03  0.24284970835E+03  0.86823248321E+02 0.  0.
          5    1    3    3  502    0  0.33825534098E+02  0.36821315407E+02  0.45368191062E+02  0.67644077239E+02  0.41800000000E+01 0. -1.
         -5    1    3    3    0  502 -0.78852158638E+02  0.17265251371E+02  0.21454226662E+03  0.22926318586E+03  0.41800000000E+01 0. -1.
        -11    1    4    4    0    0 -0.14048512262E+02 -0.44758974054E+02  0.13175221919E+03  0.13985483086E+03  0.00000000000E+00 0. -1.
         11    1    4    4    0    0  0.59075136802E+02 -0.93275927231E+01  0.83851469961E+02  0.10299487749E+03  0.00000000000E+00 0.  1.
</event>
<event>
 8    1  0.5951278E-006  0.1044839E+03  0.7561462E-02  0.1271140E+00
         -1   -1    0    0    0  501 -0.00000000000E+00  0.00000000000E+00  0.37810221760E+02  0.37810221760E+02  0.00000000000E+00 0.  1.
          1   -1    0    0  501    0  0.00000000000E+00 -0.00000000000E+00 -0.35217061630E+03  0.35217061630E+03  0.00000000000E+00 0. -1.
         23    2    1    2    0    0 -0.20428237358E+02  0.51141881440E+00 -0.10994441295E+03  0.16778700039E+03  0.12508848520E+03 0.  0.
         23    2    1    2    0    0  0.20428237358E+02 -0.51141881440E+00 -0.20441598159E+03  0.22219383767E+03  0.84655971664E+02 0.  0.
          5    1    3    3  502    0 -0.19639652391E+02  0.61202910357E+02 -0.43666989533E+02  0.77818960139E+02  0.41800000000E+01 0.  1.
         -5    1    3    3    0  502 -0.78858496709E+00 -0.60691491543E+02 -0.66277423419E+02  0.89968040254E+02  0.41800000000E+01 0.  1.
        -11    1    4    4    0    0 -0.20075879858E+02 -0.28225390057E+02 -0.55722272407E+02  0.65610100123E+02  0.00000000000E+00 0.  1.
         11    1    4    4    0    0  0.40504117216E+02  0.27713971243E+02 -0.14869370918E+03  0.15658373755E+03  0.00000000000E+00 0. -1.
</event>
<event>
 8    1  0.5951278E-006  0.1533450E+03  0.7561462E-02  0.1196422E+00
          4   -1    0    0  501    0  0.00000000000E+00  0.00000000000E+00  0.10272904365E+03  0.10272904365E+03  0.00000000000E+00 0.  1.
         -4   -1    0    0    0  501 -0.00000000000E+00 -0.00000000000E+00 -0.24940344822E+03  0.24940344822E+03  0.00000000000E+00 0. -1.
         23    2    1    2    0    0 -0.49168911448E+02  0.10429146614E+03 -0.58003604196E+02  0.17982716164E+03  0.12521620582E+03 0.  0.
         23    2    1    2    0    0  0.49168911448E+02 -0.10429146614E+03 -0.88670800371E+02  0.17230533024E+03  0.92370580962E+02 0.  0.
          5    1    3    3  502    0 -0.51102263326E+01  0.11456745641E+03 -0.67882590513E+02  0.13333167282E+03  0.41800000000E+01 0. -1.
         -5    1    3    3    0  502 -0.44058685115E+02 -0.10275990267E+02  0.98789863171E+01  0.46495488821E+02  0.41800000000E+01 0. -1.
        -11    1    4    4    0    0 -0.95200802220E+00  0.16080512955E+02 -0.17386645737E+02  0.23701997093E+02  0.00000000000E+00 0. -1.
         11    1    4    4    0    0  0.50120919470E+02 -0.12037197910E+03 -0.71284154633E+02  0.14860333315E+03  0.00000000000E+00 0.  1.
</event>
<event>
 8    1  0.5951278E-006  0.2247559E+03  0.7561462E-02  0.1130386E+00
         -2   -1    0    0    0  501 -0.00000000000E+00  0.00000000000E+00  0.11420976175E+03  0.11420976175E+03  0.00000000000E+00 0.  1.
          2   -1    0    0  501    0  0.00000000000E+00 -0.00000000000E+00 -0.47479347287E+03  0.47479347287E+03  0.00000000000E+00 0. -1.
         23    2    1    2    0    0  0.67151624629E+02 -0.19382361576E+03 -0.16337251633E+03  0.29054512754E+03  0.12509579263E+03 0.  0.
         23    2    1    2    0    0 -0.67151624629E+02  0.19382361576E+03 -0.19721119479E+03  0.29845810707E+03  0.90044720051E+02 0.  0.
          5    1    3    3  502    0  0.51125629858E+02 -0.20270539880E+03 -0.11496230908E+03  0.23861499040E+03  0.41800000000E+01 0.  1.
         -5    1    3    3    0  502  0.16025994771E+02  0.88817830476E+01 -0.48410207244E+02  0.51930137145E+02  0.41800000000E+01 0.  1.
        -11    1    4    4    0    0 -0.87162790336E+02  0.16369431334E+03 -0.17984454007E+03  0.25833551601E+03  0.00000000000E+00 0. -1.
         11    1    4    4    0    0  0.20011165707E+02  0.30129302421E+02 -0.17366654721E+02  0.40122591062E+02  0.00000000000E+00 0.  1.
</event>
<event>
 8    1  0.5951278E-006  0.1046883E+03  0.7561462E-02  0.1270735E+00
          2   -1    0    0  501    0  0.00000000000E+00  0.00000000000E+00  0.12494175002E+03  0.12494175002E+03  0.00000000000E+00 0. -1.
         -2   -1    0    0    0  501 -0.00000000000E+00 -0.00000000000E+00 -0.12193202461E+03  0.12193202461E+03  0.00000000000E+00 0.  1.
         23    2    1    2    0    0  0.10404199374E+02  0.40667797965E+02 -0.39494968272E+02  0.13773198034E+03  0.12509248073E+03 0.  0.
         23    2    1    2    0    0 -0.10404199374E+02 -0.40667797965E+02  0.42504693684E+02  0.10914179428E+03  0.91340927943E+02 0.  0.
          5    1    3    3  502    0  0.39288165689E+02  0.62691612343E+02 -0.60413128556E+02  0.95608664478E+02  0.41800000000E+01 0. -1.
         -5    1    3    3    0  502 -0.28883966315E+02 -0.22023814378E+02  0.20918160283E+02  0.42123315865E+02  0.41800000000E+01 0. -1.
        -11    1    4    4    0    0  0.29823619913E+02 -0.49251896625E+02  0.34846780952E+02  0.67301528724E+02  0.00000000000E+00 0. -1.
         11    1    4    4    0    0 -0.40227819287E+02  0.85840986600E+01  0.76579127318E+01  0.41840265556E+02  0.00000000000E+00 0.  1.
</event>
<event>
 8    1  0.5951278E-006  0.9407260E+02  0.7561462E-02  0.1293279E+00
          2   -1    0    0  501    0  0.00000000000E+00  0.00000000000E+00  0.18194297277E+03  0.18194297277E+03  0.00000000000E+00 0. -1.
         -2   -1    0    0    0  501 -0.00000000000E+00 -0.00000000000E+00 -0.86392569723E+02  0.86392569723E+02  0.00000000000E+00 0.  1.
         23    2    1    2    0    0  0.30706944402E+02 -0.26489143656E+02  0.79314317277E+01  0.13173670326E+03  0.12508820972E+03 0.  0.
         23    2    1    2    0    0 -0.30706944402E+02  0.26489143656E+02  0.87618971315E+02  0.13659883922E+03  0.96631090115E+02 0.  0.
          5    1    3    3  502    0  0.38033983791E+02 -0.54625579837E+02  0.47916566786E+02  0.82121907358E+02  0.41800000000E+01 0.  1.
         -5    1    3    3    0  502 -0.73270393891E+01  0.28136436181E+02 -0.39985135059E+02  0.49614795906E+02  0.41800000000E+01 0.  1.
        -11    1    4    4    0    0  0.24382258403E+02  0.27794550290E+02  0.50298376355E+01  0.37313949366E+02  0.00000000000E+00 0.  1.
         11    1    4    4    0    0 -0.55089202805E+02 -0.13054066341E+01  0.82589133680E+02  0.99284889858E+02  0.00000000000E+00 0. -1.
</event>
<event>
 7    1  0.5951278E-006  0.1343029E+03  0.7561462E-02  0.1221207E+00
         -1   -1    0    0    0  501 -0.00000000000E+00  0.00000000000E+00  0.28575057174E+02  0.28575057174E+02  0.00000000000E+00 0.  1.
          1   -1    0    0  501    0  0.00000000000E+00 -0.00000000000E+00 -0.88478984728E+03  0.88478984728E+03  0.00000000000E+00 0. -1.
         23    2    1    2    0    0 -0.19734867196E+02 -0.58490853021E+02 -0.18341650391E+03  0.22392746326E+03  0.11265544827E+03 0.  0.
          5    1    3    3  502    0  0.38843404689E+02 -0.61069440777E+01 -0.10766709814E+03  0.11469865420E+03  0.41800000000E+01 0. -1.
         -5    1    3    3    0  502 -0.58578271885E+02 -0.52383908944E+02 -0.75749405767E+02  0.10922880905E+03  0.41800000000E+01 0.  1.
        -11    1    1    2    0    0  0.68085175775E+02 -0.75690690985E+01 -0.28954671212E+03  0.29754021656E+03  0.00000000000E+00 0. -1.
         11    1    1    2    0    0 -0.48350308579E+02  0.66059922120E+02 -0.38325157407E+03  0.39189722464E+03  0.00000000000E+00 0.  1.
</event>
<event>
 8    1  0.5951278E-006  0.1309335E+03  0.7561462E-02  0.1226077E+00
          1   -1    0    0  501    0  0.00000000000E+00  0.00000000000E+00  0.90046625038E+03  0.90046625038E+03  0.00000000000E+00 0. -1.
         -1   -1    0    0    0  501 -0.00000000000E+00 -0.00000000000E+00 -0.21217196601E+02  0.21217196601E+02  0.00000000000E+00 0.  1.
         23    2    1    2    0    0  0.34396834029E+02  0.73085479219E+02  0.40568123710E+03  0.43214537311E+03  0.12509087856E+03 0.  0.
         23    2    1    2    0    0 -0.34396834029E+02 -0.73085479219E+02  0.47356781668E+03  0.48953807388E+03  0.94108550701E+02 0.  0.
          5    1    3    3  502    0  0.23123361706E+02  0.10333828614E+03  0.22695684390E+03  0.25048028392E+03  0.41800000000E+01 0.  1.
         -5    1    3    3    0  502  0.11273472323E+02 -0.30252806921E+02  0.17872439320E+03  0.18166508919E+03  0.41800000000E+01 0.  1.
        -11    1    4    4    0    0 -0.49396324916E+02 -0.68778432232E+00  0.16503554307E+03  0.17227071846E+03  0.00000000000E+00 0. -1.
         11    1    4    4    0    0  0.14999490887E+02 -0.72397694897E+02  0.30853227361E+03  0.31726735542E+03  0.00000000000E+00 0.  1.
</event>
<event>
 8    1  0.5951278E-006  0.1080439E+03  0.7561462E-02  0.1264236E+00
         -1   -1    0    0    0  501 -0.00000000000E+00  0.00000000000E+00  0.20827489983E+02  0.20827489983E+02  0.00000000000E+00 0.  1.
          1   -1    0    0  501    0  0.00000000000E+00 -0.00000000000E+00 -0.61953510341E+03  0.61953510341E+03  0.00000000000E+00 0. -1.
         23    2    1    2    0    0 -0.25798564289E+02 -0.38413008562E+01 -0.27868079424E+03  0.30657883148E+03  0.12508906158E+03 0.  0.
         23    2    1    2    0    0  0.25798564289E+02  0.38413008562E+01 -0.32002681919E+03  0.33378376191E+03  0.91181759148E+02 0.  0.
          5    1    3    3  502    0  0.59808161548E-01 -0.59696572057E+02 -0.90093314011E+02  0.10815711683E+03  0.41800000000E+01 0.  1.
         -5    1    3    3    0  502 -0.25858372451E+02  0.55855271201E+02 -0.18858748022E+03  0.19842171465E+03  0.41800000000E+01 0.  1.
        -11    1    4    4    0    0 -0.32212565955E+02 -0.12069170802E+02 -0.10422227622E+03  0.10975243573E+03  0.00000000000E+00 0. -1.
         11    1    4    4    0    0  0.58011130244E+02  0.15910471658E+02 -0.21580454297E+03  0.22403132618E+03  0.00000000000E+00 0.  1.
</event>
<event>
 8    1  0.5951278E-006  0.1152763E+03  0.7561462E-02  0.1251100E+00
         -2   -1    0    0    0  501 -0.00000000000E+00  0.00000000000E+00  0.38647713122E+02  0.38647713122E+02  0.00000000000E+00 0.  1.
          2   -1    0    0  501    0  0.00000000000E+00 -0.00000000000E+00 -0.57025555218E+03  0.57025555218E+03  0.00000000000E+00 0. -1.
         23    2    1    2    0    0  0.69871346877E+02 -0.16412580554E+02 -0.14044310538E+03  0.20130139913E+03  0.12508640825E+03 0.  0.
         23    2    1    2    0    0 -0.69871346877E+02  0.16412580554E+02 -0.39116473367E+03  0.40760186617E+03  0.89319955886E+02 0.  0.
          5    1    3    3  502    0 -0.34500232870E+02 -0.62244679461E+00 -0.56647517157E+02  0.66461019464E+02  0.41800000000E+01 0. -1.
         -5    1    3    3    0  502  0.10437157975E+03 -0.15790133759E+02 -0.83795588226E+02  0.13484037967E+03  0.41800000000E+01 0. -1.
        -11    1    4    4    0    0 -0.76560990802E+02  0.47507892961E+01 -0.38542399633E+03  0.39298322135E+03  0.00000000000E+00 0. -1.
         11    1    4    4    0    0  0.66896439250E+01  0.11661791258E+02 -0.57407373401E+01  0.14618644821E+02  0.00000000000E+00 0.  1.
</event>
<event>
 8    1  0.5951278E-006  0.7731512E+02  0.7561462E-02  0.1336848E+00
          1   -1    0    0  501    0  0.00000000000E+00  0.00000000000E+00  0.32439787712E+02  0.32439787712E+02  0.00000000000E+00 0. -1.
         -1   -1    0    0    0  501 -0.00000000000E+00 -0.00000000000E+00 -0.32076895815E+03  0.32076895815E+03  0.00000000000E+00 0.  1.
         23    2    1    2    0    0 -0.12936835906E+02  0.91255997786E+01 -0.22682899727E+03  0.25951806136E+03  0.12509033484E+03 0.  0.
         23    2    1    2    0    0  0.12936835906E+02 -0.91255997786E+01 -0.61500173166E+02  0.93690684509E+02  0.68884212776E+02 0.  0.
          5    1    3    3  502    0 -0.47647385479E+02 -0.26638689858E+02 -0.44795733267E+02  0.70739121137E+02  0.41800000000E+01 0.  1.
         -5    1    3    3    0  502  0.34710549573E+02  0.35764289636E+02 -0.18203326401E+03  0.18877894022E+03  0.41800000000E+01 0.  1.
        -11    1    4    4    0    0  0.21757784768E+02 -0.24112644018E+02 -0.29490727937E+01  0.32611621086E+02  0.00000000000E+00 0. -1.
         11    1    4    4    0    0 -0.88209488613E+01  0.14987044240E+02 -0.58551100372E+02  0.61079063423E+02  0.00000000000E+00 0.  1.
</event>
<event>
 8    1  0.5951278E-006  0.9323417E+02  0.7561462E-02  0.1295203E+00
          2   -1    0    0  501    0  0.00000000000E+00  0.00000000000E+00  0.11683461505E+03  0.11683461505E+03  0.00000000000E+00 0.  1.
         -2   -1    0    0    0  501 -0.00000000000E+00 -0.00000000000E+00 -0.16782276354E+03  0.16782276354E+03  0.00000000000E+00 0. -1.
         23    2    1    2    0    0  0.66282276742E+02 -0.33676567014E+02 -0.76616002882E+02  0.16445189221E+03  0.12508781547E+03 0.  0.
         23    2    1    2    0    0 -0.66282276742E+02  0.33676567014E+02  0.25627854392E+02  0.12020548638E+03  0.90912709006E+02 0.  0.
          5    1    3    3  502    0  0.44406055771E+02 -0.20795931975E+02  0.28067161818E+02  0.56653389558E+02  0.41800000000E+01 0.  1.
         -5    1    3    3    0  502  0.21876220971E+02 -0.12880635039E+02 -0.10468316470E+03  0.10779850265E+03  0.41800000000E+01 0.  1.
        -11    1    4    4    0    0  0.13124370843E+02 -0.13772568602E+02 -0.94905358137E+01  0.21260362790E+02  0.00000000000E+00 0. -1.
         11    1    4    4    0    0 -0.79406647585E+02  0.47449135616E+02  0.35118390205E+02  0.98945123589E+02  0.00000000000E+00 0.  1.
</event>
<event>
 8    1  0.5951278E-006  0.1816603E+03  0.7561462E-02  0.1166206E+00
          1   -1    0    0  501    0  0.00000000000E+00  0.00000000000E+00  0.47315573279E+03  0.47315573279E+03  0.00000000000E+00 0. -1.
         -1   -1    0    0    0  501 -0.00000000000E+00 -0.00000000000E+00 -0.96809285526E+02  0.96809285526E+02  0.00000000000E+00 0.  1.
         23    2    1    2    0    0 -0.12519277357E+03 -0.73027781128E+02  0.46042364437E+02  0.19691300896E+03  0.12509415016E+03 0.  0.
         23    2    1    2    0    0  0.12519277357E+03  0.73027781128E+02  0.33030408283E+03  0.37305200936E+03  0.95187852063E+02 0.  0.
          5    1    3    3  502    0 -0.10986413896E+03  0.67085216464E+01  0.26992305810E+02  0.11340718789E+03  0.41800000000E+01 0.  1.
         -5    1    3    3    0  502 -0.15328634615E+02 -0.79736302774E+02  0.19050058626E+02  0.83505821072E+02  0.41800000000E+01 0.  1.
        -11    1    4    4    0    0  0.20705273369E+02  0.63682647951E+02  0.10521164282E+03  0.12471438481E+03  0.00000000000E+00 0. -1.
         11    1    4    4    0    0  0.10448750020E+03  0.93451331769E+01  0.22509244002E+03  0.24833762455E+03  0.00000000000E+00 0.  1.
</event>
<event>
 8    1  0.5951278E-006  0.1096257E+03  0.7561462E-02  0.1261265E+00
          2   -1    0    0  501    0  0.00000000000E+00  0.00000000000E+00  0.84337234908E+03  0.84337234908E+03  0.00000000000E+00 0. -1.
         -2   -1    0    0    0  501 -0.00000000000E+00 -0.00000000000E+00 -0.23199802996E+02  0.23199802996E+02  0.00000000000E+00 0.  1.
         23    2    1    2    0    0  0.71312054943E+02 -0.27440015910E+02  0.31173038905E+03  0.34449120181E+03  0.12513987780E+03 0.  0.
         23    2    1    2    0    0 -0.71312054943E+02  0.27440015910E+02  0.50844215703E+03  0.52208095026E+03  0.90646168847E+02 0.  0.
          5    1    3    3  502    0  0.64258004951E+02 -0.47061176539E+02  0.84233580580E+02  0.11600264667E+03  0.41800000000E+01 0.  1.
         -5    1    3    3    0  502  0.70540499919E+01  0.19621160629E+02  0.22749680847E+03  0.22848855514E+03  0.41800000000E+01 0.  1.
        -11    1    4    4    0    0  0.29681982534E+01  0.42360270935E+02  0.16444122877E+03  0.16983556893E+03  0.00000000000E+00 0. -1.
         11    1    4    4    0    0 -0.74280253196E+02 -0.14920255025E+02  0.34400092826E+03  0.35224538133E+03  0.00000000000E+00 0.  1.
</event>
<event>
 8    1  0.5951278E-006  0.1780608E+03  0.7561462E-02  0.1169693E+00
         -2   -1    0    0    0  501 -0.00000000000E+00  0.00000000000E+00  0.20039809840E+03  0.20039809840E+03  0.00000000000E+00 0.  1.
          2   -1    0    0  501    0  0.00000000000E+00 -0.00000000000E+00 -0.17796644039E+03  0.17796644039E+03  0.00000000000E+00 0. -1.
         23    2    1    2    0    0  0.10550842511E+03 -0.10337657532E+03  0.56712756605E+02  0.20167924069E+03  0.12505772775E+03 0.  0.
         23    2    1    2    0    0 -0.10550842511E+03  0.10337657532E+03 -0.34281098594E+02  0.17668529811E+03  0.90684931241E+02 0.  0.
          5    1    3    3  502    0 -0.12503564395E+02 -0.67077021909E+02  0.77788162201E+01  0.68801514318E+02  0.41800000000E+01 0. -1.
         -5    1    3    3    0  502  0.11801198950E+03 -0.36299553407E+02  0.48933940385E+02  0.13287772637E+03  0.41800000000E+01 0. -1.
        -11    1    4    4    0    0 -0.45120055047E+02  0.92422597092E+02  0.64097176543E+01  0.10304775738E+03  0.00000000000E+00 0.  1.
         11    1    4    4    0    0 -0.60388370062E+02  0.10953978224E+02 -0.40690816249E+02  0.73637540729E+02  0.00000000000E+00 0. -1.
</event>
<event>
 7    1  0.5951278E-006  0.1425476E+03  0.7561462E-02  0.1209942E+00
          1   -1    0    0  501    0  0.00000000000E+00  0.00000000000E+00  0.97749375050E+03  0.97749375050E+03  0.00000000000E+00 0. -1.
         -1   -1    0    0    0  501 -0.00000000000E+00 -0.00000000000E+00 -0.22821137859E+02  0.22821137859E+02  0.00000000000E+00 0.  1.
         23    2    1    2    0    0  0.75953277520E+02  0.48745763776E+02  0.53969874521E+03  0.55477329260E+03  0.91398144106E+02 0.  0.
          5    1    1    2  502    0 -0.93542341540E+02 -0.81545297039E+02  0.33375843554E+03  0.35610668461E+03  0.41800000000E+01 0. -1.
         -5    1    1    2    0  502  0.17589064020E+02  0.32799533263E+02  0.81215431890E+02  0.89434911150E+02  0.41800000000E+01 0.  1.
        -11    1    3    3    0    0  0.71955313756E+02 -0.25742155480E+01  0.38673748420E+03  0.39338286116E+03  0.00000000000E+00 0.  1.
         11    1    3    3    0    0  0.39979637633E+01  0.51319979324E+02  0.15296126101E+03  0.16139043144E+03  0.00000000000E+00 0. -1.
</event>
<event>
 8    1  0.5951278E-006  0.1822909E+03  0.7561462E-02  0.1165604E+00
         -1   -1    0    0    0  501 -0.00000000000E+00  0.00000000000E+00  0.27291990260E+03  0.27291990260E+03  0.00000000000E+00 0.  1.
          1   -1    0    0  501    0  0.00000000000E+00 -0.00000000000E+00 -0.13751709304E+03  0.13751709304E+03  0.00000000000E+00 0. -1.
         23    2    1    2    0    0 -0.84610114447E+02 -0.13329853523E+03  0.10204505490E+03  0.22580354914E+03  0.12508668440E+03 0.  0.
         23    2    1    2    0    0  0.84610114447E+02  0.13329853523E+03  0.33357754659E+02  0.18463344651E+03  0.89718441876E+02 0.  0.
          5    1    3    3  502    0 -0.14373754353E+02  0.24207220099E+02  0.92812138987E+01  0.29936727453E+02  0.41800000000E+01 0.  1.
         -5    1    3    3    0  502 -0.70236360094E+02 -0.15750575533E+03  0.92763841001E+02  0.19586682169E+03  0.41800000000E+01 0.  1.
        -11    1    4    4    0    0  0.32128319621E+02  0.90042258130E+02  0.58550139964E+02  0.11210689569E+03  0.00000000000E+00 0.  1.
         11    1    4    4    0    0  0.52481794826E+02  0.43256277097E+02 -0.25192385304E+02  0.72526550819E+02  0.00000000000E+00 0. -1.
</event>
<event>
 8    1  0.5951278E-006  0.1115068E+03  0.7561462E-02  0.1257805E+00
         -2   -1    0    0    0  501 -0.00000000000E+00  0.00000000000E+00  0.57732547329E+03  0.57732547329E+03  0.00000000000E+00 0.  1.
          2   -1    0    0  501    0  0.00000000000E+00 -0.00000000000E+00 -0.26086433890E+02  0.26086433890E+02  0.00000000000E+00 0. -1.
         23    2    1    2    0    0  0.50023454529E+02  0.74813958891E+01  0.35260356232E+03  0.37837474260E+03  0.12759254049E+03 0.  0.
         23    2    1    2    0    0 -0.50023454529E+02 -0.74813958891E+01  0.19863547708E+03  0.22503716458E+03  0.92883558288E+02 0.  0.
          5    1    3    3  502    0 -0.28178864472E+02  0.24098783822E+02  0.36154439830E+02  0.51955901532E+02  0.41800000000E+01 0. -1.
         -5    1    3    3    0  502  0.78202319000E+02 -0.16617387932E+02  0.31644912249E+03  0.32641884106E+03  0.41800000000E+01 0.  1.
        -11    1    4    4    0    0  0.27607866796E+02  0.41449280309E+00  0.56723863103E+02  0.63086946024E+02  0.00000000000E+00 0.  1.
         11    1    4    4    0    0 -0.77631321325E+02 -0.78958886922E+01  0.14191161398E+03  0.16195021856E+03  0.00000000000E+00 0. -1.
</event>
<event>
 8    1  0.5951278E-006  0.1445131E+03  0.7561462E-02  0.1207382E+00
         -1   -1    0    0    0  501 -0.00000000000E+00  0.00000000000E+00  0.20770340631E+03  0.20770340631E+03  0.00000000000E+00 0.  1.
          1   -1    0    0  501    0  0.00000000000E+00 -0.00000000000E+00 -0.18646335733E+03  0.18646335733E+03  0.00000000000E+00 0. -1.
         23    2    1    2    0    0  0.12537412647E+03 -0.51922724001E+02  0.10299662693E+03  0.21134287107E+03  0.12507143213E+03 0.  0.
         23    2    1    2    0    0 -0.12537412647E+03  0.51922724001E+02 -0.81756577947E+02  0.18282389257E+03  0.91245804297E+02 0.  0.
          5    1    3    3  502    0  0.27940695941E+02  0.69942330445E+01  0.92443466031E+02  0.96916812770E+02  0.41800000000E+01 0.  1.
         -5    1    3    3    0  502  0.97433430529E+02 -0.58916957045E+02  0.10553160895E+02  0.11442605830E+03  0.41800000000E+01 0.  1.
        -11    1    4    4    0    0 -0.38673580522E+02  0.44513271239E+02  0.59608900444E+01  0.59267270537E+02  0.00000000000E+00 0.  1.
         11    1    4    4    0    0 -0.86700545949E+02  0.74094527621E+01 -0.87717467992E+02  0.12355662204E+03  0.00000000000E+00 0. -1.
</event>
<event>
 8    1  0.5951278E-006  0.1656391E+03  0.7561462E-02  0.1182473E+00
          1   -1    0    0  501    0  0.00000000000E+00  0.00000000000E+00  0.37115194885E+03  0.37115194885E+03  0.00000000000E+00 0. -1.
         -1   -1    0    0    0  501 -0.00000000000E+00 -0.00000000000E+00 -0.97074683570E+02  0.97074683570E+02  0.00000000000E+00 0.  1.
         23    2    1    2    0    0  0.13682809752E+03 -0.14087320408E+02  0.54639913454E+02  0.19378896040E+03  0.12509300606E+03 0.  0.
         23    2    1    2    0    0 -0.13682809752E+03  0.14087320408E+02  0.21943735183E+03  0.27443767202E+03  0.90790437697E+02 0.  0.
          5    1    3    3  502    0  0.84221809253E+02  0.52690472609E+02  0.17660100961E+02  0.10098985406E+03  0.41800000000E+01 0.  1.
         -5    1    3    3    0  502  0.52606288269E+02 -0.66777793017E+02  0.36979812493E+02  0.92799106341E+02  0.41800000000E+01 0.  1.
        -11    1    4    4    0    0 -0.12256909827E+03  0.29152903237E+02  0.12400746281E+03  0.17677931568E+03  0.00000000000E+00 0.  1.
         11    1    4    4    0    0 -0.14258999253E+02 -0.15065582829E+02  0.95429889017E+02  0.97658356342E+02  0.00000000000E+00 0. -1.
</event>
<event>
 8    1  0.5951278E-006  0.7810048E+02  0.7561462E-02  0.1334530E+00
         -2   -1    0    0    0  501 -0.00000000000E+00  0.00000000000E+00  0.24513485665E+03  0.24513485665E+03  0.00000000000E+00 0. -1.
          2   -1    0    0  501    0  0.00000000000E+00 -0.00000000000E+00 -0.61744255698E+02  0.61744255698E+02  0.00000000000E+00 0.  1.
         23    2    1    2    0    0 -0.47102209514E+02  0.30387659517E+02  0.12262645375E+03  0.18391906387E+03  0.12508775681E+03 0.  0.
         23    2    1    2    0    0  0.47102209514E+02 -0.30387659517E+02  0.60764147194E+02  0.12296004847E+03  0.91021227983E+02 0.  0.
          5    1    3    3  502    0 -0.10702494899E+02  0.32661050432E+01 -0.25917626361E+02  0.28537809926E+02  0.41800000000E+01 0. -1.
         -5    1    3    3    0  502 -0.36399714615E+02  0.27121554473E+02  0.14854408011E+03  0.15538125395E+03  0.41800000000E+01 0. -1.
        -11    1    4    4    0    0  0.16239831809E+02  0.28148481565E+02 -0.89872464918E+00  0.32509642533E+02  0.00000000000E+00 0.  1.
         11    1    4    4    0    0  0.30862377704E+02 -0.58536141082E+02  0.61662871843E+02  0.90450405937E+02  0.00000000000E+00 0. -1.
</event>
<event>
 8    1  0.5951278E-006  0.3678835E+03  0.7561462E-02  0.1055505E+00
          1   -1    0    0  501    0  0.00000000000E+00  0.00000000000E+00  0.93308923924E+03  0.93308923924E+03  0.00000000000E+00 0. -1.
         -1   -1    0    0    0  501 -0.00000000000E+00 -0.00000000000E+00 -0.17870432419E+03  0.17870432419E+03  0.00000000000E+00 0.  1.
         23    2    1    2    0    0  0.31822184224E+03  0.18153163039E+03  0.18620734491E+03  0.42956461402E+03  0.12503482957E+03 0.  0.
         23    2    1    2    0    0 -0.31822184224E+03 -0.18153163039E+03  0.56817757014E+03  0.68222894942E+03  0.91606301629E+02 0.  0.
          5    1    3    3  502    0  0.20055982574E+02  0.88854299980E+00  0.52148484947E+02  0.56035424759E+02  0.41800000000E+01 0. -1.
         -5    1    3    3    0  502  0.29816585967E+03  0.18064308739E+03  0.13405885996E+03  0.37352918926E+03  0.41800000000E+01 0. -1.
        -11    1    4    4    0    0 -0.97763863390E+02 -0.48526445482E+02  0.10052871228E+03  0.14838669377E+03  0.00000000000E+00 0.  1.
         11    1    4    4    0    0 -0.22045797885E+03 -0.13300518491E+03  0.46764885786E+03  0.53384225565E+03  0.00000000000E+00 0. -1.
</event>
<event>
 8    1  0.5951278E-006  0.8004106E+02  0.7561462E-02  0.1328935E+00
          1   -1    0    0  501    0  0.00000000000E+00  0.00000000000E+00  0.40548473079E+02  0.40548473079E+02  0.00000000000E+00 0. -1.
         -1   -1    0    0    0  501 -0.00000000000E+00 -0.00000000000E+00 -0.33219104892E+03  0.33219104892E+03  0.00000000000E+00 0.  1.
         23    2    1    2    0    0  0.33322637538E+02  0.23536751353E+02 -0.14814646419E+03  0.19813680230E+03  0.12508573355E+03 0.  0.
         23    2    1    2    0    0 -0.33322637538E+02 -0.23536751353E+02 -0.14349611165E+03  0.17460271970E+03  0.90722647832E+02 0.  0.
          5    1    3    3  502    0  0.63849580152E+02  0.30492085885E+01 -0.23694191583E+02  0.68300466129E+02  0.41800000000E+01 0. -1.
         -5    1    3    3    0  502 -0.30526942614E+02  0.20487542764E+02 -0.12445227260E+03  0.12983633617E+03  0.41800000000E+01 0. -1.
        -11    1    4    4    0    0 -0.35036869539E+02  0.38474040536E+00 -0.14631754586E+03  0.15045449305E+03  0.00000000000E+00 0.  1.
         11    1    4    4    0    0  0.17142320009E+01 -0.23921491758E+02  0.28214342068E+01  0.24148226649E+02  0.00000000000E+00 0. -1.
</event>
<event>
 8    1  0.5951278E-006  0.9222628E+02  0.7561462E-02  0.1297548E+00
          1   -1    0    0  501    0  0.00000000000E+00  0.00000000000E+00  0.21836775657E+03  0.21836775657E+03  0.00000000000E+00 0. -1.
         -1   -1    0    0    0  501 -0.00000000000E+00 -0.00000000000E+00 -0.97230089724E+02  0.97230089724E+02  0.00000000000E+00 0.  1.
         23    2    1    2    0    0  0.11058732600E+02  0.60929233616E+02 -0.15196541747E+02  0.14040856329E+03  0.12509581403E+03 0.  0.
         23    2    1    2    0    0 -0.11058732600E+02 -0.60929233616E+02  0.13633420859E+03  0.17518928300E+03  0.90937348612E+02 0.  0.
          5    1    3    3  502    0  0.33153861571E+02  0.41658216544E+01  0.43973069856E+02  0.55386242693E+02  0.41800000000E+01 0. -1.
         -5    1    3    3    0  502 -0.22095128971E+02  0.56763411961E+02 -0.59169611602E+02  0.85022320592E+02  0.41800000000E+01 0. -1.
        -11    1    4    4    0    0 -0.38457804797E+02 -0.36091731648E+02  0.25958682912E+02  0.58783237931E+02  0.00000000000E+00 0.  1.
         11    1    4    4    0    0  0.27399072197E+02 -0.24837501968E+02  0.11037552568E+03  0.11640604507E+03  0.00000000000E+00 0. -1.
</event>
<event>
 8    1  0.5951278E-006  0.1638718E+03  0.7561462E-02  0.1184394E+00
          1   -1    0    0  501    0  0.00000000000E+00  0.00000000000E+00  0.38782073800E+03  0.38782073800E+03  0.00000000000E+00 0.  1.
         -1   -1    0    0    0  501 -0.00000000000E+00 -0.00000000000E+00 -0.83906130476E+02  0.83906130476E+02  0.00000000000E+00 0. -1.
         23    2    1    2    0    0 -0.10373235310E+03 -0.99054580418E+02  0.13971503605E+03  0.23609363804E+03  0.12509078161E+03 0.  0.
         23    2    1    2    0    0  0.10373235310E+03  0.99054580418E+02  0.16419957147E+03  0.23563323043E+03  0.89382934793E+02 0.  0.
          5    1    3    3  502    0 -0.16020304349E+01 -0.63987196678E+02  0.63712234546E+01  0.64459233074E+02  0.41800000000E+01 0.  1.
         -5    1    3    3    0  502 -0.10213032266E+03 -0.35067383740E+02  0.13334381260E+03  0.17163440497E+03  0.41800000000E+01 0.  1.
        -11    1    4    4    0    0  0.59639888008E+02  0.16395761438E+02  0.11312845173E+03  0.12893325337E+03  0.00000000000E+00 0.  1.
         11    1    4    4    0    0  0.44092465091E+02  0.82658818980E+02  0.51071119738E+02  0.10669997706E+03  0.00000000000E+00 0. -1.
</event>
<event>
 8    1  0.5951278E-006  0.9676376E+02  0.7561462E-02  0.1287252E+00
         -2   -1    0    0    0  501 -0.00000000000E+00  0.00000000000E+00  0.82122911778E+02  0.82122911778E+02  0.00000000000E+00 0. -1.
          2   -1    0    0  501    0  0.00000000000E+00 -0.00000000000E+00 -0.16723202844E+03  0.16723202844E+03  0.00000000000E+00 0.  1.
         23    2    1    2    0    0 -0.10469886750E+01  0.37951142808E+02 -0.26153533391E+02  0.13331475454E+03  0.12508969200E+03 0.  0.
         23    2    1    2    0    0  0.10469886750E+01 -0.37951142808E+02 -0.58955583270E+02  0.11604018567E+03  0.92456359796E+02 0.  0.
          5    1    3    3  502    0 -0.18986588308E+02 -0.29409818394E+02  0.27937444469E+02  0.44982231570E+02  0.41800000000E+01 0. -1.
         -5    1    3    3    0  502  0.17939599633E+02  0.67360961202E+02 -0.54090977860E+02  0.88332522974E+02  0.41800000000E+01 0. -1.
        -11    1    4    4    0    0  0.16655167388E+02 -0.59524745536E+02 -0.63959807585E+02  0.88946314810E+02  0.00000000000E+00 0. -1.
         11    1    4    4    0    0 -0.15608178713E+02  0.21573602728E+02  0.50042243152E+01  0.27093870864E+02  0.00000000000E+00 0.  1.
</event>
<event>
 8    1  0.5951278E-006  0.1765577E+03  0.7561462E-02  0.1171177E+00
          1   -1    0    0  501    0  0.00000000000E+00  0.00000000000E+00  0.42701907270E+03  0.42701907270E+03  0.00000000000E+00 0. -1.
         -1   -1    0    0    0  501 -0.00000000000E+00 -0.00000000000E+00 -0.32196841498E+03  0.32196841498E+03  0.00000000000E+00 0.  1.
         23    2    1    2    0    0  0.98193109521E+02  0.12725601388E+03 -0.26868508634E+03  0.33205985515E+03  0.11061687010E+03 0.  0.
         23    2    1    2    0    0 -0.98193109521E+02 -0.12725601388E+03  0.37373574406E+03  0.41692763254E+03  0.91182589130E+02 0.  0.
          5    1    3    3  502    0 -0.19636986660E+02  0.41670097836E+02 -0.41332690398E+02  0.62031217901E+02  0.41800000000E+01 0. -1.
         -5    1    3    3    0  502  0.11783009618E+03  0.85585916046E+02 -0.22735239594E+03  0.27002863725E+03  0.41800000000E+01 0.  1.
        -11    1    4    4    0    0 -0.47548100780E+02 -0.52041633125E+02  0.67682832497E+02  0.97724711721E+02  0.00000000000E+00 0.  1.
         11    1    4    4    0    0 -0.50645008741E+02 -0.75214380756E+02  0.30605291156E+03  0.31920292082E+03  0.00000000000E+00 0. -1.
</event>
<event>
 8    1  0.5951278E-006  0.1568941E+03  0.7561462E-02  0.1192249E+00
         -4   -1    0    0    0  501 -0.00000000000E+00  0.00000000000E+00  0.22017535974E+03  0.22017535974E+03  0.00000000000E+00 0.  1.
          4   -1    0    0  501    0  0.00000000000E+00 -0.00000000000E+00 -0.12442388504E+03  0.12442388504E+03  0.00000000000E+00 0. -1.
         23    2    1    2    0    0 -0.47486683582E+02 -0.11507006595E+03  0.47303586287E+02  0.18271560447E+03  0.12510498650E+03 0.  0.
         23    2    1    2    0    0  0.47486683582E+02  0.11507006595E+03  0.48447888409E+02  0.16188364031E+03  0.91449493784E+02 0.  0.
          5    1    3    3  502    0  0.27349270057E+01  0.17223024594E+02  0.36584984499E+02  0.40743660767E+02  0.41800000000E+01 0. -1.
         -5    1    3    3    0  502 -0.50221610587E+02 -0.13229309054E+03  0.10718601788E+02  0.14197194371E+03  0.41800000000E+01 0. -1.
        -11    1    4    4    0    0  0.57236521791E+02  0.12675006363E+03  0.45930160573E+02  0.14646220573E+03  0.00000000000E+00 0.  1.
         11    1    4    4    0    0 -0.97498382097E+01 -0.11679997683E+02  0.25177278361E+01  0.15421434578E+02  0.00000000000E+00 0. -1.
</event>
<event>
 8    1  0.5951278E-006  0.8802128E+02  0.7561462E-02  0.1307715E+00
          1   -1    0    0  501    0  0.00000000000E+00  0.00000000000E+00  0.14914074288E+03  0.14914074288E+03  0.00000000000E+00 0. -1.
         -1   -1    0    0    0  501 -0.00000000000E+00 -0.00000000000E+00 -0.16391246142E+03  0.16391246142E+03  0.00000000000E+00 0.  1.
         23    2    1    2    0    0 -0.14746098892E+02 -0.64736706633E+02 -0.99480132189E+02  0.17306390038E+03  0.12508608354E+03 0.  0.
         23    2    1    2    0    0  0.14746098892E+02  0.64736706633E+02  0.84708413647E+02  0.13998930392E+03  0.89516485915E+02 0.  0.
          5    1    3    3  502    0  0.43301263462E+01  0.13666678578E+02 -0.90549862484E+02  0.91772970385E+02  0.41800000000E+01 0.  1.
         -5    1    3    3    0  502 -0.19076225238E+02 -0.78403385211E+02 -0.89302697052E+01  0.81290929992E+02  0.41800000000E+01 0.  1.
        -11    1    4    4    0    0 -0.56695573771E+01  0.58767055437E+02  0.70367155205E+01  0.59457766952E+02  0.00000000000E+00 0. -1.
         11    1    4    4    0    0  0.20415656269E+02  0.59696511964E+01  0.77671698127E+02  0.80531536967E+02  0.00000000000E+00 0.  1.
</event>
<event>
 8    1  0.5951278E-006  0.1219819E+03  0.7561462E-02  0.1239863E+00
         -2   -1    0    0    0  501 -0.00000000000E+00  0.00000000000E+00  0.22396245235E+02  0.22396245235E+02  0.00000000000E+00 0.  1.
          2   -1    0    0  501    0  0.00000000000E+00 -0.00000000000E+00 -0.76961804427E+03  0.76961804427E+03  0.00000000000E+00 0. -1.
         23    2    1    2    0    0 -0.72898497234E+02  0.10441979274E+02 -0.38074070773E+03  0.40747321116E+03  0.12509078889E+03 0.  0.
         23    2    1    2    0    0  0.72898497234E+02 -0.10441979274E+02 -0.36648109131E+03  0.38454107834E+03  0.90223194450E+02 0.  0.
          5    1    3    3  502    0 -0.18992778323E+02 -0.47814158912E+02 -0.24321772579E+03  0.24863478027E+03  0.41800000000E+01 0.  1.
         -5    1    3    3    0  502 -0.53905718912E+02  0.58256138186E+02 -0.13752298193E+03  0.15883843089E+03  0.41800000000E+01 0.  1.
        -11    1    4    4    0    0 -0.19575219191E+02  0.14598660519E+01 -0.34263394726E+02  0.39487980873E+02  0.00000000000E+00 0.  1.
         11    1    4    4    0    0  0.92473716425E+02 -0.11901845325E+02 -0.33221769658E+03  0.34505309747E+03  0.00000000000E+00 0. -1.
</event>
<event>
 8    1  0.5951278E-006  0.8460277E+02  0.7561462E-02  0.1316475E+00
          1   -1    0    0  501    0  0.00000000000E+00  0.00000000000E+00  0.28946881900E+02  0.28946881900E+02  0.00000000000E+00 0. -1.
         -1   -1    0    0    0  501 -0.00000000000E+00 -0.00000000000E+00 -0.50167308125E+03  0.50167308125E+03  0.00000000000E+00 0.  1.
         23    2    1    2    0    0 -0.20275872358E+02 -0.48033985666E+02 -0.28725075337E+03  0.31761462104E+03  0.12509067675E+03 0.  0.
         23    2    1    2    0    0  0.20275872358E+02  0.48033985666E+02 -0.18547544598E+03  0.21300534210E+03  0.90839198177E+02 0.  0.
          5    1    3    3  502    0 -0.32016171323E+02 -0.16884369642E+02 -0.92435648024E+01  0.37590331930E+02  0.41800000000E+01 0.  1.
         -5    1    3    3    0  502  0.11740298965E+02 -0.31149616024E+02 -0.27800718857E+03  0.28002428911E+03  0.41800000000E+01 0.  1.
        -11    1    4    4    0    0 -0.19378940289E+02 -0.15166575189E+02 -0.20820091403E+02  0.32234213744E+02  0.00000000000E+00 0. -1.
         11    1    4    4    0    0  0.39654812647E+02  0.63200560854E+02 -0.16465535458E+03  0.18077112836E+03  0.00000000000E+00 0.  1.
</event>
<event>
 8    1  0.5951278E-006  0.1375239E+03  0.7561462E-02  0.1216700E+00
          2   -1    0    0  501    0  0.00000000000E+00  0.00000000000E+00  0.39881077598E+03  0.39881077598E+03  0.00000000000E+00 0. -1.
         -2   -1    0    0    0  501 -0.00000000000E+00 -0.00000000000E+00 -0.75080655284E+02  0.75080655284E+02  0.00000000000E+00 0.  1.
         23    2    1    2    0    0  0.10764647808E+03 -0.93586833889E+01  0.54211311987E+02  0.16981149244E+03  0.11925488426E+03 0.  0.
         23    2    1    2    0    0 -0.10764647808E+03  0.93586833889E+01  0.26951880871E+03  0.30407993882E+03  0.90271101415E+02 0.  0.
          5    1    3    3  502    0 -0.16941869921E+02 -0.78586015452E+01  0.39992565819E+02  0.44335790231E+02  0.41800000000E+01 0. -1.
         -5    1    3    3    0  502  0.12458834800E+03 -0.15000818437E+01  0.14218746168E+02  0.12547570221E+03  0.41800000000E+01 0.  1.
        -11    1    4    4    0    0  0.95365565113E+01  0.10325298548E+02  0.52681222524E+01  0.15010356833E+02  0.00000000000E+00 0.  1.
         11    1    4    4    0    0 -0.11718303459E+03 -0.96661515874E+00  0.26425068646E+03  0.28906958199E+03  0.00000000000E+00 0. -1.
</event>
<event>
 8    1  0.5951278E-006  0.6933111E+02  0.7561462E-02  0.1362383E+00
         -1   -1    0    0    0  501 -0.00000000000E+00  0.00000000000E+00  0.23940411656E+02  0.23940411656E+02  0.00000000000E+00 0.  1.
          1   -1    0    0  501    0  0.00000000000E+00 -0.00000000000E+00 -0.57128441873E+03  0.57128441873E+03  0.00000000000E+00 0. -1.
         23    2    1    2    0    0 -0.32419329154E+02 -0.31732500274E+02 -0.28048204584E+03  0.31044471279E+03  0.12509107556E+03 0.  0.
         23    2    1    2    0    0  0.32419329154E+02  0.31732500274E+02 -0.26686196123E+03  0.28478011759E+03  0.88467194749E+02 0.  0.
          5    1    3    3  502    0  0.45253922693E+01 -0.11083168734E+01  0.12260409061E+02  0.13765811702E+02  0.41800000000E+01 0. -1.
         -5    1    3    3    0  502 -0.36944721423E+02 -0.30624183400E+02 -0.29274245490E+03  0.29667890109E+03  0.41800000000E+01 0. -1.
        -11    1    4    4    0    0  0.29890205805E+02  0.54055073910E+02 -0.24759740702E+03  0.25518591533E+03  0.00000000000E+00 0. -1.
         11    1    4    4    0    0  0.25291233487E+01 -0.22322573636E+02 -0.19264554209E+02  0.29594202262E+02  0.00000000000E+00 0.  1.
</event>
<event>
 8    1  0.5951278E-006  0.1310182E+03  0.7561462E-02  0.1225953E+00
         -2   -1    0    0    0  501 -0.00000000000E+00  0.00000000000E+00  0.39363162867E+03  0.39363162867E+03  0.00000000000E+00 0.  1.
          2   -1    0    0  501    0  0.00000000000E+00 -0.00000000000E+00 -0.52504737939E+02  0.52504737939E+02  0.00000000000E+00 0. -1.
         23    2    1    2    0    0 -0.90172408961E+02 -0.23301477641E+02  0.19791175431E+03  0.25197051104E+03  0.12508418662E+03 0.  0.
         23    2    1    2    0    0  0.90172408961E+02  0.23301477641E+02  0.14321513642E+03  0.19416585557E+03  0.92280994629E+02 0.  0.
          5    1    3    3  502    0 -0.25131335582E+02  0.45202300083E+02  0.31869754796E+02  0.60893231411E+02  0.41800000000E+01 0.  1.
         -5    1    3    3    0  502 -0.65041073379E+02 -0.68503777725E+02  0.16604199951E+03  0.19107727963E+03  0.41800000000E+01 0.  1.
        -11    1    4    4    0    0  0.70901025704E+02 -0.15224559503E+02  0.13042599778E+03  0.14923030374E+03  0.00000000000E+00 0.  1.
         11    1    4    4    0    0  0.19271383258E+02  0.38526037144E+02  0.12789138642E+02  0.44935551826E+02  0.00000000000E+00 0. -1.
</event>
<event>
 8    1  0.5951278E-006  0.1083462E+03  0.7561462E-02  0.1263663E+00
          3   -1    0    0  501    0  0.00000000000E+00  0.00000000000E+00  0.30588711369E+03  0.30588711369E+03  0.00000000000E+00 0. -1.
         -3   -1    0    0    0  501 -0.00000000000E+00 -0.00000000000E+00 -0.90718857992E+02  0.90718857992E+02  0.00000000000E+00 0.  1.
         23    2    1    2    0    0 -0.46495787891E+02 -0.46010739640E+02 -0.14043610266E+02  0.14185926442E+03  0.12509189206E+03 0.  0.
         23    2    1    2    0    0  0.46495787891E+02  0.46010739640E+02  0.22921186597E+03  0.25474670726E+03  0.89883029025E+02 0.  0.
          5    1    3    3  502    0 -0.31762811664E+02 -0.88519300261E+02  0.12843347722E+01  0.94147037336E+02  0.41800000000E+01 0.  1.
         -5    1    3    3    0  502 -0.14732976228E+02  0.42508560621E+02 -0.15327945038E+02  0.47712227087E+02  0.41800000000E+01 0.  1.
        -11    1    4    4    0    0 -0.14297582739E+00  0.27009877232E+02  0.84318198396E+01  0.28295750493E+02  0.00000000000E+00 0.  1.
         11    1    4    4    0    0  0.46638763719E+02  0.19000862408E+02  0.22078004613E+03  0.22645095677E+03  0.00000000000E+00 0. -1.
</event>
<event>
 8    1  0.5951278E-006  0.1889183E+03  0.7561462E-02  0.1159441E+00
         -4   -1    0    0    0  501 -0.00000000000E+00  0.00000000000E+00  0.24235301031E+03  0.24235301031E+03  0.00000000000E+00 0.  1.
          4   -1    0    0  501    0  0.00000000000E+00 -0.00000000000E+00 -0.32445553727E+03  0.32445553727E+03  0.00000000000E+00 0. -1.
         23    2    1    2    0    0  0.18191512527E+03 -0.21374094333E+02  0.14206695968E+03  0.26340259893E+03  0.12509173986E+03 0.  0.
         23    2    1    2    0    0 -0.18191512527E+03  0.21374094333E+02 -0.22416948664E+03  0.30340594865E+03  0.90847378740E+02 0.  0.
          5    1    3    3  502    0  0.11159407902E+03 -0.38368158413E+02  0.14955519636E+03  0.19055073658E+03  0.41800000000E+01 0. -1.
         -5    1    3    3    0  502  0.70321046252E+02  0.16994064080E+02 -0.74882366836E+01  0.72851862354E+02  0.41800000000E+01 0. -1.
        -11    1    4    4    0    0 -0.12318888170E+03  0.32761369622E+02 -0.88636492734E+02  0.15525860929E+03  0.00000000000E+00 0.  1.
         11    1    4    4    0    0 -0.58726243571E+02 -0.11387275289E+02 -0.13553299391E+03  0.14814733936E+03  0.00000000000E+00 0. -1.
</event>
<event>
 8    1  0.5951278E-006  0.1134786E+03  0.7561462E-02  0.1254260E+00
          2   -1    0    0  501    0  0.00000000000E+00  0.00000000000E+00  0.81165317833E+01  0.81165317833E+01  0.00000000000E+00 0. -1.
         -2   -1    0    0    0  501 -0.00000000000E+00 -0.00000000000E+00 -0.25098932197E+04  0.25098932197E+04  0.00000000000E+00 0.  1.
         23    2    1    2    0    0  0.25428986077E+02 -0.36790509353E+02 -0.20884904727E+04  0.20927112864E+04  0.12509156190E+03 0.  0.
         23    2    1    2    0    0 -0.25428986077E+02  0.36790509353E+02 -0.41328621522E+03  0.42529846506E+03  0.89850507966E+02 0.  0.
          5    1    3    3  502    0  0.20425980814E+02  0.44377059001E+02 -0.60267772652E+03  0.60466888336E+03  0.41800000000E+01 0. -1.
         -5    1    3    3    0  502  0.50030052634E+01 -0.81167568354E+02 -0.14858127462E+04  0.14880424030E+04  0.41800000000E+01 0. -1.
        -11    1    4    4    0    0  0.31372289166E+02  0.20237850795E+02 -0.10636028101E+03  0.11272222722E+03  0.00000000000E+00 0. -1.
         11    1    4    4    0    0 -0.56801275242E+02  0.16552658558E+02 -0.30692593421E+03  0.31257623784E+03  0.00000000000E+00 0.  1.
</event>
<event>
 8    1  0.5951278E-006  0.1058259E+03  0.7561462E-02  0.1268501E+00
         -1   -1    0    0    0  501 -0.00000000000E+00  0.00000000000E+00  0.43438722140E+02  0.43438722140E+02  0.00000000000E+00 0.  1.
          1   -1    0    0  501    0  0.00000000000E+00 -0.00000000000E+00 -0.42108900803E+03  0.42108900803E+03  0.00000000000E+00 0. -1.
         23    2    1    2    0    0 -0.22956494113E+02 -0.28377754111E+01 -0.74852984621E+02  0.14759163831E+03  0.12508104892E+03 0.  0.
         23    2    1    2    0    0  0.22956494113E+02  0.28377754111E+01 -0.30279730127E+03  0.31693609186E+03  0.90704063195E+02 0.  0.
          5    1    3    3  502    0  0.51863670581E+02 -0.12547612685E+01 -0.34780268952E+02  0.62598356690E+02  0.41800000000E+01 0.  1.
         -5    1    3    3    0  502 -0.74820164694E+02 -0.15830141427E+01 -0.40072715670E+02  0.84993281615E+02  0.41800000000E+01 0.  1.
        -11    1    4    4    0    0 -0.30551825003E+02  0.56467277010E+01 -0.52814948904E+02  0.61275756809E+02  0.00000000000E+00 0. -1.
         11    1    4    4    0    0  0.53508319116E+02 -0.28089522898E+01 -0.24998235236E+03  0.25566033505E+03  0.00000000000E+00 0.  1.
</event>
<event>
 8    1  0.5951278E-006  0.1010055E+03  0.7561462E-02  0.1278196E+00
          1   -1    0    0  501    0  0.00000000000E+00  0.00000000000E+00  0.26010813553E+03  0.26010813553E+03  0.00000000000E+00 0. -1.
         -1   -1    0    0    0  501 -0.00000000000E+00 -0.00000000000E+00 -0.65428402519E+02  0.65428402519E+02  0.00000000000E+00 0.  1.
         23    2    1    2    0    0  0.59243304615E+02 -0.19421277092E+02  0.63035275464E+02  0.15333889795E+03  0.12510961803E+03 0.  0.
         23    2    1    2    0    0 -0.59243304615E+02  0.19421277092E+02  0.13164445755E+03  0.17219764010E+03  0.91841215741E+02 0.  0.
          5    1    3    3  502    0 -0.13827348679E+02  0.40890808189E+02  0.93643665024E+01  0.44366851656E+02  0.41800000000E+01 0.  1.
         -5    1    3    3    0  502  0.73070653294E+02 -0.60312085282E+02  0.53670908961E+02  0.10897204629E+03  0.41800000000E+01 0.  1.
        -11    1    4    4    0    0 -0.23344314602E+02  0.78587357171E+00  0.12961102188E+03  0.13169886717E+03  0.00000000000E+00 0. -1.
         11    1    4    4    0    0 -0.35898990013E+02  0.18635403521E+02  0.20334356656E+01  0.40498772931E+02  0.00000000000E+00 0.  1.
</event>
<event>
 8    1  0.5951278E-006  0.9754332E+02  0.7561462E-02  0.1285548E+00
         -2   -1    0    0    0  501 -0.00000000000E+00  0.00000000000E+00  0.83721270646E+02  0.83721270646E+02  0.00000000000E+00 0.  1.
          2   -1    0    0  501    0  0.00000000000E+00 -0.00000000000E+00 -0.17709791699E+03  0.17709791699E+03  0.00000000000E+00 0. -1.
         23    2    1    2    0    0  0.31850451865E+02  0.33848692938E+02 -0.19930743544E+02  0.13493434164E+03  0.12509938736E+03 0.  0.
         23    2    1    2    0    0 -0.31850451865E+02 -0.33848692938E+02 -0.73445902803E+02  0.12588484600E+03  0.91063211645E+02 0.  0.
          5    1    3    3  502    0  0.21509671027E+02  0.72936099305E+02 -0.43743208069E+02  0.87825287826E+02  0.41800000000E+01 0. -1.
         -5    1    3    3    0  502  0.10340780838E+02 -0.39087406367E+02  0.23812464525E+02  0.47109053818E+02  0.41800000000E+01 0. -1.
        -11    1    4    4    0    0 -0.40757376967E+02  0.25236943718E+01 -0.78118085078E+02  0.88147422122E+02  0.00000000000E+00 0. -1.
         11    1    4    4    0    0  0.89069251024E+01 -0.36372387310E+02  0.46721822743E+01  0.37737423874E+02  0.00000000000E+00 0.  1.
</event>
<event>
 6    1  0.5951278E-006  0.9959502E+02  0.7561462E-02  0.1281150E+00
         -1   -1    0    0    0  501 -0.00000000000E+00  0.00000000000E+00  0.16676369296E+03  0.16676369296E+03  0.00000000000E+00 0.  1.
          1   -1    0    0  501    0  0.00000000000E+00 -0.00000000000E+00 -0.15449327634E+03  0.15449327634E+03  0.00000000000E+00 0. -1.
          5    1    1    2  502    0  0.26795822698E+02 -0.66550150035E+02  0.37534740426E+02  0.81075691318E+02  0.41800000000E+01 0. -1.
         -5    1    1    2    0  502 -0.51402837056E+02  0.82814142289E+02  0.82669290644E+02  0.12787539965E+03  0.41800000000E+01 0.  1.
        -11    1    1    2    0    0  0.12717081667E+02 -0.60102715982E+01 -0.35392785622E+02  0.38085388339E+02  0.00000000000E+00 0. -1.
         11    1    1    2    0    0  0.11889932691E+02 -0.10253720656E+02 -0.72540828826E+02  0.74220489984E+02  0.00000000000E+00 0.  1.
</event>
<event>
 8    1  0.5951278E-006  0.1303048E+03  0.7561462E-02  0.1227004E+00
         -2   -1    0    0    0  501 -0.00000000000E+00  0.00000000000E+00  0.43399337892E+02  0.43399337892E+02  0.00000000000E+00 0. -1.
          2   -1    0    0  501    0  0.00000000000E+00 -0.00000000000E+00 -0.43986451734E+03  0.43986451734E+03  0.00000000000E+00 0.  1.
         23    2    1    2    0    0 -0.53287289439E+02  0.67338200582E+02 -0.19979534637E+03  0.25088058165E+03  0.12509563280E+03 0.  0.
         23    2    1    2    0    0  0.53287289439E+02 -0.67338200582E+02 -0.19666983307E+03  0.23238327358E+03  0.89157131650E+02 0.  0.
          5    1    3    3  502    0 -0.84688588096E+02  0.34440731626E+02 -0.17827518673E+03  0.20039420040E+03  0.41800000000E+01 0. -1.
         -5    1    3    3    0  502  0.31401298657E+02  0.32897468957E+02 -0.21520159637E+02  0.50486381252E+02  0.41800000000E+01 0. -1.
        -11    1    4    4    0    0 -0.20114394700E+01 -0.68086717811E+02 -0.11736038896E+03  0.13569564447E+03  0.00000000000E+00 0.  1.
         11    1    4    4    0    0  0.55298728909E+02  0.74851722901E+00 -0.79309444107E+02  0.96687629102E+02  0.00000000000E+00 0. -1.
</event>
<event>
 8    1  0.5951278E-006  0.1091817E+03  0.7561462E-02  0.1262093E+00
          2   -1    0    0  501    0  0.00000000000E+00  0.00000000000E+00  0.39080909137E+02  0.39080909137E+02  0.00000000000E+00 0. -1.
         -2   -1    0    0    0  501 -0.00000000000E+00 -0.00000000000E+00 -0.31510540317E+03  0.31510540317E+03  0.00000000000E+00 0.  1.
         23    2    1    2    0    0 -0.20117533116E+02 -0.16605125673E+02 -0.16647098603E+03  0.20985835959E+03  0.12508995388E+03 0.  0.
         23    2    1    2    0    0  0.20117533116E+02  0.16605125673E+02 -0.10955350801E+03  0.14432795272E+03  0.90267056465E+02 0.  0.
          5    1    3    3  502    0 -0.50220477085E+01  0.53314520025E+02 -0.91872470424E+02  0.10642218862E+03  0.41800000000E+01 0. -1.
         -5    1    3    3    0  502 -0.15095485407E+02 -0.69919645697E+02 -0.74598515603E+02  0.10343617097E+03  0.41800000000E+01 0. -1.
        -11    1    4    4    0    0  0.88970744252E+01  0.53602556375E+02 -0.73982750221E+02  0.91792370671E+02  0.00000000000E+00 0.  1.
         11    1    4    4    0    0  0.11220458690E+02 -0.36997430702E+02 -0.35570757786E+02  0.52535582050E+02  0.00000000000E+00 0. -1.
</event>
<event>
 8    1  0.5951278E-006  0.1326400E+03  0.7561462E-02  0.1223590E+00
         -1   -1    0    0    0  501 -0.00000000000E+00  0.00000000000E+00  0.94913667573E+02  0.94913667573E+02  0.00000000000E+00 0.  1.
          1   -1    0    0  501    0  0.00000000000E+00 -0.00000000000E+00 -0.24465277216E+03  0.24465277216E+03  0.00000000000E+00 0. -1.
         23    2    1    2    0    0 -0.50125098764E+02 -0.93990897732E+02 -0.81191060594E+02  0.18326947404E+03  0.12509555313E+03 0.  0.
         23    2    1    2    0    0  0.50125098764E+02  0.93990897732E+02 -0.68548043989E+02  0.15629696569E+03  0.91559230913E+02 0.  0.
          5    1    3    3  502    0 -0.78730359262E+02 -0.25879967197E+02 -0.69743985303E+02  0.10839713122E+03  0.41800000000E+01 0. -1.
         -5    1    3    3    0  502  0.28605260497E+02 -0.68110930535E+02 -0.11447075291E+02  0.74872342819E+02  0.41800000000E+01 0. -1.
        -11    1    4    4    0    0  0.20478643103E+02  0.58963102308E+02 -0.86798647635E+02  0.10691130664E+03  0.00000000000E+00 0. -1.
         11    1    4    4    0    0  0.29646455662E+02  0.35027795424E+02  0.18250603646E+02  0.49385659042E+02  0.00000000000E+00 0.  1.
</event>
<event>
 8    1  0.5951278E-006  0.1033238E+03  0.7561462E-02  0.1273458E+00
         -1   -1    0    0    0  501 -0.00000000000E+00  0.00000000000E+00  0.34448947549E+03  0.34448947549E+03  0.00000000000E+00 0.  1.
          1   -1    0    0  501    0  0.00000000000E+00 -0.00000000000E+00 -0.63441963243E+02  0.63441963243E+02  0.00000000000E+00 0. -1.
         23    2    1    2    0    0  0.64479949279E+02  0.74978358402E+02  0.12409070756E+03  0.20204946016E+03  0.12508422186E+03 0.  0.
         23    2    1    2    0    0 -0.64479949279E+02 -0.74978358402E+02  0.15695680469E+03  0.20588197858E+03  0.89289038960E+02 0.  0.
          5    1    3    3  502    0  0.47426088562E+02  0.42974072034E+02 -0.83429733027E+01  0.64676752756E+02  0.41800000000E+01 0.  1.
         -5    1    3    3    0  502  0.17053860717E+02  0.32004286368E+02  0.13243368086E+03  0.13737270740E+03  0.41800000000E+01 0.  1.
        -11    1    4    4    0    0 -0.32678304074E+02 -0.64872072856E+02  0.37291283021E+02  0.81651069700E+02  0.00000000000E+00 0. -1.
         11    1    4    4    0    0 -0.31801645204E+02 -0.10106285546E+02  0.11966552167E+03  0.12423090888E+03  0.00000000000E+00 0.  1.
</event>
<event>
 8    1  0.5951278E-006  0.1114924E+03  0.7561462E-02  0.1257831E+00
         -2   -1    0    0    0  501 -0.00000000000E+00  0.00000000000E+00  0.62533065214E+03  0.62533065214E+03  0.00000000000E+00 0.  1.
          2   -1    0    0  501    0  0.00000000000E+00 -0.00000000000E+00 -0.26655743834E+02  0.26655743834E+02  0.00000000000E+00 0. -1.
         23    2    1    2    0    0  0.33673265409E+02 -0.94150856960E+01  0.41764306144E+03  0.43737491221E+03  0.12509418219E+03 0.  0.
         23    2    1    2    0    0 -0.33673265409E+02  0.94150856960E+01  0.18103184686E+03  0.21461148376E+03  0.10983181116E+03 0.  0.
          5    1    3    3  502    0 -0.28787079661E+02 -0.32435708156E+02  0.29098044821E+03  0.29422417433E+03  0.41800000000E+01 0. -1.
         -5    1    3    3    0  502  0.62460345070E+02  0.23020622460E+02  0.12666261323E+03  0.14315073788E+03  0.41800000000E+01 0. -1.
        -11    1    4    4    0    0 -0.72898746601E+02  0.93159197457E+01  0.13824481100E+03  0.15656513464E+03  0.00000000000E+00 0.  1.
         11    1    4    4    0    0  0.39225481192E+02  0.99165950252E-01  0.42787035861E+02  0.58046349122E+02  0.00000000000E+00 0. -1.
</event>
<event>
 8    1  0.5951278E-006  0.1665242E+03  0.7561462E-02  0.1181522E+00
          1   -1    0    0  501    0  0.00000000000E+00  0.00000000000E+00  0.13779985702E+03  0.13779985702E+03  0.00000000000E+00 0. -1.
         -1   -1    0    0    0  501 -0.00000000000E+00 -0.00000000000E+00 -0.25270213772E+03  0.25270213772E+03  0.00000000000E+00 0.  1.
         23    2    1    2    0    0  0.46755099925E+02  0.14383650671E+03 -0.62359311978E+02  0.20593900417E+03  0.12508880692E+03 0.  0.
         23    2    1    2    0    0 -0.46755099925E+02 -0.14383650671E+03 -0.52542968726E+02  0.18456299057E+03  0.91802798945E+02 0.  0.
          5    1    3    3  502    0  0.67528139978E+02  0.14554586639E+03 -0.24281548140E+02  0.16232903281E+03  0.41800000000E+01 0. -1.
         -5    1    3    3    0  502 -0.20773040053E+02 -0.17093596799E+01 -0.38077763838E+02  0.43609971365E+02  0.41800000000E+01 0. -1.
        -11    1    4    4    0    0 -0.23208614467E+02 -0.77190904895E+02  0.20239658547E+02  0.83106674595E+02  0.00000000000E+00 0.  1.
         11    1    4    4    0    0 -0.23546485458E+02 -0.66645601813E+02 -0.72782627273E+02  0.10145631597E+03  0.00000000000E+00 0. -1.
</event>
<event>
 7    1  0.5951278E-006  0.1259085E+03  0.7561462E-02  0.1233656E+00
          2   -1    0    0  501    0  0.00000000000E+00  0.00000000000E+00  0.80873002505E+03  0.80873002505E+03  0.00000000000E+00 0. -1.
         -2   -1    0    0    0  501 -0.00000000000E+00 -0.00000000000E+00 -0.23177778168E+02  0.23177778168E+02  0.00000000000E+00 0.  1.
         23    2    1    2    0    0  0.55900743135E+02  0.25779072744E+02  0.32888999957E+03  0.34674318181E+03  0.90954651548E+02 0.  0.
          5    1    1    2  502    0 -0.97967776269E+02  0.21142094371E+02  0.29598483862E+03  0.31252067201E+03  0.41800000000E+01 0. -1.
         -5    1    1    2    0  502  0.42067033134E+02 -0.46921167116E+02  0.16067740869E+03  0.17264394940E+03  0.41800000000E+01 0.  1.
        -11    1    3    3    0    0  0.48134024827E+02 -0.12142421430E+02  0.28008990612E+03  0.28445505490E+03  0.00000000000E+00 0.  1.
         11    1    3    3    0    0  0.77667183080E+01  0.37921494175E+02  0.48800093451E+02  0.62288126915E+02  0.00000000000E+00 0. -1.
</event>
<event>
 8    1  0.5951278E-006  0.1518447E+03  0.7561462E-02  0.1198224E+00
          2   -1    0    0  501    0  0.00000000000E+00  0.00000000000E+00  0.15812871113E+04  0.15812871113E+04  0.00000000000E+00 0. -1.
         -2   -1    0    0    0  501 -0.00000000000E+00 -0.00000000000E+00 -0.18142374136E+02  0.18142374136E+02  0.00000000000E+00 0.  1.
         23    2    1    2    0    0  0.15162103269E+02 -0.12762196410E+03  0.86837952858E+03  0.88670582157E+03  0.12508778219E+03 0.  0.
         23    2    1    2    0    0 -0.15162103269E+02  0.12762196410E+03  0.69476520856E+03  0.71272366384E+03  0.93589907995E+02 0.  0.
          5    1    3    3  502    0  0.65912374282E+02 -0.88870370448E+02  0.44778632199E+03  0.46127263780E+03  0.41800000000E+01 0.  1.
         -5    1    3    3    0  502 -0.50750271013E+02 -0.38751593650E+02  0.42059320660E+03  0.42543318377E+03  0.41800000000E+01 0.  1.
        -11    1    4    4    0    0 -0.16893920893E+02  0.11671291972E+03  0.69109442671E+03  0.70108402979E+03  0.00000000000E+00 0. -1.
         11    1    4    4    0    0  0.17318176238E+01  0.10909044378E+02  0.36707818493E+01  0.11639634054E+02  0.00000000000E+00 0.  1.
</event>
<event>
 8    1  0.5951278E-006  0.2245955E+03  0.7561462E-02  0.1130503E+00
         -1   -1    0    0    0  501 -0.00000000000E+00  0.00000000000E+00  0.92269283439E+03  0.92269283439E+03  0.00000000000E+00 0.  1.
          1   -1    0    0  501    0  0.00000000000E+00 -0.00000000000E+00 -0.64487191913E+02  0.64487191913E+02  0.00000000000E+00 0. -1.
         23    2    1    2    0    0 -0.18088148670E+03  0.11054597804E+03  0.55744705478E+03  0.60937128652E+03  0.12509044913E+03 0.  0.
         23    2    1    2    0    0  0.18088148670E+03 -0.11054597804E+03  0.30075858770E+03  0.37780873978E+03  0.85704085588E+02 0.  0.
          5    1    3    3  502    0  0.20775611944E+01  0.36935361178E+02  0.17649650912E+03  0.18038022979E+03  0.41800000000E+01 0. -1.
         -5    1    3    3    0  502 -0.18295904790E+03  0.73610616862E+02  0.38095054565E+03  0.42899105673E+03  0.41800000000E+01 0. -1.
        -11    1    4    4    0    0  0.90322960418E+02 -0.35338870487E+02  0.72874482397E+02  0.12131678833E+03  0.00000000000E+00 0. -1.
         11    1    4    4    0    0  0.90558526287E+02 -0.75207107553E+02  0.22788410531E+03  0.25649195145E+03  0.00000000000E+00 0.  1.
</event>
<event>
 8    1  0.5951278E-006  0.3285799E+03  0.7561462E-02  0.1071767E+00
          1   -1    0    0  501    0  0.00000000000E+00  0.00000000000E+00  0.59272555948E+03  0.59272555948E+03  0.00000000000E+00 0. -1.
         -1   -1    0    0    0  501 -0.00000000000E+00 -0.00000000000E+00 -0.29577045682E+03  0.29577045682E+03  0.00000000000E+00 0.  1.
         23    2    1    2    0    0 -0.29733610546E+03  0.11466428842E+03 -0.11433398042E+03  0.36093948495E+03  0.12509354127E+03 0.  0.
         23    2    1    2    0    0  0.29733610546E+03 -0.11466428842E+03  0.41128908308E+03  0.52755653134E+03  0.87180991319E+02 0.  0.
          5    1    3    3  502    0 -0.11982533800E+03  0.98674456606E+02 -0.12878986858E+02  0.15581431486E+03  0.41800000000E+01 0.  1.
         -5    1    3    3    0  502 -0.17751076747E+03  0.15989831818E+02 -0.10145499356E+03  0.20512517010E+03  0.41800000000E+01 0.  1.
        -11    1    4    4    0    0  0.19142986921E+03 -0.44419984512E+02  0.19596119278E+03  0.27752354662E+03  0.00000000000E+00 0.  1.
         11    1    4    4    0    0  0.10590623625E+03 -0.70244303912E+02  0.21532789030E+03  0.25003298472E+03  0.00000000000E+00 0. -1.
</event>
<event>
 8    1  0.5951278E-006  0.8310681E+02  0.7561462E-02  0.1320459E+00
          2   -1    0    0  501    0  0.00000000000E+00  0.00000000000E+00  0.39355406931E+03  0.39355406931E+03  0.00000000000E+00 0. -1.
         -2   -1    0    0    0  501 -0.00000000000E+00 -0.00000000000E+00 -0.41917949072E+02  0.41917949072E+02  0.00000000000E+00 0.  1.
         23    2    1    2    0    0  0.21332025921E+02 -0.26802437354E+02  0.93294360537E+02  0.15976824291E+03  0.12509447533E+03 0.  0.
         23    2    1    2    0    0 -0.21332025921E+02  0.26802437354E+02  0.25834175970E+03  0.27570377547E+03  0.89992672061E+02 0.  0.
          5    1    3    3  502    0  0.12695825050E+02  0.33976857590E+02  0.91159281963E+02  0.98199276542E+02  0.41800000000E+01 0. -1.
         -5    1    3    3    0  502  0.86362008713E+01 -0.60779294944E+02  0.21350785739E+01  0.61568966370E+02  0.41800000000E+01 0. -1.
        -11    1    4    4    0    0 -0.30754142726E+02  0.40925391405E+02  0.25267015785E+03  0.25780402174E+03  0.00000000000E+00 0. -1.
         11    1    4    4    0    0  0.94221168052E+01 -0.14122954051E+02  0.56716018569E+01  0.17899753737E+02  0.00000000000E+00 0.  1.
</event>
<event>
 8    1  0.5951278E-006  0.1129316E+03  0.7561462E-02  0.1255235E+00
         -1   -1    0    0    0  501 -0.00000000000E+00  0.00000000000E+00  0.31603959117E+03  0.31603959117E+03  0.00000000000E+00 0.  1.
          1   -1    0    0  501    0  0.00000000000E+00 -0.00000000000E+00 -0.52201367265E+02  0.52201367265E+02  0.00000000000E+00 0. -1.
         23    2    1    2    0    0  0.17533091790E+02  0.52885449316E+02  0.21002212400E+03  0.25072137157E+03  0.12509050139E+03 0.  0.
         23    2    1    2    0    0 -0.17533091790E+02 -0.52885449316E+02  0.53816099913E+02  0.11751958687E+03  0.88376471023E+02 0.  0.
          5    1    3    3  502    0 -0.29369208869E+02 -0.20831949364E+02  0.11934979122E+03  0.12473317765E+03  0.41800000000E+01 0.  1.
         -5    1    3    3    0  502  0.46902300659E+02  0.73717398680E+02  0.90672332780E+02  0.12598819392E+03  0.41800000000E+01 0.  1.
        -11    1    4    4    0    0  0.29077375163E+02 -0.46852091394E+02  0.16649416829E+02  0.57600479990E+02  0.00000000000E+00 0. -1.
         11    1    4    4    0    0 -0.46610466954E+02 -0.60333579218E+01  0.37166683083E+02  0.59919106876E+02  0.00000000000E+00 0.  1.
</event>
<event>
 8    1  0.5951278E-006  0.1364758E+03  0.7561462E-02  0.1218151E+00
          1   -1    0    0  501    0  0.00000000000E+00  0.00000000000E+00  0.12162172602E+03  0.12162172602E+03  0.00000000000E+00 0. -1.
         -1   -1    0    0    0  501 -0.00000000000E+00 -0.00000000000E+00 -0.22666758652E+03  0.22666758652E+03  0.00000000000E+00 0.  1.
         23    2    1    2    0    0 -0.81553784492E+02  0.95882803341E+02 -0.64820235649E+02  0.18892423476E+03  0.12508465849E+03 0.  0.
         23    2    1    2    0    0  0.81553784492E+02 -0.95882803341E+02 -0.40225624855E+02  0.15936507778E+03  0.89076345792E+02 0.  0.
          5    1    3    3  502    0 -0.70047898049E+02  0.24272287759E+02 -0.85643450072E+02  0.11334956954E+03  0.41800000000E+01 0.  1.
         -5    1    3    3    0  502 -0.11505886443E+02  0.71610515582E+02  0.20823214423E+02  0.75574665223E+02  0.41800000000E+01 0.  1.
        -11    1    4    4    0    0  0.41402917469E+02 -0.43551508279E+02  0.26379768834E+02  0.65626424953E+02  0.00000000000E+00 0. -1.
         11    1    4    4    0    0  0.40150867023E+02 -0.52331295062E+02 -0.66605393689E+02  0.93738652828E+02  0.00000000000E+00 0.  1.
</event>
<event>
 7    1  0.5951278E-006  0.8804284E+02  0.7561462E-02  0.1307662E+00
          1   -1    0    0  501    0  0.00000000000E+00  0.00000000000E+00  0.72936816564E+02  0.72936816564E+02  0.00000000000E+00 0. -1.
         -1   -1    0    0    0  501 -0.00000000000E+00 -0.00000000000E+00 -0.17947630413E+03  0.17947630413E+03  0.00000000000E+00 0.  1.
         23    2    1    2    0    0  0.16554137731E+02  0.87978627780E+01 -0.12793030443E+02  0.89683001808E+02  0.86763686643E+02 0.  0.
          5    1    1    2  502    0 -0.46926320617E+02 -0.29266068636E+02  0.65748025102E+01  0.55850539551E+02  0.41800000000E+01 0. -1.
         -5    1    1    2    0  502  0.30372182886E+02  0.20468205858E+02 -0.10032125964E+03  0.10687957934E+03  0.41800000000E+01 0.  1.
        -11    1    3    3    0    0  0.41902722198E+02 -0.19113697849E+02 -0.21743745186E+02  0.50930953533E+02  0.00000000000E+00 0.  1.
         11    1    3    3    0    0 -0.25348584466E+02  0.27911560627E+02  0.89507147430E+01  0.38752048275E+02  0.00000000000E+00 0. -1.
</event>
<event>
 8    1  0.5951278E-006  0.1821068E+03  0.7561462E-02  0.1165780E+00
         -2   -1    0    0    0  501 -0.00000000000E+00  0.00000000000E+00  0.53197065234E+02  0.53197065234E+02  0.00000000000E+00 0.  1.
          2   -1    0    0  501    0  0.00000000000E+00 -0.00000000000E+00 -0.66739797188E+03  0.66739797188E+03  0.00000000000E+00 0. -1.
         23    2    1    2    0    0  0.14011286124E+03  0.42704131540E+02 -0.23420480539E+03  0.30324090152E+03  0.12509155349E+03 0.  0.
         23    2    1    2    0    0 -0.14011286124E+03 -0.42704131540E+02 -0.37999610126E+03  0.41735413559E+03  0.91280779970E+02 0.  0.
          5    1    3    3  502    0  0.15353225172E+02  0.63404038275E+02 -0.67660820000E+02  0.94081095635E+02  0.41800000000E+01 0.  1.
         -5    1    3    3    0  502  0.12475963606E+03 -0.20699906734E+02 -0.16654398539E+03  0.20915980589E+03  0.41800000000E+01 0.  1.
        -11    1    4    4    0    0 -0.47228600175E+02 -0.61499917425E+02 -0.18291767551E+03  0.19867475062E+03  0.00000000000E+00 0. -1.
         11    1    4    4    0    0 -0.92884261060E+02  0.18795785884E+02 -0.19707842574E+03  0.21867938498E+03  0.00000000000E+00 0.  1.
</event>
<event>
 8    1  0.5951278E-006  0.1583157E+03  0.7561462E-02  0.1190612E+00
         -2   -1    0    0    0  501 -0.00000000000E+00  0.00000000000E+00  0.15505492051E+03  0.15505492051E+03  0.00000000000E+00 0. -1.
          2   -1    0    0  501    0  0.00000000000E+00 -0.00000000000E+00 -0.23621072935E+03  0.23621072935E+03  0.00000000000E+00 0.  1.
         23    2    1    2    0    0  0.13134083267E+03  0.70244190516E+02  0.87557473898E+01  0.19470496013E+03  0.12509475513E+03 0.  0.
         23    2    1    2    0    0 -0.13134083267E+03 -0.70244190516E+02 -0.89911556226E+02  0.19656068973E+03  0.91473253887E+02 0.  0.
          5    1    3    3  502    0  0.42264015130E+02  0.21864057251E+02  0.63471095523E+02  0.79437625476E+02  0.41800000000E+01 0. -1.
         -5    1    3    3    0  502  0.89076817540E+02  0.48380133264E+02 -0.54715348134E+02  0.11526733466E+03  0.41800000000E+01 0. -1.
        -11    1    4    4    0    0 -0.39812848970E+02 -0.64378606416E+02 -0.69148573560E+02  0.10252411001E+03  0.00000000000E+00 0.  1.
         11    1    4    4    0    0 -0.91527983700E+02 -0.58655840994E+01 -0.20762982667E+02  0.94036579724E+02  0.00000000000E+00 0. -1.
</event>
<event>
 8    1  0.5951278E-006  0.1189027E+03  0.7561462E-02  0.1244918E+00
         -1   -1    0    0    0  501 -0.00000000000E+00  0.00000000000E+00  0.30247264292E+02  0.30247264292E+02  0.00000000000E+00 0.  1.
          1   -1    0    0  501    0  0.00000000000E+00 -0.00000000000E+00 -0.63704094233E+03  0.63704094233E+03  0.00000000000E+00 0. -1.
         23    2    1    2    0    0  0.29090584828E+02 -0.72061976624E+02 -0.27778134611E+03  0.31440315169E+03  0.12509066691E+03 0.  0.
         23    2    1    2    0    0 -0.29090584828E+02  0.72061976624E+02 -0.32901233193E+03  0.35288505493E+03  0.10119069538E+03 0.  0.
          5    1    3    3  502    0  0.48650604807E+02 -0.87153446027E+02 -0.27042749173E+03  0.28828996719E+03  0.41800000000E+01 0.  1.
         -5    1    3    3    0  502 -0.19560019979E+02  0.15091469403E+02 -0.73538543811E+01  0.26113184497E+02  0.41800000000E+01 0.  1.
        -11    1    4    4    0    0  0.28000252700E+02  0.34833592226E+02 -0.21866858246E+03  0.22318902808E+03  0.00000000000E+00 0. -1.
         11    1    4    4    0    0 -0.57090837528E+02  0.37228384398E+02 -0.11034374947E+03  0.12969602685E+03  0.00000000000E+00 0.  1.
</event>
<event>
 8    1  0.5951278E-006  0.7601136E+02  0.7561462E-02  0.1340767E+00
          1   -1    0    0  501    0  0.00000000000E+00  0.00000000000E+00  0.22462263927E+03  0.22462263927E+03  0.00000000000E+00 0. -1.
         -1   -1    0    0    0  501 -0.00000000000E+00 -0.00000000000E+00 -0.61924035111E+02  0.61924035111E+02  0.00000000000E+00 0.  1.
         23    2    1    2    0    0 -0.18181359936E+02  0.85646957726E+01  0.40746000925E+02  0.13309058934E+03  0.12509577338E+03 0.  0.
         23    2    1    2    0    0  0.18181359936E+02 -0.85646957726E+01  0.12195260323E+03  0.15345608504E+03  0.90952826986E+02 0.  0.
          5    1    3    3  502    0 -0.35486107937E+02 -0.25616241444E+02  0.71397701194E+02  0.83848433605E+02  0.41800000000E+01 0. -1.
         -5    1    3    3    0  502  0.17304748001E+02  0.34180937217E+02 -0.30651700269E+02  0.49242155738E+02  0.41800000000E+01 0. -1.
        -11    1    4    4    0    0  0.37183274577E+02  0.14255974987E+02  0.15158301409E+02  0.42609891255E+02  0.00000000000E+00 0.  1.
         11    1    4    4    0    0 -0.19001914641E+02 -0.22820670759E+02  0.10679430182E+03  0.11084619378E+03  0.00000000000E+00 0. -1.
</event>
<event>
 8    1  0.5951278E-006  0.1366318E+03  0.7561462E-02  0.1217934E+00
          1   -1    0    0  501    0  0.00000000000E+00  0.00000000000E+00  0.10861380837E+03  0.10861380837E+03  0.00000000000E+00 0. -1.
         -1   -1    0    0    0  501 -0.00000000000E+00 -0.00000000000E+00 -0.18874475847E+03  0.18874475847E+03  0.00000000000E+00 0.  1.
         23    2    1    2    0    0 -0.93667837836E+02  0.34370510667E+02 -0.64299387979E+02  0.17244433225E+03  0.12509052955E+03 0.  0.
         23    2    1    2    0    0  0.93667837836E+02 -0.34370510667E+02 -0.15831562112E+02  0.12491423459E+03  0.73470618590E+02 0.  0.
          5    1    3    3  502    0  0.22401642080E+02 -0.13206924977E+02 -0.34568541568E+02  0.43459324677E+02  0.41800000000E+01 0. -1.
         -5    1    3    3    0  502 -0.11606947992E+03  0.47577435644E+02 -0.29730846410E+02  0.12898500757E+03  0.41800000000E+01 0. -1.
        -11    1    4    4    0    0  0.11286920934E+02  0.19818771589E+02 -0.13033464557E+02  0.26268793079E+02  0.00000000000E+00 0.  1.
         11    1    4    4    0    0  0.82380916902E+02 -0.54189282256E+02 -0.27980975550E+01  0.98645441511E+02  0.00000000000E+00 0. -1.
</event>
<event>
 8    1  0.5951278E-006  0.1061233E+03  0.7561462E-02  0.1267922E+00
          4   -1    0    0  501    0  0.00000000000E+00  0.00000000000E+00  0.49477340234E+02  0.49477340234E+02  0.00000000000E+00 0. -1.
         -4   -1    0    0    0  501 -0.00000000000E+00 -0.00000000000E+00 -0.28056735285E+03  0.28056735285E+03  0.00000000000E+00 0.  1.
         23    2    1    2    0    0  0.46503827794E+01 -0.38035316980E+02 -0.17031843940E+03  0.21476593843E+03  0.12509087142E+03 0.  0.
         23    2    1    2    0    0 -0.46503827794E+01  0.38035316980E+02 -0.60771573212E+02  0.11527875465E+03  0.90153734063E+02 0.  0.
          5    1    3    3  502    0 -0.36228644178E+02  0.28552314896E+02 -0.97211082497E+02  0.10768108611E+03  0.41800000000E+01 0.  1.
         -5    1    3    3    0  502  0.40879026957E+02 -0.66587631876E+02 -0.73107356905E+02  0.10708485233E+03  0.41800000000E+01 0.  1.
        -11    1    4    4    0    0  0.35038430326E+02  0.37532826861E+01 -0.50907936208E+02  0.61914430463E+02  0.00000000000E+00 0.  1.
         11    1    4    4    0    0 -0.39688813105E+02  0.34282034294E+02 -0.98636370039E+01  0.53364324188E+02  0.00000000000E+00 0. -1.
</event>
<event>
 7    1  0.5951278E-006  0.2013464E+03  0.7561462E-02  0.1148608E+00
          2   -1    0    0  501    0  0.00000000000E+00  0.00000000000E+00  0.38114097463E+03  0.38114097463E+03  0.00000000000E+00 0. -1.
         -2   -1    0    0    0  501 -0.00000000000E+00 -0.00000000000E+00 -0.11623269127E+03  0.11623269127E+03  0.00000000000E+00 0.  1.
         23    2    1    2    0    0  0.15573124416E+02 -0.16478312252E+03  0.12648320828E+03  0.22690988651E+03  0.89967188174E+02 0.  0.
          5    1    1    2  502    0  0.63144289335E+02  0.74723315332E+02  0.15934227221E+02  0.99207596115E+02  0.41800000000E+01 0. -1.
         -5    1    1    2    0  502 -0.78717413752E+02  0.90059807187E+02  0.12249084787E+03  0.17125618327E+03  0.41800000000E+01 0.  1.
        -11    1    3    3    0    0  0.20118519374E+02  0.12278514745E+00  0.19481260037E+01  0.20212993171E+02  0.00000000000E+00 0. -1.
         11    1    3    3    0    0 -0.45453949575E+01 -0.16490590767E+03  0.12453508227E+03  0.20669689334E+03  0.00000000000E+00 0.  1.
</event>
<event>
 8    1  0.5951278E-006  0.1026269E+03  0.7561462E-02  0.1274867E+00
          2   -1    0    0  501    0  0.00000000000E+00  0.00000000000E+00  0.20268009518E+03  0.20268009518E+03  0.00000000000E+00 0. -1.
         -2   -1    0    0    0  501 -0.00000000000E+00 -0.00000000000E+00 -0.97971577266E+02  0.97971577266E+02  0.00000000000E+00 0.  1.
         23    2    1    2    0    0  0.74347614199E+02 -0.46561323736E+02  0.28023714063E+02  0.15532676332E+03  0.12508217399E+03 0.  0.
         23    2    1    2    0    0 -0.74347614199E+02  0.46561323736E+02  0.76684803849E+02  0.14532490912E+03  0.86851859304E+02 0.  0.
          5    1    3    3  502    0  0.60285239967E+02 -0.60565667752E+02 -0.32479643082E+02  0.91514533724E+02  0.41800000000E+01 0.  1.
         -5    1    3    3    0  502  0.14062374232E+02  0.14004344015E+02  0.60503357146E+02  0.63812229598E+02  0.41800000000E+01 0.  1.
        -11    1    4    4    0    0 -0.19855397069E+02 -0.88148761959E+01 -0.14051142525E+02  0.25872252344E+02  0.00000000000E+00 0.  1.
         11    1    4    4    0    0 -0.54492217130E+02  0.55376199932E+02  0.90735946374E+02  0.11945265678E+03  0.00000000000E+00 0. -1.
</event>
<event>
 8    1  0.5951278E-006  0.1220339E+03  0.7561462E-02  0.1239779E+00
         -2   -1    0    0    0  501 -0.00000000000E+00  0.00000000000E+00  0.19240162283E+03  0.19240162283E+03  0.00000000000E+00 0.  1.
          2   -1    0    0  501    0  0.00000000000E+00 -0.00000000000E+00 -0.98753300828E+02  0.98753300828E+02  0.00000000000E+00 0. -1.
         23    2    1    2    0    0 -0.68422237085E+02 -0.37717671980E+02  0.82381849275E+02  0.16893393398E+03  0.12509068572E+03 0.  0.
         23    2    1    2    0    0  0.68422237085E+02  0.37717671980E+02  0.11266472731E+02  0.12222098968E+03  0.93310297410E+02 0.  0.
          5    1    3    3  502    0  0.16503740454E+02  0.14905685048E+02  0.63182038916E+02  0.67111812205E+02  0.41800000000E+01 0.  1.
         -5    1    3    3    0  502 -0.84925977539E+02 -0.52623357028E+02  0.19199810358E+02  0.10182212178E+03  0.41800000000E+01 0.  1.
        -11    1    4    4    0    0  0.89729111950E+02  0.42988219990E+02  0.61600066836E+01  0.99685737553E+02  0.00000000000E+00 0. -1.
         11    1    4    4    0    0 -0.21306874865E+02 -0.52705480099E+01  0.51064660477E+01  0.22535252125E+02  0.00000000000E+00 0.  1.
</event>
<event>
 8    1  0.7498552E-006  0.3953959E+03  0.7561462E-02  0.1045386E+00
         -4   -1    0    0    0  501 -0.00000000000E+00  0.00000000000E+00  0.41674943139E+03  0.41674943139E+03  0.00000000000E+00 0. -1.
          4   -1    0    0  501    0  0.00000000000E+00 -0.00000000000E+00 -0.38649744012E+03  0.38649744012E+03  0.00000000000E+00 0.  1.
         23    2    1    2    0    0 -0.31345533706E+03 -0.22526512703E+03  0.53322816510E+01  0.40580150927E+03  0.12509119040E+03 0.  0.
         23    2    1    2    0    0  0.31345533706E+03  0.22526512703E+03  0.24919709625E+02  0.39744536224E+03  0.91341109324E+02 0.  0.
          5    1    3    3  502    0 -0.15728509387E+03 -0.18246546560E+03 -0.20360028143E+02  0.24179381720E+03  0.41800000000E+01 0.  1.
         -5    1    3    3    0  502 -0.15617024319E+03 -0.42799661425E+02  0.25692309794E+02  0.16400769207E+03  0.41800000000E+01 0.  1.
        -11    1    4    4    0    0  0.16171713535E+03  0.13952227890E+03  0.55064296853E+02  0.22056966011E+03  0.00000000000E+00 0. -1.
         11    1    4    4    0    0  0.15173820171E+03  0.85742848132E+02 -0.30144587229E+02  0.17687570213E+03  0.00000000000E+00 0.  1.
</event>
<event>
 8    1  0.6920398E-006  0.2411512E+03  0.7561462E-02  0.1119028E+00
          2   -1    0    0  501    0  0.00000000000E+00  0.00000000000E+00  0.38696651071E+03  0.38696651071E+03  0.00000000000E+00 0. -1.
         -2   -1    0    0    0  501 -0.00000000000E+00 -0.00000000000E+00 -0.15152366856E+03  0.15152366856E+03  0.00000000000E+00 0.  1.
         23    2    1    2    0    0 -0.19926002504E+02 -0.21453405908E+03  0.14191391537E+03  0.28672087058E+03  0.12508952863E+03 0.  0.
         23    2    1    2    0    0  0.19926002504E+02  0.21453405908E+03  0.93528926778E+02  0.25176930869E+03  0.90654379778E+02 0.  0.
          5    1    3    3  502    0 -0.72530017324E+02 -0.11958161386E+03  0.89593700835E+02  0.16614713183E+03  0.41800000000E+01 0. -1.
         -5    1    3    3    0  502  0.52604014820E+02 -0.94952445216E+02  0.52320214531E+02  0.12057373875E+03  0.41800000000E+01 0. -1.
        -11    1    4    4    0    0  0.53787270157E+02  0.16656714632E+03  0.70411286786E+02  0.18866752230E+03  0.00000000000E+00 0.  1.
         11    1    4    4    0    0 -0.33861267653E+02  0.47966912763E+02  0.23117639992E+02  0.63101786392E+02  0.00000000000E+00 0. -1.
</event>
<event>
 8    1  0.5951278E-006  0.1788810E+03  0.7561462E-02  0.1168890E+00
          2   -1    0    0  501    0  0.00000000000E+00  0.00000000000E+00  0.96936924763E+02  0.96936924763E+02  0.00000000000E+00 0. -1.
         -2   -1    0    0    0  501 -0.00000000000E+00 -0.00000000000E+00 -0.38115722136E+03  0.38115722136E+03  0.00000000000E+00 0.  1.
         23    2    1    2    0    0  0.13325843930E+03 -0.79468053732E+02 -0.18238566594E+03  0.27015597970E+03  0.12508692584E+03 0.  0.
         23    2    1    2    0    0 -0.13325843930E+03  0.79468053732E+02 -0.10183463066E+03  0.20793816643E+03  0.93781692499E+02 0.  0.
          5    1    3    3  502    0  0.10203264759E+03 -0.10137017991E+03 -0.18170887644E+03  0.23178041920E+03  0.41800000000E+01 0. -1.
         -5    1    3    3    0  502  0.31225791707E+02  0.21902126182E+02 -0.67678950407E+00  0.38375560492E+02  0.41800000000E+01 0. -1.
        -11    1    4    4    0    0 -0.74061309996E+02  0.88739695602E+02 -0.90862288985E+02  0.14702301443E+03  0.00000000000E+00 0.  1.
         11    1    4    4    0    0 -0.59197129303E+02 -0.92716418694E+01 -0.10972341673E+02  0.60915151994E+02  0.00000000000E+00 0. -1.
</event>
<event>
 8    1  0.5951278E-006  0.1347565E+03  0.7561462E-02  0.1220564E+00
          1   -1    0    0  501    0  0.00000000000E+00  0.00000000000E+00  0.17485041134E+02  0.17485041134E+02  0.00000000000E+00 0. -1.
         -1   -1    0    0    0  501 -0.00000000000E+00 -0.00000000000E+00 -0.12400472012E+04  0.12400472012E+04  0.00000000000E+00 0.  1.
         23    2    1    2    0    0 -0.20087808646E+02 -0.71536334951E+02 -0.82997208304E+03  0.84262841997E+03  0.12509207907E+03 0.  0.
         23    2    1    2    0    0  0.20087808646E+02  0.71536334951E+02 -0.39259007702E+03  0.41490382236E+03  0.11179108173E+03 0.  0.
          5    1    3    3  502    0 -0.61610544648E+02 -0.12439332228E+00 -0.40518236276E+03  0.40986106692E+03  0.41800000000E+01 0. -1.
         -5    1    3    3    0  502  0.41522736001E+02 -0.71411941629E+02 -0.42478972028E+03  0.43276735305E+03  0.41800000000E+01 0. -1.
        -11    1    4    4    0    0  0.56571166733E+02  0.67909622338E+02 -0.33634644925E+03  0.34776565045E+03  0.00000000000E+00 0.  1.
         11    1    4    4    0    0 -0.36483358087E+02  0.36267126136E+01 -0.56243627775E+02  0.67138171906E+02  0.00000000000E+00 0. -1.
</event>
<event>
 8    1  0.5951278E-006  0.2134526E+03  0.7561462E-02  0.1138861E+00
          2   -1    0    0  501    0  0.00000000000E+00  0.00000000000E+00  0.48250187330E+02  0.48250187330E+02  0.00000000000E+00 0. -1.
         -2   -1    0    0    0  501 -0.00000000000E+00 -0.00000000000E+00 -0.10300948094E+04  0.10300948094E+04  0.00000000000E+00 0.  1.
         23    2    1    2    0    0 -0.97685203760E+02 -0.15937507615E+03 -0.65266370795E+03  0.69033471653E+03  0.12509712720E+03 0.  0.
         23    2    1    2    0    0  0.97685203760E+02  0.15937507615E+03 -0.32918091411E+03  0.38801028020E+03  0.85141584372E+02 0.  0.
          5    1    3    3  502    0  0.29814494712E+02 -0.21563996783E+02 -0.99936106608E+02  0.10657676978E+03  0.41800000000E+01 0. -1.
         -5    1    3    3    0  502 -0.12749969847E+03 -0.13781107937E+03 -0.55272760135E+03  0.58375794675E+03  0.41800000000E+01 0. -1.
        -11    1    4    4    0    0  0.26396783259E+02  0.11526785347E+03 -0.22599916614E+03  0.25506683694E+03  0.00000000000E+00 0.  1.
         11    1    4    4    0    0  0.71288420502E+02  0.44107222686E+02 -0.10318174797E+03  0.13294344326E+03  0.00000000000E+00 0. -1.
</event>
<event>
 8    1  0.5951278E-006  0.1345156E+03  0.7561462E-02  0.1220905E+00
         -2   -1    0    0    0  501 -0.00000000000E+00  0.00000000000E+00  0.11038173208E+03  0.11038173208E+03  0.00000000000E+00 0.  1.
          2   -1    0    0  501    0  0.00000000000E+00 -0.00000000000E+00 -0.20665631449E+03  0.20665631449E+03  0.00000000000E+00 0. -1.
         23    2    1    2    0    0 -0.60041886414E+02 -0.86771129744E+02 -0.56190145687E+02  0.17302397803E+03  0.12508280225E+03 0.  0.
         23    2    1    2    0    0  0.60041886414E+02  0.86771129744E+02 -0.40084436721E+02  0.14401406854E+03  0.89437312058E+02 0.  0.
          5    1    3    3  502    0 -0.94197664222E+02 -0.33448180264E+02 -0.30926406166E+02  0.10471817276E+03  0.41800000000E+01 0. -1.
         -5    1    3    3    0  502  0.34155777808E+02 -0.53322949480E+02 -0.25263739521E+02  0.68305805269E+02  0.41800000000E+01 0. -1.
        -11    1    4    4    0    0  0.43665325883E+02  0.63710682462E+02  0.18090160213E+02  0.79328214658E+02  0.00000000000E+00 0.  1.
         11    1    4    4    0    0  0.16376560531E+02  0.23060447282E+02 -0.58174596934E+02  0.64685853879E+02  0.00000000000E+00 0. -1.
</event>
<event>
 8    1  0.5951278E-006  0.1252321E+03  0.7561462E-02  0.1234707E+00
         -1   -1    0    0    0  501 -0.00000000000E+00  0.00000000000E+00  0.10817768139E+03  0.10817768139E+03  0.00000000000E+00 0.  1.
          1   -1    0    0  501    0  0.00000000000E+00 -0.00000000000E+00 -0.18348776013E+03  0.18348776013E+03  0.00000000000E+00 0. -1.
         23    2    1    2    0    0 -0.25738755625E+02  0.68960225700E+02  0.10764729915E+02  0.14553781791E+03  0.12508949101E+03 0.  0.
         23    2    1    2    0    0  0.25738755625E+02 -0.68960225700E+02 -0.86074808648E+02  0.14612762361E+03  0.92338580394E+02 0.  0.
          5    1    3    3  502    0 -0.38577029611E+02 -0.21144555738E+02 -0.21161268442E+02  0.48995419511E+02  0.41800000000E+01 0.  1.
         -5    1    3    3    0  502  0.12838273986E+02  0.90104781438E+02  0.31925998357E+02  0.96542398396E+02  0.41800000000E+01 0.  1.
        -11    1    4    4    0    0  0.50805865863E+02 -0.10954974812E+02 -0.55133349113E+02  0.75768949204E+02  0.00000000000E+00 0. -1.
         11    1    4    4    0    0 -0.25067110238E+02 -0.58005250889E+02 -0.30941459536E+02  0.70358674409E+02  0.00000000000E+00 0.  1.
</event>
<event>
 8    1  0.5951278E-006  0.1026665E+03  0.7561462E-02  0.1274787E+00
          2   -1    0    0  501    0  0.00000000000E+00  0.00000000000E+00  0.33601295228E+03  0.33601295228E+03  0.00000000000E+00 0. -1.
         -2   -1    0    0    0  501 -0.00000000000E+00 -0.00000000000E+00 -0.46611184074E+02  0.46611184074E+02  0.00000000000E+00 0.  1.
         23    2    1    2    0    0  0.18006587961E+02  0.17357582293E+02  0.73156787639E+02  0.14705435005E+03  0.12509014117E+03 0.  0.
         23    2    1    2    0    0 -0.18006587961E+02 -0.17357582293E+02  0.21624498057E+03  0.23556978631E+03  0.90031715117E+02 0.  0.
          5    1    3    3  502    0  0.39002540028E+02  0.57950192337E+02  0.73054307532E+02  0.10116238021E+03  0.41800000000E+01 0.  1.
         -5    1    3    3    0  502 -0.20995952067E+02 -0.40592610045E+02  0.10248010683E+00  0.45891969838E+02  0.41800000000E+01 0.  1.
        -11    1    4    4    0    0 -0.29493270857E+02 -0.48224475163E+02  0.16715955867E+03  0.17645897847E+03  0.00000000000E+00 0. -1.
         11    1    4    4    0    0  0.11486682896E+02  0.30866892870E+02  0.49085421902E+02  0.59110807834E+02  0.00000000000E+00 0.  1.
</event>
<event>
 8    1  0.5951278E-006  0.2295181E+03  0.7561462E-02  0.1126979E+00
          2   -1    0    0  501    0  0.00000000000E+00  0.00000000000E+00  0.10479937940E+04  0.10479937940E+04  0.00000000000E+00 0. -1.
         -2   -1    0    0    0  501 -0.00000000000E+00 -0.00000000000E+00 -0.52963381494E+02  0.52963381494E+02  0.00000000000E+00 0.  1.
         23    2    1    2    0    0 -0.57995742792E+01 -0.20314262139E+03  0.62812654820E+03  0.67193063556E+03  0.12508900336E+03 0.  0.
         23    2    1    2    0    0  0.57995742792E+01  0.20314262139E+03  0.36690386430E+03  0.42902653994E+03  0.90248360878E+02 0.  0.
          5    1    3    3  502    0  0.56496325846E+02 -0.60644717543E+02  0.21065236946E+03  0.22641004783E+03  0.41800000000E+01 0.  1.
         -5    1    3    3    0  502 -0.62295900125E+02 -0.14249790385E+03  0.41747417874E+03  0.44552058773E+03  0.41800000000E+01 0.  1.
        -11    1    4    4    0    0  0.45444992571E+02  0.12126519668E+03  0.18747258001E+03  0.22785184557E+03  0.00000000000E+00 0.  1.
         11    1    4    4    0    0 -0.39645418291E+02  0.81877424711E+02  0.17943128429E+03  0.20117469436E+03  0.00000000000E+00 0. -1.
</event>
<event>
 8    1  0.5951278E-006  0.1554514E+03  0.7561462E-02  0.1193930E+00
          2   -1    0    0  501    0  0.00000000000E+00  0.00000000000E+00  0.35633525644E+03  0.35633525644E+03  0.00000000000E+00 0. -1.
         -2   -1    0    0    0  501 -0.00000000000E+00 -0.00000000000E+00 -0.97821636280E+02  0.97821636280E+02  0.00000000000E+00 0.  1.
         23    2    1    2    0    0 -0.31800857891E+02  0.11488255096E+03  0.20090788196E+02  0.17395697438E+03  0.12509234224E+03 0.  0.
         23    2    1    2    0    0  0.31800857891E+02 -0.11488255096E+03  0.23842283197E+03  0.28019991834E+03  0.86355384056E+02 0.  0.
          5    1    3    3  502    0  0.17431056337E+02 -0.21349181746E+02  0.35015436423E+01  0.28095595636E+02  0.41800000000E+01 0.  1.
         -5    1    3    3    0  502 -0.49231914228E+02  0.13623173271E+03  0.16589244554E+02  0.14586137875E+03  0.41800000000E+01 0.  1.
        -11    1    4    4    0    0 -0.22051376998E+02 -0.42652177035E+02  0.40800884101E+02  0.63009392766E+02  0.00000000000E+00 0.  1.
         11    1    4    4    0    0  0.53852234889E+02 -0.72230373929E+02  0.19762194787E+03  0.21719052557E+03  0.00000000000E+00 0. -1.
</event>
<event>
 8    1  0.5951278E-006  0.9472059E+02  0.7561462E-02  0.1291807E+00
         -1   -1    0    0    0  501 -0.00000000000E+00  0.00000000000E+00  0.11770297142E+03  0.11770297142E+03  0.00000000000E+00 0. -1.
          1   -1    0    0  501    0  0.00000000000E+00 -0.00000000000E+00 -0.10105080494E+03  0.10105080494E+03  0.00000000000E+00 0.  1.
         23    2    1    2    0    0  0.27863557372E+01  0.22947852871E+02  0.40244588085E+02  0.13342228204E+03  0.12509001057E+03 0.  0.
         23    2    1    2    0    0 -0.27863557372E+01 -0.22947852871E+02 -0.23592421614E+02  0.85331494318E+02  0.78679691377E+02 0.  0.
          5    1    3    3  502    0 -0.47545420378E+02 -0.20941484548E+02 -0.54385866426E+01  0.52403849083E+02  0.41800000000E+01 0.  1.
         -5    1    3    3    0  502  0.50331776116E+02  0.43889337418E+02  0.45683174728E+02  0.81018432959E+02  0.41800000000E+01 0.  1.
        -11    1    4    4    0    0  0.21990953072E+02 -0.36165959245E+02 -0.35095472455E+02  0.54984277862E+02  0.00000000000E+00 0.  1.
         11    1    4    4    0    0 -0.24777308810E+02  0.13218106374E+02  0.11503050841E+02  0.30347216456E+02  0.00000000000E+00 0. -1.
</event>
<event>
 8    1  0.5951278E-006  0.7610873E+02  0.7561462E-02  0.1340472E+00
         -3   -1    0    0    0  501 -0.00000000000E+00  0.00000000000E+00  0.12323536132E+03  0.12323536132E+03  0.00000000000E+00 0.  1.
          3   -1    0    0  501    0  0.00000000000E+00 -0.00000000000E+00 -0.13376124265E+03  0.13376124265E+03  0.00000000000E+00 0. -1.
         23    2    1    2    0    0 -0.27903580244E+02 -0.35669434639E+02  0.44616508868E+02  0.14031853963E+03  0.12509093230E+03 0.  0.
         23    2    1    2    0    0  0.27903580244E+02  0.35669434639E+02 -0.55142390198E+02  0.11667806433E+03  0.92315595333E+02 0.  0.
          5    1    3    3  502    0 -0.35940224713E+02 -0.15555761043E+02 -0.38047978102E+02  0.54761322954E+02  0.41800000000E+01 0.  1.
         -5    1    3    3    0  502  0.80366444686E+01 -0.20113673596E+02  0.82664486970E+02  0.85557216679E+02  0.41800000000E+01 0.  1.
        -11    1    4    4    0    0  0.50873159381E+02  0.43053578091E+02 -0.62588770252E+02  0.91427802628E+02  0.00000000000E+00 0. -1.
         11    1    4    4    0    0 -0.22969579137E+02 -0.73841434517E+01  0.74463800536E+01  0.25250261704E+02  0.00000000000E+00 0.  1.
</event>
<event>
 8    1  0.5951278E-006  0.7747283E+02  0.7561462E-02  0.1336380E+00
         -1   -1    0    0    0  501 -0.00000000000E+00  0.00000000000E+00  0.23082861762E+02  0.23082861762E+02  0.00000000000E+00 0.  1.
          1   -1    0    0  501    0  0.00000000000E+00 -0.00000000000E+00 -0.53159573560E+03  0.53159573560E+03  0.00000000000E+00 0. -1.
         23    2    1    2    0    0 -0.22268290057E+02 -0.34117778014E+00 -0.29292052794E+03  0.31929213917E+03  0.12509612824E+03 0.  0.
         23    2    1    2    0    0  0.22268290057E+02  0.34117778014E+00 -0.21559234590E+03  0.23538645820E+03  0.91819017352E+02 0.  0.
          5    1    3    3  502    0 -0.44394260051E+01  0.45777587622E+02 -0.38638766711E+02  0.60213974497E+02  0.41800000000E+01 0. -1.
         -5    1    3    3    0  502 -0.17828864052E+02 -0.46118765402E+02 -0.25428176123E+03  0.25907816467E+03  0.41800000000E+01 0. -1.
        -11    1    4    4    0    0 -0.15284592002E+02  0.12420182672E+02 -0.39343250104E+01  0.20083789572E+02  0.00000000000E+00 0.  1.
         11    1    4    4    0    0  0.37552882059E+02 -0.12079004892E+02 -0.21165802089E+03  0.21530266863E+03  0.00000000000E+00 0. -1.
</event>
<event>
 8    1  0.5951278E-006  0.1293960E+03  0.7561462E-02  0.1228355E+00
         -1   -1    0    0    0  501 -0.00000000000E+00  0.00000000000E+00  0.40366329714E+02  0.40366329714E+02  0.00000000000E+00 0.  1.
          1   -1    0    0  501    0  0.00000000000E+00 -0.00000000000E+00 -0.57534496790E+03  0.57534496790E+03  0.00000000000E+00 0. -1.
         23    2    1    2    0    0  0.64383198178E+02 -0.75160765578E+02 -0.21083404346E+03  0.26437567917E+03  0.12509663850E+03 0.  0.
         23    2    1    2    0    0 -0.64383198178E+02  0.75160765578E+02 -0.32414459472E+03  0.35133561844E+03  0.92588668894E+02 0.  0.
          5    1    3    3  502    0 -0.27067245081E+02 -0.37401928468E+02 -0.12502603007E+03  0.13334361853E+03  0.41800000000E+01 0.  1.
         -5    1    3    3    0  502  0.91450443259E+02 -0.37758837110E+02 -0.85808013399E+02  0.13103206064E+03  0.41800000000E+01 0.  1.
        -11    1    4    4    0    0  0.19743216209E+01  0.36612605575E+02 -0.21384555000E+03  0.21696612659E+03  0.00000000000E+00 0. -1.
         11    1    4    4    0    0 -0.66357519799E+02  0.38548160003E+02 -0.11029904472E+03  0.13436949185E+03  0.00000000000E+00 0.  1.
</event>
<event>
 8    1  0.5951278E-006  0.1915010E+03  0.7561462E-02  0.1157114E+00
          2   -1    0    0  501    0  0.00000000000E+00  0.00000000000E+00  0.71571354878E+03  0.71571354878E+03  0.00000000000E+00 0.  1.
         -2   -1    0    0    0  501 -0.00000000000E+00 -0.00000000000E+00 -0.51939990414E+02  0.51939990414E+02  0.00000000000E+00 0. -1.
         23    2    1    2    0    0 -0.14733439399E+03 -0.60372142099E+02  0.33096513014E+03  0.38799394169E+03  0.12509661157E+03 0.  0.
         23    2    1    2    0    0  0.14733439399E+03  0.60372142099E+02  0.33280842822E+03  0.37965959750E+03  0.89597661159E+02 0.  0.
          5    1    3    3  502    0  0.12692059163E+02 -0.37335427075E+02  0.50126026524E+02  0.63914891972E+02  0.41800000000E+01 0.  1.
         -5    1    3    3    0  502 -0.16002645315E+03 -0.23036715024E+02  0.28083910362E+03  0.32407904972E+03  0.41800000000E+01 0.  1.
        -11    1    4    4    0    0  0.15006708513E+03  0.32416586959E+02  0.26495923868E+03  0.30622600039E+03  0.00000000000E+00 0. -1.
         11    1    4    4    0    0 -0.27326911406E+01  0.27955555140E+02  0.67849189540E+02  0.73433597116E+02  0.00000000000E+00 0.  1.
</event>
<event>
 8    1  0.5951278E-006  0.1025397E+03  0.7561462E-02  0.1275044E+00
         -2   -1    0    0    0  501 -0.00000000000E+00  0.00000000000E+00  0.43270962092E+03  0.43270962092E+03  0.00000000000E+00 0.  1.
          2   -1    0    0  501    0  0.00000000000E+00 -0.00000000000E+00 -0.36410457657E+02  0.36410457657E+02  0.00000000000E+00 0. -1.
         23    2    1    2    0    0 -0.41502071007E+02 -0.69154655334E+01  0.30865261951E+03  0.33568613135E+03  0.12509393945E+03 0.  0.
         23    2    1    2    0    0  0.41502071007E+02  0.69154655334E+01  0.87646543752E+02  0.13343394723E+03  0.91391772493E+02 0.  0.
          5    1    3    3  502    0  0.42435250431E+02  0.12601592564E+01  0.64375447405E+02  0.77226997282E+02  0.41800000000E+01 0.  1.
         -5    1    3    3    0  502 -0.83937321439E+02 -0.81756247898E+01  0.24427717210E+03  0.25845913406E+03  0.41800000000E+01 0.  1.
        -11    1    4    4    0    0  0.43554719681E+02  0.31221764498E+02  0.94021974579E+02  0.10822173483E+03  0.00000000000E+00 0.  1.
         11    1    4    4    0    0 -0.20526486739E+01 -0.24306298965E+02 -0.63754308269E+01  0.25212212401E+02  0.00000000000E+00 0. -1.
</event>
<event>
 8    1  0.5951278E-006  0.8350436E+02  0.7561462E-02  0.1319391E+00
         -2   -1    0    0    0  501 -0.00000000000E+00  0.00000000000E+00  0.74393438683E+02  0.74393438683E+02  0.00000000000E+00 0.  1.
          2   -1    0    0  501    0  0.00000000000E+00 -0.00000000000E+00 -0.20991814605E+03  0.20991814605E+03  0.00000000000E+00 0. -1.
         23    2    1    2    0    0  0.50087733420E+01 -0.32796026238E+02  0.27638830155E+01  0.11550218766E+03  0.11060040306E+03 0.  0.
         23    2    1    2    0    0 -0.50087733420E+01  0.32796026238E+02 -0.13828859038E+03  0.16880939708E+03  0.90951696872E+02 0.  0.
          5    1    3    3  502    0 -0.12868097817E+02 -0.48215872478E+02 -0.41581093480E+02  0.65090844481E+02  0.41800000000E+01 0. -1.
         -5    1    3    3    0  502  0.17876871159E+02  0.15419846241E+02  0.44344976495E+02  0.50411343177E+02  0.41800000000E+01 0.  1.
        -11    1    4    4    0    0 -0.43147258083E+02  0.77143958929E+00 -0.88122664223E+02  0.98121786311E+02  0.00000000000E+00 0.  1.
         11    1    4    4    0    0  0.38138484741E+02  0.32024586648E+02 -0.50165926162E+02  0.70687610767E+02  0.00000000000E+00 0. -1.
</event>
<event>
 8    1  0.5951278E-006  0.1287991E+03  0.7561462E-02  0.1229249E+00
          1   -1    0    0  501    0  0.00000000000E+00  0.00000000000E+00  0.11730635357E+03  0.11730635357E+03  0.00000000000E+00 0. -1.
         -1   -1    0    0    0  501 -0.00000000000E+00 -0.00000000000E+00 -0.20618520095E+03  0.20618520095E+03  0.00000000000E+00 0.  1.
         23    2    1    2    0    0 -0.11974824832E+02 -0.68247072229E+02 -0.13804131508E+03  0.19876340190E+03  0.12510166254E+03 0.  0.
         23    2    1    2    0    0  0.11974824832E+02  0.68247072229E+02  0.49162467696E+02  0.12472815261E+03  0.91318697574E+02 0.  0.
          5    1    3    3  502    0  0.15007833317E+02 -0.99943018826E+02 -0.95996791275E+02  0.13945141953E+03  0.41800000000E+01 0.  1.
         -5    1    3    3    0  502 -0.26982658149E+02  0.31695946597E+02 -0.42044523803E+02  0.59311982375E+02  0.41800000000E+01 0.  1.
        -11    1    4    4    0    0  0.34854434161E+02 -0.73575407657E+01  0.14279973955E+02  0.38378153199E+02  0.00000000000E+00 0. -1.
         11    1    4    4    0    0 -0.22879609329E+02  0.75604612995E+02  0.34882493740E+02  0.86349999414E+02  0.00000000000E+00 0.  1.
</event>
<event>
 8    1  0.5951278E-006  0.1336831E+03  0.7561462E-02  0.1222091E+00
          1   -1    0    0  501    0  0.00000000000E+00  0.00000000000E+00  0.95821521439E+03  0.95821521439E+03  0.00000000000E+00 0. -1.
         -1   -1    0    0    0  501 -0.00000000000E+00 -0.00000000000E+00 -0.37604869212E+02  0.37604869212E+02  0.00000000000E+00 0.  1.
         23    2    1    2    0    0  0.99991548014E+02  0.76393279190E+01  0.16069280077E+03  0.22396555973E+03  0.11950617859E+03 0.  0.
         23    2    1    2    0    0 -0.99991548014E+02 -0.76393279190E+01  0.75991754441E+03  0.77185452387E+03  0.90708669449E+02 0.  0.
          5    1    3    3  502    0  0.36285068603E+02  0.45170340508E+02  0.13258647965E+03  0.14475362811E+03  0.41800000000E+01 0. -1.
         -5    1    3    3    0  502  0.63706479411E+02 -0.37531012589E+02  0.28106321124E+02  0.79211931627E+02  0.41800000000E+01 0.  1.
        -11    1    4    4    0    0 -0.65451625497E+02 -0.48685656832E+02  0.46073671381E+03  0.46790226320E+03  0.00000000000E+00 0. -1.
         11    1    4    4    0    0 -0.34539922517E+02  0.41046328913E+02  0.29918083060E+03  0.30395226067E+03  0.00000000000E+00 0.  1.
</event>
<event>
 8    1  0.5951278E-006  0.8949769E+02  0.7561462E-02  0.1304073E+00
          4   -1    0    0  501    0  0.00000000000E+00  0.00000000000E+00  0.48478682224E+03  0.48478682224E+03  0.00000000000E+00 0. -1.
         -4   -1    0    0    0  501 -0.00000000000E+00 -0.00000000000E+00 -0.36153015339E+02  0.36153015339E+02  0.00000000000E+00 0.  1.
         23    2    1    2    0    0 -0.48465721033E+02 -0.54926616966E+02  0.21195139863E+03  0.25678646264E+03  0.12510009052E+03 0.  0.
         23    2    1    2    0    0  0.48465721033E+02  0.54926616966E+02  0.23668240827E+03  0.26415337493E+03  0.91611045939E+02 0.  0.
          5    1    3    3  502    0 -0.28949505006E+02 -0.37931998407E+02  0.49758308981E+01  0.48157467089E+02  0.41800000000E+01 0.  1.
         -5    1    3    3    0  502 -0.19516216027E+02 -0.16994618559E+02  0.20697556773E+03  0.20862899555E+03  0.41800000000E+01 0.  1.
        -11    1    4    4    0    0  0.68391634199E+02  0.35513666461E+02  0.10909158466E+03  0.13356500282E+03  0.00000000000E+00 0.  1.
         11    1    4    4    0    0 -0.19925913167E+02  0.19412950506E+02  0.12759082361E+03  0.13058837211E+03  0.00000000000E+00 0. -1.
</event>
<event>
 8    1  0.5951278E-006  0.1048938E+03  0.7561462E-02  0.1270329E+00
          2   -1    0    0  501    0  0.00000000000E+00  0.00000000000E+00  0.40735578107E+02  0.40735578107E+02  0.00000000000E+00 0. -1.
         -2   -1    0    0    0  501 -0.00000000000E+00 -0.00000000000E+00 -0.41126387298E+03  0.41126387298E+03  0.00000000000E+00 0.  1.
         23    2    1    2    0    0 -0.46342774226E+02  0.16842103748E+02 -0.29479023613E+03  0.32400674482E+03  0.12509107958E+03 0.  0.
         23    2    1    2    0    0  0.46342774226E+02 -0.16842103748E+02 -0.75738058745E+02  0.12799270627E+03  0.90634265784E+02 0.  0.
          5    1    3    3  502    0 -0.70563948091E+02  0.46876934613E+02 -0.25362122171E+03  0.26742833483E+03  0.41800000000E+01 0. -1.
         -5    1    3    3    0  502  0.24221173864E+02 -0.30034830865E+02 -0.41169014417E+02  0.56578409986E+02  0.41800000000E+01 0. -1.
        -11    1    4    4    0    0 -0.11056607612E+01  0.23713929216E+02 -0.58656662430E+02  0.63278566450E+02  0.00000000000E+00 0.  1.
         11    1    4    4    0    0  0.47448434987E+02 -0.40556032964E+02 -0.17081396315E+02  0.64714139820E+02  0.00000000000E+00 0. -1.
</event>
<event>
 8    1  0.5951278E-006  0.9139423E+02  0.7561462E-02  0.1299510E+00
         -1   -1    0    0    0  501 -0.00000000000E+00  0.00000000000E+00  0.65586103522E+02  0.65586103522E+02  0.00000000000E+00 0.  1.
          1   -1    0    0  501    0  0.00000000000E+00 -0.00000000000E+00 -0.29927507934E+03  0.29927507934E+03  0.00000000000E+00 0. -1.
         23    2    1    2    0    0 -0.11281201659E+02 -0.43684347418E+00 -0.13311621607E+02  0.12630384226E+03  0.12509198598E+03 0.  0.
         23    2    1    2    0    0  0.11281201659E+02  0.43684347418E+00 -0.22037735422E+03  0.23855734061E+03  0.90641988969E+02 0.  0.
          5    1    3    3  502    0  0.89917417463E+01 -0.48449321522E+02 -0.43557862043E+02  0.65901046436E+02  0.41800000000E+01 0.  1.
         -5    1    3    3    0  502 -0.20272943406E+02  0.48012478047E+02  0.30246240436E+02  0.60402795822E+02  0.41800000000E+01 0.  1.
        -11    1    4    4    0    0  0.42961798805E+02 -0.15391614634E+02 -0.17578846100E+03  0.18161553066E+03  0.00000000000E+00 0. -1.
         11    1    4    4    0    0 -0.31680597146E+02  0.15828458108E+02 -0.44588893215E+02  0.56941809944E+02  0.00000000000E+00 0.  1.
</event>
<event>
 8    1  0.5951278E-006  0.8918546E+02  0.7561462E-02  0.1304836E+00
         -1   -1    0    0    0  501 -0.00000000000E+00  0.00000000000E+00  0.59449186702E+02  0.59449186702E+02  0.00000000000E+00 0.  1.
          1   -1    0    0  501    0  0.00000000000E+00 -0.00000000000E+00 -0.25064221776E+03  0.25064221776E+03  0.00000000000E+00 0. -1.
         23    2    1    2    0    0 -0.34128081446E+02  0.24521800271E+02 -0.72154651502E+02  0.15040747307E+03  0.12510023817E+03 0.  0.
         23    2    1    2    0    0  0.34128081446E+02 -0.24521800271E+02 -0.11903837956E+03  0.15968393140E+03  0.97789454985E+02 0.  0.
          5    1    3    3  502    0 -0.71304466254E+02 -0.19316698911E+02 -0.45938568643E+02  0.87093548863E+02  0.41800000000E+01 0.  1.
         -5    1    3    3    0  502  0.37176384808E+02  0.43838499182E+02 -0.26216082860E+02  0.63313924207E+02  0.41800000000E+01 0.  1.
        -11    1    4    4    0    0  0.29115104984E+02 -0.90592670812E+01 -0.13410048472E+03  0.13752345131E+03  0.00000000000E+00 0. -1.
         11    1    4    4    0    0  0.50129764623E+01 -0.15462533190E+02  0.15062105162E+02  0.22160480084E+02  0.00000000000E+00 0.  1.
</event>
<event>
 8    1  0.5951278E-006  0.9673957E+02  0.7561462E-02  0.1287306E+00
         -2   -1    0    0    0  501 -0.00000000000E+00  0.00000000000E+00  0.17676965874E+02  0.17676965874E+02  0.00000000000E+00 0.  1.
          2   -1    0    0  501    0  0.00000000000E+00 -0.00000000000E+00 -0.67171591129E+03  0.67171591129E+03  0.00000000000E+00 0. -1.
         23    2    1    2    0    0  0.26415505996E+02  0.16369302977E+02 -0.36844575424E+03  0.38755378825E+03  0.11610310906E+03 0.  0.
         23    2    1    2    0    0 -0.26415505996E+02 -0.16369302977E+02 -0.28559319118E+03  0.30183908892E+03  0.92615504705E+02 0.  0.
          5    1    3    3  502    0 -0.42341870321E+01  0.50036761800E+02 -0.30621414977E+03  0.31033237631E+03  0.41800000000E+01 0. -1.
         -5    1    3    3    0  502  0.30649693028E+02 -0.33667458823E+02 -0.62231604471E+02  0.77221411935E+02  0.41800000000E+01 0.  1.
        -11    1    4    4    0    0  0.14930798317E+02  0.31051488591E+02 -0.11302440855E+03  0.11815938647E+03  0.00000000000E+00 0.  1.
         11    1    4    4    0    0 -0.41346304313E+02 -0.47420791568E+02 -0.17256878263E+03  0.18367970245E+03  0.00000000000E+00 0. -1.
</event>
<event>
 8    1  0.5951278E-006  0.1004143E+03  0.7561462E-02  0.1279427E+00
          1   -1    0    0  501    0  0.00000000000E+00  0.00000000000E+00  0.20308844923E+03  0.20308844923E+03  0.00000000000E+00 0. -1.
         -1   -1    0    0    0  501 -0.00000000000E+00 -0.00000000000E+00 -0.11358704144E+03  0.11358704144E+03  0.00000000000E+00 0.  1.
         23    2    1    2    0    0  0.15851705052E+01 -0.78106258156E+02 -0.26713640557E+02  0.14988035258E+03  0.12508957259E+03 0.  0.
         23    2    1    2    0    0 -0.15851705052E+01  0.78106258156E+02  0.11621504835E+03  0.16679513809E+03  0.90617770317E+02 0.  0.
          5    1    3    3  502    0  0.22244173569E+02 -0.26979078145E+02  0.46373279521E+02  0.58229093835E+02  0.41800000000E+01 0.  1.
         -5    1    3    3    0  502 -0.20659003063E+02 -0.51127180011E+02 -0.73086920078E+02  0.91651258747E+02  0.41800000000E+01 0.  1.
        -11    1    4    4    0    0  0.37901910802E+02  0.44553864164E+02  0.28856660359E+02  0.65225060379E+02  0.00000000000E+00 0.  1.
         11    1    4    4    0    0 -0.39487081308E+02  0.33552393992E+02  0.87358387993E+02  0.10157007771E+03  0.00000000000E+00 0. -1.
</event>
<event>
 8    1  0.5951278E-006  0.1121736E+03  0.7561462E-02  0.1256597E+00
          1   -1    0    0  501    0  0.00000000000E+00  0.00000000000E+00  0.10496598860E+03  0.10496598860E+03  0.00000000000E+00 0.  1.
         -1   -1    0    0    0  501 -0.00000000000E+00 -0.00000000000E+00 -0.14637748178E+03  0.14637748178E+03  0.00000000000E+00 0. -1.
         23    2    1    2    0    0 -0.32859762008E+02  0.51568389067E+01 -0.72315669191E+02  0.14826733927E+03  0.12508913197E+03 0.  0.
         23    2    1    2    0    0  0.32859762008E+02 -0.51568389067E+01  0.30904176004E+02  0.10307613111E+03  0.92537904467E+02 0.  0.
          5    1    3    3  502    0  0.69530330145E+01 -0.54177348171E+02 -0.15640846521E+02  0.56970502919E+02  0.41800000000E+01 0.  1.
         -5    1    3    3    0  502 -0.39812795023E+02  0.59334187077E+02 -0.56674822669E+02  0.91296836354E+02  0.41800000000E+01 0.  1.
        -11    1    4    4    0    0  0.43889996402E+02 -0.41260452184E+02  0.23166976509E+02  0.64540417563E+02  0.00000000000E+00 0. -1.
         11    1    4    4    0    0 -0.11030234394E+02  0.36103613277E+02  0.77371994952E+01  0.38535713546E+02  0.00000000000E+00 0.  1.
</event>
<event>
 8    1  0.5951278E-006  0.1087570E+03  0.7561462E-02  0.1262889E+00
         -2   -1    0    0    0  501 -0.00000000000E+00  0.00000000000E+00  0.76179057592E+02  0.76179057592E+02  0.00000000000E+00 0.  1.
          2   -1    0    0  501    0  0.00000000000E+00 -0.00000000000E+00 -0.19117427930E+03  0.19117427930E+03  0.00000000000E+00 0. -1.
         23    2    1    2    0    0  0.48881271475E+02  0.24880073686E+02 -0.66038440476E+02  0.15171034912E+03  0.12508620084E+03 0.  0.
         23    2    1    2    0    0 -0.48881271475E+02 -0.24880073686E+02 -0.48956781228E+02  0.11564298777E+03  0.89264424182E+02 0.  0.
          5    1    3    3  502    0 -0.17473314205E+02  0.46162935860E+02 -0.65216204206E+02  0.81896025835E+02  0.41800000000E+01 0.  1.
         -5    1    3    3    0  502  0.66354585680E+02 -0.21282862174E+02 -0.82223627069E+00  0.69814323284E+02  0.41800000000E+01 0.  1.
        -11    1    4    4    0    0 -0.64553929578E+02  0.46668043851E+01 -0.12047891936E+02  0.65834190108E+02  0.00000000000E+00 0.  1.
         11    1    4    4    0    0  0.15672658103E+02 -0.29546878071E+02 -0.36908889291E+02  0.49808797661E+02  0.00000000000E+00 0. -1.
</event>
<event>
 8    1  0.5951278E-006  0.9575607E+02  0.7561462E-02  0.1289482E+00
          1   -1    0    0  501    0  0.00000000000E+00  0.00000000000E+00  0.21032345996E+03  0.21032345996E+03  0.00000000000E+00 0. -1.
         -1   -1    0    0    0  501 -0.00000000000E+00 -0.00000000000E+00 -0.90236959584E+02  0.90236959584E+02  0.00000000000E+00 0.  1.
         23    2    1    2    0    0  0.71027873386E+02  0.26753158486E+02  0.17172212446E+02  0.14731533468E+03  0.12508490182E+03 0.  0.
         23    2    1    2    0    0 -0.71027873386E+02 -0.26753158486E+02  0.10291428793E+03  0.15324508487E+03  0.84451258659E+02 0.  0.
          5    1    3    3  502    0  0.72082796436E+02  0.22717400774E+02  0.64605666416E+02  0.99515699128E+02  0.41800000000E+01 0.  1.
         -5    1    3    3    0  502 -0.10549230496E+01  0.40357577112E+01 -0.47433453970E+02  0.47799635548E+02  0.41800000000E+01 0.  1.
        -11    1    4    4    0    0  0.25190131828E+01 -0.35731882896E+02  0.16566664334E+02  0.39466026528E+02  0.00000000000E+00 0.  1.
         11    1    4    4    0    0 -0.73546886569E+02  0.89787244103E+01  0.86347623596E+02  0.11377905834E+03  0.00000000000E+00 0. -1.
</event>
<event>
 8    1  0.5951278E-006  0.1802658E+03  0.7561462E-02  0.1167546E+00
          2   -1    0    0  501    0  0.00000000000E+00  0.00000000000E+00  0.71283748413E+02  0.71283748413E+02  0.00000000000E+00 0. -1.
         -2   -1    0    0    0  501 -0.00000000000E+00 -0.00000000000E+00 -0.58684252008E+03  0.58684252008E+03  0.00000000000E+00 0.  1.
         23    2    1    2    0    0  0.80735927616E+01  0.16394364409E+03 -0.35637086683E+03  0.41181277536E+03  0.12508743297E+03 0.  0.
         23    2    1    2    0    0 -0.80735927616E+01 -0.16394364409E+03 -0.15918790484E+03  0.24631349313E+03  0.91579727639E+02 0.  0.
          5    1    3    3  502    0 -0.47333126540E+02  0.59911266160E+02 -0.21213154724E+03  0.22549290547E+03  0.41800000000E+01 0.  1.
         -5    1    3    3    0  502  0.55406719302E+02  0.10403237793E+03 -0.14423931959E+03  0.18631986990E+03  0.41800000000E+01 0.  1.
        -11    1    4    4    0    0 -0.16747494967E+02 -0.13061524389E+03 -0.16529576514E+03  0.21133743279E+03  0.00000000000E+00 0.  1.
         11    1    4    4    0    0  0.86739022052E+01 -0.33328400205E+02  0.61078603058E+01  0.34976060344E+02  0.00000000000E+00 0. -1.
</event>
<event>
 8    1  0.5951278E-006  0.1254185E+03  0.7561462E-02  0.1234417E+00
         -2   -1    0    0    0  501 -0.00000000000E+00  0.00000000000E+00  0.35300041473E+02  0.35300041473E+02  0.00000000000E+00 0.  1.
          2   -1    0    0  501    0  0.00000000000E+00 -0.00000000000E+00 -0.52297475544E+03  0.52297475544E+03  0.00000000000E+00 0. -1.
         23    2    1    2    0    0  0.16987812508E+02  0.77410853390E+02 -0.21838318423E+03  0.26387780443E+03  0.12513694307E+03 0.  0.
         23    2    1    2    0    0 -0.16987812508E+02 -0.77410853390E+02 -0.26929152974E+03  0.29439699248E+03  0.88716600462E+02 0.  0.
          5    1    3    3  502    0 -0.53583640311E+02  0.43468304116E+02 -0.11397524606E+03  0.13329864623E+03  0.41800000000E+01 0.  1.
         -5    1    3    3    0  502  0.70571452819E+02  0.33942549273E+02 -0.10440793817E+03  0.13057915820E+03  0.41800000000E+01 0.  1.
        -11    1    4    4    0    0 -0.42027286990E+02 -0.38355004251E+02 -0.72233801269E+02  0.91951733254E+02  0.00000000000E+00 0.  1.
         11    1    4    4    0    0  0.25039474482E+02 -0.39055849139E+02 -0.19705772847E+03  0.20244525923E+03  0.00000000000E+00 0. -1.
</event>
<event>
 8    1  0.7980186E-006  0.2102285E+03  0.7561462E-02  0.1141385E+00
          1   -1    0    0  501    0  0.00000000000E+00  0.00000000000E+00  0.50313251902E+03  0.50313251902E+03  0.00000000000E+00 0. -1.
         -1   -1    0    0    0  501 -0.00000000000E+00 -0.00000000000E+00 -0.10312152975E+03  0.10312152975E+03  0.00000000000E+00 0.  1.
         23    2    1    2    0    0  0.18561295138E+03 -0.48549273082E+02  0.13226501610E+03  0.26448274138E+03  0.12509151197E+03 0.  0.
         23    2    1    2    0    0 -0.18561295138E+03  0.48549273082E+02  0.26774597317E+03  0.34177130739E+03  0.91162057738E+02 0.  0.
          5    1    3    3  502    0  0.92659243489E+02 -0.71542568422E+02  0.23428773381E+02  0.11945900687E+03  0.41800000000E+01 0.  1.
         -5    1    3    3    0  502  0.92953707895E+02  0.22993295340E+02  0.10883624272E+03  0.14502373451E+03  0.41800000000E+01 0.  1.
        -11    1    4    4    0    0 -0.13233131337E+03 -0.43323092120E+01  0.20445493255E+03  0.24358194688E+03  0.00000000000E+00 0. -1.
         11    1    4    4    0    0 -0.53281638017E+02  0.52881582294E+02  0.63291040612E+02  0.98189360511E+02  0.00000000000E+00 0.  1.
</event>
<event>
 8    1  0.5951278E-006  0.1589701E+03  0.7561462E-02  0.1189864E+00
          1   -1    0    0  501    0  0.00000000000E+00  0.00000000000E+00  0.21726277761E+03  0.21726277761E+03  0.00000000000E+00 0. -1.
         -1   -1    0    0    0  501 -0.00000000000E+00 -0.00000000000E+00 -0.15305326021E+03  0.15305326021E+03  0.00000000000E+00 0.  1.
         23    2    1    2    0    0  0.14094881588E+03 -0.42709960029E+02  0.18870475305E+02  0.19413517223E+03  0.12506662573E+03 0.  0.
         23    2    1    2    0    0 -0.14094881588E+03  0.42709960029E+02  0.45339042087E+02  0.17618086560E+03  0.85401166739E+02 0.  0.
          5    1    3    3  502    0  0.11887595089E+03 -0.38161074626E+02 -0.39831101560E+02  0.13111730766E+03  0.41800000000E+01 0. -1.
         -5    1    3    3    0  502  0.22072864990E+02 -0.45488854034E+01  0.58701576865E+02  0.63017864560E+02  0.41800000000E+01 0. -1.
        -11    1    4    4    0    0 -0.76405478975E+02  0.66518105331E+02  0.30610230330E+02  0.10582741495E+03  0.00000000000E+00 0. -1.
         11    1    4    4    0    0 -0.64543336909E+02 -0.23808145302E+02  0.14728811757E+02  0.70353450647E+02  0.00000000000E+00 0.  1.
</event>
<event>
 8    1  0.5951278E-006  0.9690992E+02  0.7561462E-02  0.1286931E+00
          1   -1    0    0  501    0  0.00000000000E+00  0.00000000000E+00  0.29193257260E+03  0.29193257260E+03  0.00000000000E+00 0. -1.
         -1   -1    0    0    0  501 -0.00000000000E+00 -0.00000000000E+00 -0.51125788387E+02  0.51125788387E+02  0.00000000000E+00 0.  1.
         23    2    1    2    0    0  0.31278140879E+02 -0.48201179185E+02  0.14483124012E+03  0.19981550240E+03  0.12509384922E+03 0.  0.
         23    2    1    2    0    0 -0.31278140879E+02  0.48201179185E+02  0.95975544099E+02  0.14324285859E+03  0.89473659253E+02 0.  0.
          5    1    3    3  502    0  0.35293050548E+02  0.28700811932E+02  0.13707204286E+02  0.47693771836E+02  0.41800000000E+01 0. -1.
         -5    1    3    3    0  502 -0.40149096690E+01 -0.76901991117E+02  0.13112403583E+03  0.15212173056E+03  0.41800000000E+01 0. -1.
        -11    1    4    4    0    0 -0.26937640628E+02  0.47530455105E+01 -0.96037189266E+01  0.28990676802E+02  0.00000000000E+00 0.  1.
         11    1    4    4    0    0 -0.43405002515E+01  0.43448133674E+02  0.10557926303E+03  0.11425218179E+03  0.00000000000E+00 0. -1.
</event>
<event>
 8    1  0.5951278E-006  0.1477410E+03  0.7561462E-02  0.1203277E+00
          1   -1    0    0  501    0  0.00000000000E+00  0.00000000000E+00  0.61050193648E+03  0.61050193648E+03  0.00000000000E+00 0. -1.
         -1   -1    0    0    0  501 -0.00000000000E+00 -0.00000000000E+00 -0.42412449519E+02  0.42412449519E+02  0.00000000000E+00 0.  1.
         23    2    1    2    0    0  0.96980625668E+02 -0.58330862938E+02  0.23855903994E+03  0.29217809334E+03  0.12509952584E+03 0.  0.
         23    2    1    2    0    0 -0.96980625668E+02  0.58330862938E+02  0.32953044702E+03  0.36073629265E+03  0.93448520585E+02 0.  0.
          5    1    3    3  502    0 -0.47411305588E+01 -0.66032725629E+02  0.86094862374E+02  0.10868577138E+03  0.41800000000E+01 0.  1.
         -5    1    3    3    0  502  0.10172175623E+03  0.77018626901E+01  0.15246417757E+03  0.18349232197E+03  0.41800000000E+01 0.  1.
        -11    1    4    4    0    0  0.75965682515E+01  0.78552599438E+01 -0.43307739197E+00  0.10936201992E+02  0.00000000000E+00 0.  1.
         11    1    4    4    0    0 -0.10457719392E+03  0.50475602995E+02  0.32996352441E+03  0.34980009066E+03  0.00000000000E+00 0. -1.
</event>
<event>
 8    1  0.5951278E-006  0.1086508E+03  0.7561462E-02  0.1263089E+00
         -2   -1    0    0    0  501 -0.00000000000E+00  0.00000000000E+00  0.83808733000E+02  0.83808733000E+02  0.00000000000E+00 0.  1.
          2   -1    0    0  501    0  0.00000000000E+00 -0.00000000000E+00 -0.18805194546E+03  0.18805194546E+03  0.00000000000E+00 0. -1.
         23    2    1    2    0    0 -0.76380080675E+01 -0.58714072272E+01  0.92052931574E+01  0.12579779628E+03  0.12509010966E+03 0.  0.
         23    2    1    2    0    0  0.76380080675E+01  0.58714072272E+01 -0.11344850562E+03  0.14606288219E+03  0.91493111955E+02 0.  0.
          5    1    3    3  502    0  0.11201872942E+02  0.57717558123E+02  0.63454929684E+01  0.59283523462E+02  0.41800000000E+01 0.  1.
         -5    1    3    3    0  502 -0.18839881009E+02 -0.63588965350E+02  0.28598001890E+01  0.66514272813E+02  0.41800000000E+01 0.  1.
        -11    1    4    4    0    0 -0.11477338948E+02 -0.40316689873E+02 -0.55024707902E+02  0.69172850681E+02  0.00000000000E+00 0.  1.
         11    1    4    4    0    0  0.19115347015E+02  0.46188097100E+02 -0.58423797717E+02  0.76890031505E+02  0.00000000000E+00 0. -1.
</event>
<event>
 8    1  0.5951278E-006  0.1824373E+03  0.7561462E-02  0.1165465E+00
         -3   -1    0    0    0  501 -0.00000000000E+00  0.00000000000E+00  0.27013113917E+03  0.27013113917E+03  0.00000000000E+00 0.  1.
          3   -1    0    0  501    0  0.00000000000E+00 -0.00000000000E+00 -0.15743158895E+03  0.15743158895E+03  0.00000000000E+00 0. -1.
         23    2    1    2    0    0 -0.75815581971E+02  0.13020205127E+03  0.15346850044E+03  0.24880678490E+03  0.12510659040E+03 0.  0.
         23    2    1    2    0    0  0.75815581971E+02 -0.13020205127E+03 -0.40768950219E+02  0.17875594322E+03  0.87126364046E+02 0.  0.
          5    1    3    3  502    0  0.56975262673E+01 -0.21756529168E+02  0.23812845904E+02  0.33020181663E+02  0.41800000000E+01 0.  1.
         -5    1    3    3    0  502 -0.81513108238E+02  0.15195858044E+03  0.12965565454E+03  0.21578660324E+03  0.41800000000E+01 0.  1.
        -11    1    4    4    0    0  0.30113533832E+02 -0.11859018893E+03 -0.10678453849E+02  0.12281892040E+03  0.00000000000E+00 0. -1.
         11    1    4    4    0    0  0.45702048139E+02 -0.11611862336E+02 -0.30090496370E+02  0.55937022827E+02  0.00000000000E+00 0.  1.
</event>
<event>
 8    1  0.5951278E-006  0.9429168E+02  0.7561462E-02  0.1292779E+00
          2   -1    0    0  501    0  0.00000000000E+00  0.00000000000E+00  0.30961524270E+03  0.30961524270E+03  0.00000000000E+00 0. -1.
         -2   -1    0    0    0  501 -0.00000000000E+00 -0.00000000000E+00 -0.56552569319E+02  0.56552569319E+02  0.00000000000E+00 0.  1.
         23    2    1    2    0    0 -0.26770291214E+02 -0.38505354119E+02  0.59363345686E+02  0.14618611592E+03  0.12508822042E+03 0.  0.
         23    2    1    2    0    0  0.26770291214E+02  0.38505354119E+02  0.19369932769E+03  0.21998169610E+03  0.93130050372E+02 0.  0.
          5    1    3    3  502    0 -0.67145497190E+02 -0.45733257638E+02  0.65580126592E+02  0.10449054527E+03  0.41800000000E+01 0.  1.
         -5    1    3    3    0  502  0.40375205976E+02  0.72279035191E+01 -0.62167809063E+01  0.41695570648E+02  0.41800000000E+01 0.  1.
        -11    1    4    4    0    0 -0.13214884152E+02  0.61808648777E+01 -0.44639566363E+01  0.15256577684E+02  0.00000000000E+00 0.  1.
         11    1    4    4    0    0  0.39985175366E+02  0.32324489241E+02  0.19816328433E+03  0.20472511842E+03  0.00000000000E+00 0. -1.
</event>
<event>
 7    1  0.5951278E-006  0.1597076E+03  0.7561462E-02  0.1189027E+00
          2   -1    0    0  501    0  0.00000000000E+00  0.00000000000E+00  0.11298970439E+03  0.11298970439E+03  0.00000000000E+00 0. -1.
         -2   -1    0    0    0  501 -0.00000000000E+00 -0.00000000000E+00 -0.31756181530E+03  0.31756181530E+03  0.00000000000E+00 0.  1.
         23    2    1    2    0    0 -0.26863865298E+02 -0.44314394704E+02  0.21771560318E+02  0.10809385642E+03  0.92330104080E+02 0.  0.
          5    1    1    2  502    0  0.98159876793E+02  0.96158260540E+02 -0.16606271285E+03  0.21558309182E+03  0.41800000000E+01 0. -1.
         -5    1    1    2    0  502 -0.71296011495E+02 -0.51843865836E+02 -0.60280958386E+02  0.10687457146E+03  0.41800000000E+01 0.  1.
        -11    1    3    3    0    0  0.52285403946E+01 -0.58405600799E+02  0.37576063076E+02  0.69645619788E+02  0.00000000000E+00 0.  1.
         11    1    3    3    0    0 -0.32092405692E+02  0.14091206095E+02 -0.15804502758E+02  0.38448236628E+02  0.00000000000E+00 0. -1.
</event>
<event>
 8    1  0.5951278E-006  0.9842644E+02  0.7561462E-02  0.1283640E+00
          1   -1    0    0  501    0  0.00000000000E+00  0.00000000000E+00  0.20505559474E+03  0.20505559474E+03  0.00000000000E+00 0. -1.
         -1   -1    0    0    0  501 -0.00000000000E+00 -0.00000000000E+00 -0.10027878436E+03  0.10027878436E+03  0.00000000000E+00 0.  1.
         23    2    1    2    0    0  0.74021114074E+02 -0.19644423957E+02  0.15768352317E+01  0.14667938034E+03  0.12508927007E+03 0.  0.
         23    2    1    2    0    0 -0.74021114074E+02  0.19644423957E+02  0.10319997515E+03  0.15865499876E+03  0.93038406259E+02 0.  0.
          5    1    3    3  502    0  0.11284142283E+02 -0.71883560707E+01  0.58987325317E+02  0.60629871170E+02  0.41800000000E+01 0.  1.
         -5    1    3    3    0  502  0.62736971790E+02 -0.12456067886E+02 -0.57410490085E+02  0.86049509170E+02  0.41800000000E+01 0.  1.
        -11    1    4    4    0    0 -0.42895231430E+02  0.56216989479E+02  0.74461915610E+02  0.10268849820E+03  0.00000000000E+00 0.  1.
         11    1    4    4    0    0 -0.31125882644E+02 -0.36572565522E+02  0.28738059544E+02  0.55966500566E+02  0.00000000000E+00 0. -1.
</event>
<event>
 8    1  0.5951278E-006  0.1051914E+03  0.7561462E-02  0.1269743E+00
          1   -1    0    0  501    0  0.00000000000E+00  0.00000000000E+00  0.12880767369E+03  0.12880767369E+03  0.00000000000E+00 0. -1.
         -1   -1    0    0    0  501 -0.00000000000E+00 -0.00000000000E+00 -0.11097435537E+03  0.11097435537E+03  0.00000000000E+00 0.  1.
         23    2    1    2    0    0 -0.35330200557E+02 -0.31352441970E+02 -0.32015299917E+01  0.13375295637E+03  0.12509358438E+03 0.  0.
         23    2    1    2    0    0  0.35330200557E+02  0.31352441970E+02  0.21034848310E+02  0.10602907269E+03  0.92566196442E+02 0.  0.
          5    1    3    3  502    0 -0.59540493778E+02  0.22209989434E+02  0.25009339990E+02  0.68419978929E+02  0.41800000000E+01 0. -1.
         -5    1    3    3    0  502  0.24210293220E+02 -0.53562431404E+02 -0.28210869982E+02  0.65332977437E+02  0.41800000000E+01 0. -1.
        -11    1    4    4    0    0  0.58200687959E+02  0.16482387825E+02 -0.13541744504E+02  0.61986837567E+02  0.00000000000E+00 0.  1.
         11    1    4    4    0    0 -0.22870487402E+02  0.14870054145E+02  0.34576592814E+02  0.44042235126E+02  0.00000000000E+00 0. -1.
</event>
<event>
 8    1  0.5951278E-006  0.2054901E+03  0.7561462E-02  0.1145188E+00
         -2   -1    0    0    0  501 -0.00000000000E+00  0.00000000000E+00  0.64265892947E+02  0.64265892947E+02  0.00000000000E+00 0.  1.
          2   -1    0    0  501    0  0.00000000000E+00 -0.00000000000E+00 -0.10046051143E+04  0.10046051143E+04  0.00000000000E+00 0. -1.
         23    2    1    2    0    0  0.13313162708E+03 -0.12788491388E+03 -0.19676412297E+03  0.29739245136E+03  0.12509024226E+03 0.  0.
         23    2    1    2    0    0 -0.13313162708E+03  0.12788491388E+03 -0.74357509836E+03  0.77147855586E+03  0.90535373905E+02 0.  0.
          5    1    3    3  502    0  0.76568939656E+02 -0.14054614919E+03 -0.16963647120E+03  0.23325957072E+03  0.41800000000E+01 0. -1.
         -5    1    3    3    0  502  0.56562687425E+02  0.12661235305E+02 -0.27127651768E+02  0.64132880636E+02  0.41800000000E+01 0. -1.
        -11    1    4    4    0    0 -0.57685662704E+02  0.19878074950E+02 -0.12585673063E+03  0.13986668721E+03  0.00000000000E+00 0.  1.
         11    1    4    4    0    0 -0.75445964378E+02  0.10800683893E+03 -0.61771836773E+03  0.63161186866E+03  0.00000000000E+00 0. -1.
</event>
<event>
 8    1  0.6166259E-006  0.1371531E+03  0.7561462E-02  0.1217212E+00
          4   -1    0    0  501    0  0.00000000000E+00  0.00000000000E+00  0.73235591691E+02  0.73235591691E+02  0.00000000000E+00 0. -1.
         -4   -1    0    0    0  501 -0.00000000000E+00 -0.00000000000E+00 -0.33783814137E+03  0.33783814137E+03  0.00000000000E+00 0.  1.
         23    2    1    2    0    0 -0.10316554242E+03 -0.45899143198E+02 -0.13561270887E+03  0.21630619358E+03  0.12509077538E+03 0.  0.
         23    2    1    2    0    0  0.10316554242E+03  0.45899143198E+02 -0.12898984081E+03  0.19476753948E+03  0.92445415863E+02 0.  0.
          5    1    3    3  502    0  0.60532458564E+01 -0.49455146859E+02 -0.78138571047E+02  0.92766168518E+02  0.41800000000E+01 0.  1.
         -5    1    3    3    0  502 -0.10921878827E+03  0.35560036609E+01 -0.57474137819E+02  0.12354002506E+03  0.41800000000E+01 0.  1.
        -11    1    4    4    0    0  0.42011268875E+02  0.73201351756E+01 -0.11291043448E+03  0.12069505916E+03  0.00000000000E+00 0.  1.
         11    1    4    4    0    0  0.61154273543E+02  0.38579008022E+02 -0.16079406331E+02  0.74072480319E+02  0.00000000000E+00 0. -1.
</event>
<event>
 8    1  0.5951278E-006  0.1172593E+03  0.7561462E-02  0.1247688E+00
         -2   -1    0    0    0  501 -0.00000000000E+00  0.00000000000E+00  0.11654048966E+03  0.11654048966E+03  0.00000000000E+00 0.  1.
          2   -1    0    0  501    0  0.00000000000E+00 -0.00000000000E+00 -0.43381219617E+03  0.43381219617E+03  0.00000000000E+00 0. -1.
         23    2    1    2    0    0 -0.28797157099E+02  0.81026238762E+02  0.51973822203E+02  0.16044736085E+03  0.12509016662E+03 0.  0.
         23    2    1    2    0    0  0.28797157099E+02 -0.81026238762E+02 -0.36924552871E+03  0.38990532499E+03  0.91046001311E+02 0.  0.
          5    1    3    3  502    0 -0.46086984331E+02  0.80915563489E+02  0.82916779113E+02  0.12475577421E+03  0.41800000000E+01 0.  1.
         -5    1    3    3    0  502  0.17289827232E+02  0.11067527267E+00 -0.30942956910E+02  0.35691586643E+02  0.41800000000E+01 0.  1.
        -11    1    4    4    0    0 -0.34328632474E+01 -0.89996130362E+02 -0.23821420757E+03  0.25467056508E+03  0.00000000000E+00 0.  1.
         11    1    4    4    0    0  0.32230020346E+02  0.89698916004E+01 -0.13103132114E+03  0.13523475990E+03  0.00000000000E+00 0. -1.
</event>
<event>
 8    1  0.5951278E-006  0.1085606E+03  0.7561462E-02  0.1263259E+00
         -1   -1    0    0    0  501 -0.00000000000E+00  0.00000000000E+00  0.51537533213E+03  0.51537533213E+03  0.00000000000E+00 0.  1.
          1   -1    0    0  501    0  0.00000000000E+00 -0.00000000000E+00 -0.34203301969E+02  0.34203301969E+02  0.00000000000E+00 0. -1.
         23    2    1    2    0    0 -0.13737370046E+02  0.34047588474E+02  0.40407168576E+03  0.42458135738E+03  0.12508976052E+03 0.  0.
         23    2    1    2    0    0  0.13737370046E+02 -0.34047588474E+02  0.77100344405E+02  0.12499727672E+03  0.91279255383E+02 0.  0.
          5    1    3    3  502    0  0.51806151903E+02 -0.70179680690E+01  0.18093187283E+03  0.18837978729E+03  0.41800000000E+01 0.  1.
         -5    1    3    3    0  502 -0.65543521949E+02  0.41065556543E+02  0.22313981292E+03  0.23620157009E+03  0.41800000000E+01 0.  1.
        -11    1    4    4    0    0  0.42520057811E+02 -0.39367914484E+02  0.76178012855E+02  0.95712473846E+02  0.00000000000E+00 0.  1.
         11    1    4    4    0    0 -0.28782687765E+02  0.53203260103E+01  0.92233154940E+00  0.29284802873E+02  0.00000000000E+00 0. -1.
</event>
<event>
 7    1  0.5951278E-006  0.1327569E+03  0.7561462E-02  0.1223421E+00
         -1   -1    0    0    0  501 -0.00000000000E+00  0.00000000000E+00  0.12354848905E+03  0.12354848905E+03  0.00000000000E+00 0.  1.
          1   -1    0    0  501    0  0.00000000000E+00 -0.00000000000E+00 -0.16339904656E+03  0.16339904656E+03  0.00000000000E+00 0. -1.
         23    2    1    2    0    0  0.57412854301E+02  0.53213784371E+02 -0.54718740502E+02  0.13221681188E+03  0.91428672176E+02 0.  0.
          5    1    1    2  502    0 -0.93990544130E+02 -0.67356210802E+01  0.14531993315E+02  0.95437111266E+02  0.41800000000E+01 0. -1.
         -5    1    1    2    0  502  0.36577689829E+02 -0.46478163291E+02  0.33618967653E+00  0.59293612469E+02  0.41800000000E+01 0.  1.
        -11    1    3    3    0    0  0.22319414491E+01 -0.20051822460E+02  0.73446631013E+01  0.21470939027E+02  0.00000000000E+00 0. -1.
         11    1    3    3    0    0  0.55180912852E+02  0.73265606832E+02 -0.62063403603E+02  0.11074587285E+03  0.00000000000E+00 0.  1.
</event>
<event>
 7    1  0.5951278E-006  0.1644711E+03  0.7561462E-02  0.1183739E+00
         -1   -1    0    0    0  501 -0.00000000000E+00  0.00000000000E+00  0.93210532144E+02  0.93210532144E+02  0.00000000000E+00 0.  1.
          1   -1    0    0  501    0  0.00000000000E+00 -0.00000000000E+00 -0.42006819528E+03  0.42006819528E+03  0.00000000000E+00 0. -1.
         23    2    1    2    0    0  0.49306834308E+02 -0.77232164498E+01 -0.25320000081E+03  0.27358351561E+03  0.90812375907E+02 0.  0.
          5    1    1    2  502    0  0.86756577963E+02  0.20105136758E+02 -0.45666939294E+02  0.10016916735E+03  0.41800000000E+01 0. -1.
         -5    1    1    2    0  502 -0.13606341227E+03 -0.12381920309E+02 -0.27990723034E+02  0.13952604447E+03  0.41800000000E+01 0.  1.
        -11    1    3    3    0    0 -0.13708591374E+02 -0.32589014768E+02 -0.10027930302E+03  0.10632924328E+03  0.00000000000E+00 0.  1.
         11    1    3    3    0    0  0.63015425682E+02  0.24865798318E+02 -0.15292069779E+03  0.16725427233E+03  0.00000000000E+00 0. -1.
</event>
<event>
 8    1  0.5951278E-006  0.1848350E+03  0.7561462E-02  0.1163204E+00
         -1   -1    0    0    0  501 -0.00000000000E+00  0.00000000000E+00  0.26471844430E+02  0.26471844430E+02  0.00000000000E+00 0.  1.
          1   -1    0    0  501    0  0.00000000000E+00 -0.00000000000E+00 -0.14128445891E+04  0.14128445891E+04  0.00000000000E+00 0. -1.
         23    2    1    2    0    0  0.72786860298E+02 -0.13758329768E+03 -0.86201070877E+03  0.88483743303E+03  0.12509088703E+03 0.  0.
         23    2    1    2    0    0 -0.72786860298E+02  0.13758329768E+03 -0.52436203593E+03  0.55447900054E+03  0.90908341070E+02 0.  0.
          5    1    3    3  502    0 -0.36495635925E+01 -0.10685920220E+03 -0.34270313185E+03  0.35901966156E+03  0.41800000000E+01 0. -1.
         -5    1    3    3    0  502  0.76436423890E+02 -0.30724095486E+02 -0.51930757692E+03  0.52581777147E+03  0.41800000000E+01 0. -1.
        -11    1    4    4    0    0 -0.35939579958E+02  0.13873581836E+03 -0.42332366058E+03  0.44692527598E+03  0.00000000000E+00 0. -1.
         11    1    4    4    0    0 -0.36847280340E+02 -0.11525206736E+01 -0.10103837536E+03  0.10755372456E+03  0.00000000000E+00 0.  1.
</event>
<event>
 8    1  0.5951278E-006  0.9746227E+02  0.7561462E-02  0.1285725E+00
         -2   -1    0    0    0  501 -0.00000000000E+00  0.00000000000E+00  0.37298705978E+03  0.37298705978E+03  0.00000000000E+00 0.  1.
          2   -1    0    0  501    0  0.00000000000E+00 -0.00000000000E+00 -0.42932069250E+02  0.42932069250E+02  0.00000000000E+00 0. -1.
         23    2    1    2    0    0 -0.57409704232E+02 -0.30765313018E+02  0.19062369653E+03  0.23712296151E+03  0.12509007385E+03 0.  0.
         23    2    1    2    0    0  0.57409704232E+02  0.30765313018E+02  0.13943129401E+03  0.17879616752E+03  0.91019806337E+02 0.  0.
          5    1    3    3  502    0 -0.59391489222E+02 -0.62681581774E+02  0.18524890044E+03  0.20442836692E+03  0.41800000000E+01 0. -1.
         -5    1    3    3    0  502  0.19817849909E+01  0.31916268756E+02  0.53747960865E+01  0.32694594599E+02  0.41800000000E+01 0. -1.
        -11    1    4    4    0    0  0.14813388525E+01  0.19017027199E+02 -0.79936734266E+01  0.20681888288E+02  0.00000000000E+00 0. -1.
         11    1    4    4    0    0  0.55928365379E+02  0.11748285819E+02  0.14742496743E+03  0.15811427923E+03  0.00000000000E+00 0.  1.
</event>
<event>
 8    1  0.5951278E-006  0.1546299E+03  0.7561462E-02  0.1194896E+00
          1   -1    0    0  501    0  0.00000000000E+00  0.00000000000E+00  0.42960018768E+03  0.42960018768E+03  0.00000000000E+00 0. -1.
         -1   -1    0    0    0  501 -0.00000000000E+00 -0.00000000000E+00 -0.75717477818E+02  0.75717477818E+02  0.00000000000E+00 0.  1.
         23    2    1    2    0    0  0.10815705917E+03  0.40098613524E+02  0.67234237940E+02  0.18295818559E+03  0.12508959457E+03 0.  0.
         23    2    1    2    0    0 -0.10815705917E+03 -0.40098613524E+02  0.28664847192E+03  0.32235947990E+03  0.91882749062E+02 0.  0.
          5    1    3    3  502    0  0.88312770396E+02  0.80889541386E+02  0.28528813564E+02  0.12318128480E+03  0.41800000000E+01 0.  1.
         -5    1    3    3    0  502  0.19844288773E+02 -0.40790927862E+02  0.38705424376E+02  0.59776900797E+02  0.41800000000E+01 0.  1.
        -11    1    4    4    0    0 -0.84198004423E+02  0.13397695888E+02  0.20339372728E+03  0.22053981614E+03  0.00000000000E+00 0. -1.
         11    1    4    4    0    0 -0.23959054746E+02 -0.53496309411E+02  0.83254744640E+02  0.10181966377E+03  0.00000000000E+00 0.  1.
</event>
<event>
 8    1  0.5951278E-006  0.1127491E+03  0.7561462E-02  0.1255562E+00
         -2   -1    0    0    0  501 -0.00000000000E+00  0.00000000000E+00  0.72317736228E+02  0.72317736228E+02  0.00000000000E+00 0.  1.
          2   -1    0    0  501    0  0.00000000000E+00 -0.00000000000E+00 -0.30965179368E+03  0.30965179368E+03  0.00000000000E+00 0. -1.
         23    2    1    2    0    0 -0.47568377093E+02  0.80072991661E+01 -0.12302850353E+02  0.13464368215E+03  0.12510273249E+03 0.  0.
         23    2    1    2    0    0  0.47568377093E+02 -0.80072991661E+01 -0.22503120710E+03  0.24732584776E+03  0.90576837340E+02 0.  0.
          5    1    3    3  502    0 -0.73618146242E+02  0.41060150844E+02 -0.28904613286E+02  0.89210517948E+02  0.41800000000E+01 0. -1.
         -5    1    3    3    0  502  0.26049769149E+02 -0.33052851678E+02  0.16601762933E+02  0.45433164200E+02  0.41800000000E+01 0. -1.
        -11    1    4    4    0    0 -0.24533870182E+02 -0.10446573359E+02 -0.94438329007E+02  0.98130727434E+02  0.00000000000E+00 0. -1.
         11    1    4    4    0    0  0.72102247275E+02  0.24392741927E+01 -0.13059287809E+03  0.14919512032E+03  0.00000000000E+00 0.  1.
</event>
<event>
 8    1  0.5951278E-006  0.1192590E+03  0.7561462E-02  0.1244324E+00
          2   -1    0    0  501    0  0.00000000000E+00  0.00000000000E+00  0.53519327785E+03  0.53519327785E+03  0.00000000000E+00 0. -1.
         -2   -1    0    0    0  501 -0.00000000000E+00 -0.00000000000E+00 -0.38194142927E+02  0.38194142927E+02  0.00000000000E+00 0.  1.
         23    2    1    2    0    0 -0.88450422104E+02  0.13276693477E+02  0.32116359110E+03  0.35607655967E+03  0.12507884050E+03 0.  0.
         23    2    1    2    0    0  0.88450422104E+02 -0.13276693477E+02  0.17583554382E+03  0.21731086110E+03  0.91137940081E+02 0.  0.
          5    1    3    3  502    0 -0.78509350357E+02 -0.16588920980E+02  0.31319625759E+03  0.32333926233E+03  0.41800000000E+01 0. -1.
         -5    1    3    3    0  502 -0.99410717471E+01  0.29865614456E+02  0.79673335097E+01  0.32737297347E+02  0.41800000000E+01 0. -1.
        -11    1    4    4    0    0  0.91801504062E+02 -0.39527469787E+02  0.12545044673E+03  0.16039872693E+03  0.00000000000E+00 0.  1.
         11    1    4    4    0    0 -0.33510819578E+01  0.26250776311E+02  0.50385097095E+02  0.56912134176E+02  0.00000000000E+00 0. -1.
</event>
<event>
 8    1  0.5951278E-006  0.1545114E+03  0.7561462E-02  0.1195036E+00
          2   -1    0    0  501    0  0.00000000000E+00  0.00000000000E+00  0.50125220701E+03  0.50125220701E+03  0.00000000000E+00 0.  1.
         -2   -1    0    0    0  501 -0.00000000000E+00 -0.00000000000E+00 -0.58442236163E+02  0.58442236163E+02  0.00000000000E+00 0. -1.
         23    2    1    2    0    0 -0.65786286351E+02  0.11288646315E+03  0.20168820069E+03  0.27091869419E+03  0.12509044540E+03 0.  0.
         23    2    1    2    0    0  0.65786286351E+02 -0.11288646315E+03  0.24112177015E+03  0.28877574898E+03  0.90446316238E+02 0.  0.
          5    1    3    3  502    0 -0.81863735598E+02  0.25708920163E+02  0.64076011750E+02  0.10717195279E+03  0.41800000000E+01 0. -1.
         -5    1    3    3    0  502  0.16077449247E+02  0.87177542991E+02  0.13761218894E+03  0.16374674141E+03  0.41800000000E+01 0. -1.
        -11    1    4    4    0    0  0.31156352278E+02 -0.25132762110E+02  0.13279659431E+02  0.42174914026E+02  0.00000000000E+00 0. -1.
         11    1    4    4    0    0  0.34629934073E+02 -0.87753701044E+02  0.22784211072E+03  0.24660083495E+03  0.00000000000E+00 0.  1.
</event>
<event>
 8    1  0.5951278E-006  0.1098584E+03  0.7561462E-02  0.1260832E+00
         -4   -1    0    0    0  501 -0.00000000000E+00  0.00000000000E+00  0.40969449602E+02  0.40969449602E+02  0.00000000000E+00 0.  1.
          4   -1    0    0  501    0  0.00000000000E+00 -0.00000000000E+00 -0.40149339380E+03  0.40149339380E+03  0.00000000000E+00 0. -1.
         23    2    1    2    0    0  0.59077848851E+02  0.18440121521E+02 -0.15585664283E+03  0.20920533833E+03  0.12508137418E+03 0.  0.
         23    2    1    2    0    0 -0.59077848851E+02 -0.18440121521E+02 -0.20466730137E+03  0.23325750507E+03  0.93220862019E+02 0.  0.
          5    1    3    3  502    0  0.90443280890E+02  0.14392439463E+02 -0.15140258438E+03  0.17699532291E+03  0.41800000000E+01 0.  1.
         -5    1    3    3    0  502 -0.31365432039E+02  0.40476820579E+01 -0.44540584421E+01  0.32210015424E+02  0.41800000000E+01 0.  1.
        -11    1    4    4    0    0 -0.22564190171E+02 -0.45435816016E+02 -0.16611915401E+03  0.17369262904E+03  0.00000000000E+00 0. -1.
         11    1    4    4    0    0 -0.36513658680E+02  0.26995694494E+02 -0.38548147363E+02  0.59564876031E+02  0.00000000000E+00 0.  1.
</event>
<event>
 8    1  0.5951278E-006  0.2027642E+03  0.7561462E-02  0.1147428E+00
          1   -1    0    0  501    0  0.00000000000E+00  0.00000000000E+00  0.38851036670E+03  0.38851036670E+03  0.00000000000E+00 0. -1.
         -1   -1    0    0    0  501 -0.00000000000E+00 -0.00000000000E+00 -0.15264442990E+03  0.15264442990E+03  0.00000000000E+00 0.  1.
         23    2    1    2    0    0  0.10045372454E+03 -0.13906779559E+03 -0.27031865935E+02  0.21403182216E+03  0.12509235219E+03 0.  0.
         23    2    1    2    0    0 -0.10045372454E+03  0.13906779559E+03  0.26289780274E+03  0.32712297444E+03  0.91996647630E+02 0.  0.
          5    1    3    3  502    0 -0.28181155582E+02 -0.15132313314E+02 -0.13093706783E+02  0.34814967952E+02  0.41800000000E+01 0. -1.
         -5    1    3    3    0  502  0.12863488013E+03 -0.12393548227E+03 -0.13938159152E+02  0.17921685421E+03  0.41800000000E+01 0. -1.
        -11    1    4    4    0    0 -0.10251252590E+03  0.66927611952E+02  0.16957210985E+03  0.20914785117E+03  0.00000000000E+00 0.  1.
         11    1    4    4    0    0  0.20588013544E+01  0.72140183635E+02  0.93325692888E+02  0.11797512327E+03  0.00000000000E+00 0. -1.
</event>
<event>
 8    1  0.5951278E-006  0.1039393E+03  0.7561462E-02  0.1272224E+00
          2   -1    0    0  501    0  0.00000000000E+00  0.00000000000E+00  0.32969010599E+02  0.32969010599E+02  0.00000000000E+00 0.  1.
         -2   -1    0    0    0  501 -0.00000000000E+00 -0.00000000000E+00 -0.55597611820E+03  0.55597611820E+03  0.00000000000E+00 0. -1.
         23    2    1    2    0    0  0.34667023590E+02  0.50854079431E+02 -0.40839996798E+03  0.43021238377E+03  0.12043347285E+03 0.  0.
         23    2    1    2    0    0 -0.34667023590E+02 -0.50854079431E+02 -0.11460713961E+03  0.15873274502E+03  0.90957946176E+02 0.  0.
          5    1    3    3  502    0  0.58871223879E+02  0.50843498486E+02 -0.39423600491E+03  0.40185865962E+03  0.41800000000E+01 0. -1.
         -5    1    3    3    0  502 -0.24204200289E+02  0.10580945478E-01 -0.14163963070E+02  0.28353724155E+02  0.41800000000E+01 0.  1.
        -11    1    4    4    0    0 -0.29119576275E+02  0.19370068495E+02 -0.18473610022E+02  0.39552794379E+02  0.00000000000E+00 0.  1.
         11    1    4    4    0    0 -0.55474473148E+01 -0.70224147926E+02 -0.96133529591E+02  0.11917995064E+03  0.00000000000E+00 0. -1.
</event>
<event>
 8    1  0.5951278E-006  0.2902773E+03  0.7561462E-02  0.1090204E+00
         -2   -1    0    0    0  501 -0.00000000000E+00  0.00000000000E+00  0.15666681652E+03  0.15666681652E+03  0.00000000000E+00 0.  1.
          2   -1    0    0  501    0  0.00000000000E+00 -0.00000000000E+00 -0.59649676730E+03  0.59649676730E+03  0.00000000000E+00 0. -1.
         23    2    1    2    0    0 -0.22053246500E+03 -0.17933215746E+03 -0.18708285260E+03  0.36255005960E+03  0.12509181090E+03 0.  0.
         23    2    1    2    0    0  0.22053246500E+03  0.17933215746E+03 -0.25274709818E+03  0.39061352423E+03  0.88900162290E+02 0.  0.
          5    1    3    3  502    0  0.62786408878E+01 -0.12200318652E+02  0.11038931562E+02  0.18099710402E+02  0.41800000000E+01 0.  1.
         -5    1    3    3    0  502 -0.22681110589E+03 -0.16713183881E+03 -0.19812178416E+03  0.34445034919E+03  0.41800000000E+01 0.  1.
        -11    1    4    4    0    0  0.43149168512E+02  0.29786527821E+02 -0.99773446279E+02  0.11271126193E+03  0.00000000000E+00 0. -1.
         11    1    4    4    0    0  0.17738329649E+03  0.14954562964E+03 -0.15297365190E+03  0.27790226230E+03  0.00000000000E+00 0.  1.
</event>
<event>
 8    1  0.5951278E-006  0.9470423E+02  0.7561462E-02  0.1291844E+00
          1   -1    0    0  501    0  0.00000000000E+00  0.00000000000E+00  0.96109577678E+01  0.96109577678E+01  0.00000000000E+00 0. -1.
         -1   -1    0    0    0  501 -0.00000000000E+00 -0.00000000000E+00 -0.14225782269E+04  0.14225782269E+04  0.00000000000E+00 0.  1.
         23    2    1    2    0    0  0.11730776084E+02  0.94274419325E+01 -0.11322012442E+04  0.11377568975E+04  0.11128617487E+03 0.  0.
         23    2    1    2    0    0 -0.11730776084E+02 -0.94274419325E+01 -0.28076602501E+03  0.29443228723E+03  0.87374614118E+02 0.  0.
          5    1    3    3  502    0 -0.14967111086E+02  0.55191296916E+02 -0.48508798296E+03  0.48846485778E+03  0.41800000000E+01 0. -1.
         -5    1    3    3    0  502  0.26697887170E+02 -0.45763854983E+02 -0.64711326121E+03  0.64929203971E+03  0.41800000000E+01 0.  1.
        -11    1    4    4    0    0 -0.29800293444E+02 -0.36035211914E+02 -0.94800289000E+02  0.10570567053E+03  0.00000000000E+00 0.  1.
         11    1    4    4    0    0  0.18069517360E+02  0.26607769981E+02 -0.18596573601E+03  0.18872661670E+03  0.00000000000E+00 0. -1.
</event>
<event>
 8    1  0.5951278E-006  0.1037998E+03  0.7561462E-02  0.1272503E+00
          1   -1    0    0  501    0  0.00000000000E+00  0.00000000000E+00  0.13772606864E+03  0.13772606864E+03  0.00000000000E+00 0. -1.
         -1   -1    0    0    0  501 -0.00000000000E+00 -0.00000000000E+00 -0.16231398483E+03  0.16231398483E+03  0.00000000000E+00 0.  1.
         23    2    1    2    0    0  0.41402543817E+01 -0.32749135371E+02 -0.11101161306E+03  0.17047130580E+03  0.12508892954E+03 0.  0.
         23    2    1    2    0    0 -0.41402543817E+01  0.32749135371E+02  0.86423696870E+02  0.12956874767E+03  0.90715805777E+02 0.  0.
          5    1    3    3  502    0 -0.27021146770E+02  0.30233949606E+02 -0.21350276927E+01  0.40819907212E+02  0.41800000000E+01 0.  1.
         -5    1    3    3    0  502  0.31161401152E+02 -0.62983084977E+02 -0.10887658537E+03  0.12965139859E+03  0.41800000000E+01 0.  1.
        -11    1    4    4    0    0 -0.18803476992E+02  0.61422354565E+02  0.54841470544E+02  0.84462200295E+02  0.00000000000E+00 0. -1.
         11    1    4    4    0    0  0.14663222610E+02 -0.28673219193E+02  0.31582226327E+02  0.45106547374E+02  0.00000000000E+00 0.  1.
</event>
<event>
 8    1  0.5951278E-006  0.1426015E+03  0.7561462E-02  0.1209871E+00
         -1   -1    0    0    0  501 -0.00000000000E+00  0.00000000000E+00  0.19764246742E+03  0.19764246742E+03  0.00000000000E+00 0.  1.
          1   -1    0    0  501    0  0.00000000000E+00 -0.00000000000E+00 -0.11063611678E+03  0.11063611678E+03  0.00000000000E+00 0. -1.
         23    2    1    2    0    0 -0.95982946897E+02 -0.25088112032E+02  0.62538036004E+02  0.17146555928E+03  0.12508913867E+03 0.  0.
         23    2    1    2    0    0  0.95982946897E+02  0.25088112032E+02  0.24468314634E+02  0.13681302492E+03  0.90977831944E+02 0.  0.
          5    1    3    3  502    0 -0.11185915815E+03  0.13906854386E+02  0.62907896212E+02  0.12915396884E+03  0.41800000000E+01 0.  1.
         -5    1    3    3    0  502  0.15876211250E+02 -0.38994966418E+02 -0.36986020811E+00  0.42311590447E+02  0.41800000000E+01 0.  1.
        -11    1    4    4    0    0 -0.10606949100E+02 -0.13113555839E+02 -0.84932549925E+01  0.18884069909E+02  0.00000000000E+00 0. -1.
         11    1    4    4    0    0  0.10658989600E+03  0.38201667871E+02  0.32961569626E+02  0.11792895501E+03  0.00000000000E+00 0.  1.
</event>
<event>
 8    1  0.5951278E-006  0.8862101E+02  0.7561462E-02  0.1306226E+00
         -1   -1    0    0    0  501 -0.00000000000E+00  0.00000000000E+00  0.16523977102E+03  0.16523977102E+03  0.00000000000E+00 0.  1.
          1   -1    0    0  501    0  0.00000000000E+00 -0.00000000000E+00 -0.10178873932E+03  0.10178873932E+03  0.00000000000E+00 0. -1.
         23    2    1    2    0    0  0.79539538410E+01 -0.63652864101E+02  0.64749956807E+02  0.15477062838E+03  0.12508572265E+03 0.  0.
         23    2    1    2    0    0 -0.79539538410E+01  0.63652864101E+02 -0.12989251082E+01  0.11225788196E+03  0.92115103891E+02 0.  0.
          5    1    3    3  502    0  0.86017118424E+01 -0.26012592397E+02 -0.36982922295E+02  0.46215293479E+02  0.41800000000E+01 0.  1.
         -5    1    3    3    0  502 -0.64775800145E+00 -0.37640271704E+02  0.10173287910E+03  0.10855533490E+03  0.41800000000E+01 0.  1.
        -11    1    4    4    0    0  0.24825752279E+02  0.73373231501E+02 -0.62483097920E+01  0.77710941651E+02  0.00000000000E+00 0. -1.
         11    1    4    4    0    0 -0.32779706120E+02 -0.97203673995E+01  0.49493846838E+01  0.34546940305E+02  0.00000000000E+00 0.  1.
</event>
<event>
 8    1  0.5951278E-006  0.8431242E+02  0.7561462E-02  0.1317240E+00
          1   -1    0    0  501    0  0.00000000000E+00  0.00000000000E+00  0.10798667595E+03  0.10798667595E+03  0.00000000000E+00 0. -1.
         -1   -1    0    0    0  501 -0.00000000000E+00 -0.00000000000E+00 -0.19890441833E+03  0.19890441833E+03  0.00000000000E+00 0.  1.
         23    2    1    2    0    0  0.80599379802E+01  0.22234472415E+02 -0.14935137345E+03  0.19623789877E+03  0.12507655975E+03 0.  0.
         23    2    1    2    0    0 -0.80599379802E+01 -0.22234472415E+02  0.58433631070E+02  0.11065319551E+03  0.90941223179E+02 0.  0.
          5    1    3    3  502    0 -0.13850763207E+02 -0.31374590914E+02  0.15156223577E+01  0.34582916412E+02  0.41800000000E+01 0.  1.
         -5    1    3    3    0  502  0.21910701187E+02  0.53609063330E+02 -0.15086699581E+03  0.16165498236E+03  0.41800000000E+01 0.  1.
        -11    1    4    4    0    0  0.71877544305E+01  0.25189935095E+02 -0.82074533857E+01  0.27451027939E+02  0.00000000000E+00 0.  1.
         11    1    4    4    0    0 -0.15247692411E+02 -0.47424407510E+02  0.66641084456E+02  0.83202167574E+02  0.00000000000E+00 0. -1.
</event>
<event>
 8    1  0.5951278E-006  0.7785713E+02  0.7561462E-02  0.1335245E+00
          4   -1    0    0  501    0  0.00000000000E+00  0.00000000000E+00  0.14473397701E+02  0.14473397701E+02  0.00000000000E+00 0. -1.
         -4   -1    0    0    0  501 -0.00000000000E+00 -0.00000000000E+00 -0.94252643082E+03  0.94252643082E+03  0.00000000000E+00 0.  1.
         23    2    1    2    0    0 -0.14903730319E+02 -0.36494894168E+02 -0.54522872031E+03  0.56078156034E+03  0.12509037730E+03 0.  0.
         23    2    1    2    0    0  0.14903730319E+02  0.36494894168E+02 -0.38282431282E+03  0.39621826818E+03  0.94236208975E+02 0.  0.
          5    1    3    3  502    0 -0.22055999509E+02 -0.34248327373E+01 -0.10588767133E+02  0.25055757482E+02  0.41800000000E+01 0.  1.
         -5    1    3    3    0  502  0.71522691897E+01 -0.33070061431E+02 -0.53463995317E+03  0.53572580286E+03  0.41800000000E+01 0.  1.
        -11    1    4    4    0    0  0.11049129240E+02 -0.30174225141E+02 -0.17507670539E+03  0.17800117946E+03  0.00000000000E+00 0.  1.
         11    1    4    4    0    0  0.38546010792E+01  0.66669119309E+02 -0.20774760743E+03  0.21821708872E+03  0.00000000000E+00 0. -1.
</event>
<event>
 8    1  0.5951278E-006  0.1108262E+03  0.7561462E-02  0.1259048E+00
         -1   -1    0    0    0  501 -0.00000000000E+00  0.00000000000E+00  0.22517485956E+03  0.22517485956E+03  0.00000000000E+00 0.  1.
          1   -1    0    0  501    0  0.00000000000E+00 -0.00000000000E+00 -0.69655687154E+02  0.69655687154E+02  0.00000000000E+00 0. -1.
         23    2    1    2    0    0  0.30775742779E+02 -0.47311696416E+02  0.12444400078E+03  0.18526008644E+03  0.12509775113E+03 0.  0.
         23    2    1    2    0    0 -0.30775742779E+02  0.47311696416E+02  0.31075171625E+02  0.10957046027E+03  0.88625484548E+02 0.  0.
          5    1    3    3  502    0 -0.37676617123E+02  0.14608364007E+02  0.18366136134E+02  0.44583843860E+02  0.41800000000E+01 0.  1.
         -5    1    3    3    0  502  0.68452359902E+02 -0.61920060423E+02  0.10607786465E+03  0.14067624258E+03  0.41800000000E+01 0.  1.
        -11    1    4    4    0    0  0.21988916010E+02  0.11076386174E+02  0.37903989009E+02  0.45198574544E+02  0.00000000000E+00 0.  1.
         11    1    4    4    0    0 -0.52764658789E+02  0.36235310241E+02 -0.68288173844E+01  0.64371885728E+02  0.00000000000E+00 0. -1.
</event>
<event>
 8    1  0.5951278E-006  0.1740322E+03  0.7561462E-02  0.1173707E+00
         -1   -1    0    0    0  501 -0.00000000000E+00  0.00000000000E+00  0.14715668736E+03  0.14715668736E+03  0.00000000000E+00 0.  1.
          1   -1    0    0  501    0  0.00000000000E+00 -0.00000000000E+00 -0.27856970537E+03  0.27856970537E+03  0.00000000000E+00 0. -1.
         23    2    1    2    0    0 -0.63733608432E+02 -0.15404467930E+03 -0.35871124135E+02  0.21148453355E+03  0.12508890567E+03 0.  0.
         23    2    1    2    0    0  0.63733608432E+02  0.15404467930E+03 -0.95541893877E+02  0.21424185917E+03  0.94760670495E+02 0.  0.
          5    1    3    3  502    0 -0.20526336491E+02 -0.71755647679E+02 -0.79154743869E+02  0.10887216972E+03  0.41800000000E+01 0. -1.
         -5    1    3    3    0  502 -0.43207271941E+02 -0.82289031617E+02  0.43283619734E+02  0.10261236383E+03  0.41800000000E+01 0. -1.
        -11    1    4    4    0    0 -0.68225408921E+01  0.70911049316E+02 -0.31243132362E+01  0.71306979410E+02  0.00000000000E+00 0.  1.
         11    1    4    4    0    0  0.70556149324E+02  0.83133629979E+02 -0.92417580641E+02  0.14293487976E+03  0.00000000000E+00 0. -1.
</event>
<event>
 8    1  0.5951278E-006  0.5574019E+02  0.7561462E-02  0.1416631E+00
         -2   -1    0    0    0  501 -0.00000000000E+00  0.00000000000E+00  0.14600880129E+03  0.14600880129E+03  0.00000000000E+00 0.  1.
          2   -1    0    0  501    0  0.00000000000E+00 -0.00000000000E+00 -0.10226175191E+03  0.10226175191E+03  0.00000000000E+00 0. -1.
         23    2    1    2    0    0  0.17428623448E+02  0.22642031423E+02  0.75594687535E+02  0.15023261737E+03  0.12664463682E+03 0.  0.
         23    2    1    2    0    0 -0.17428623448E+02 -0.22642031423E+02 -0.31847638160E+02  0.98037935829E+02  0.88208538719E+02 0.  0.
          5    1    3    3  502    0 -0.22483915076E+01 -0.36085628928E+01 -0.34637124790E+02  0.35146547544E+02  0.41800000000E+01 0.  1.
         -5    1    3    3    0  502  0.19677014956E+02  0.26250594316E+02  0.11023181233E+03  0.11508606983E+03  0.41800000000E+01 0.  1.
        -11    1    4    4    0    0 -0.42669553435E+02 -0.84813274496E+01  0.12335711658E+02  0.45219392828E+02  0.00000000000E+00 0.  1.
         11    1    4    4    0    0  0.25240929986E+02 -0.14160703974E+02 -0.44183349818E+02  0.52818543001E+02  0.00000000000E+00 0. -1.
</event>
<event>
 8    1  0.5951278E-006  0.1319394E+03  0.7561462E-02  0.1224606E+00
         -1   -1    0    0    0  501 -0.00000000000E+00  0.00000000000E+00  0.32964104765E+02  0.32964104765E+02  0.00000000000E+00 0.  1.
          1   -1    0    0  501    0  0.00000000000E+00 -0.00000000000E+00 -0.76326462349E+03  0.76326462349E+03  0.00000000000E+00 0. -1.
         23    2    1    2    0    0  0.55337378211E+02  0.10116396864E+03 -0.37141084124E+03  0.40852342639E+03  0.12509597493E+03 0.  0.
         23    2    1    2    0    0 -0.55337378211E+02 -0.10116396864E+03 -0.35888967749E+03  0.38770530186E+03  0.90648918952E+02 0.  0.
          5    1    3    3  502    0  0.52761212634E+02  0.79435672024E+02 -0.37409997342E+03  0.38608552687E+03  0.41800000000E+01 0. -1.
         -5    1    3    3    0  502  0.25761655773E+01  0.21728296618E+02  0.26891321807E+01  0.22437899520E+02  0.41800000000E+01 0. -1.
        -11    1    4    4    0    0 -0.78592318906E+02 -0.92387586780E+02 -0.30935651442E+03  0.33228552752E+03  0.00000000000E+00 0. -1.
         11    1    4    4    0    0  0.23254940694E+02 -0.87763818625E+01 -0.49533163061E+02  0.55419774342E+02  0.00000000000E+00 0.  1.
</event>
<event>
 8    1  0.5951278E-006  0.1043757E+03  0.7561462E-02  0.1271355E+00
          1   -1    0    0  501    0  0.00000000000E+00  0.00000000000E+00  0.59933501218E+03  0.59933501218E+03  0.00000000000E+00 0. -1.
         -1   -1    0    0    0  501 -0.00000000000E+00 -0.00000000000E+00 -0.39039922857E+02  0.39039922857E+02  0.00000000000E+00 0.  1.
         23    2    1    2    0    0 -0.57960635718E+02 -0.46453742052E+02  0.14056518899E+03  0.20229426716E+03  0.12508801991E+03 0.  0.
         23    2    1    2    0    0  0.57960635718E+02  0.46453742052E+02  0.41972990034E+03  0.43608066788E+03  0.92063968087E+02 0.  0.
          5    1    3    3  502    0 -0.60938085323E+01  0.13005016478E+02  0.11962152060E+03  0.12055308186E+03  0.41800000000E+01 0.  1.
         -5    1    3    3    0  502 -0.51866827185E+02 -0.59458758530E+02  0.20943668391E+02  0.81741185297E+02  0.41800000000E+01 0.  1.
        -11    1    4    4    0    0 -0.21338079750E+02 -0.26623302233E+01  0.44392328285E+02  0.49326265419E+02  0.00000000000E+00 0.  1.
         11    1    4    4    0    0  0.79298715467E+02  0.49116072275E+02  0.37533757205E+03  0.38675440246E+03  0.00000000000E+00 0. -1.
</event>
<event>
 8    1  0.5951278E-006  0.1656897E+03  0.7561462E-02  0.1182419E+00
          2   -1    0    0  501    0  0.00000000000E+00  0.00000000000E+00  0.41269861301E+03  0.41269861301E+03  0.00000000000E+00 0. -1.
         -2   -1    0    0    0  501 -0.00000000000E+00 -0.00000000000E+00 -0.76192474526E+02  0.76192474526E+02  0.00000000000E+00 0.  1.
         23    2    1    2    0    0 -0.10967287297E+03  0.79006254473E+02  0.10128615697E+03  0.20170011848E+03  0.11024484066E+03 0.  0.
         23    2    1    2    0    0  0.10967287297E+03 -0.79006254473E+02  0.23521998151E+03  0.28719096905E+03  0.94234206580E+02 0.  0.
          5    1    3    3  502    0 -0.55688272015E+02 -0.15399973830E+02  0.64791806891E+02  0.86912562235E+02  0.41800000000E+01 0. -1.
         -5    1    3    3    0  502 -0.53984600950E+02  0.94406228302E+02  0.36494350076E+02  0.11478755625E+03  0.41800000000E+01 0.  1.
        -11    1    4    4    0    0 -0.17251940311E+02 -0.64471136958E+01  0.22556905118E+02  0.29120588731E+02  0.00000000000E+00 0.  1.
         11    1    4    4    0    0  0.12692481328E+03 -0.72559140777E+02  0.21266307639E+03  0.25807038032E+03  0.00000000000E+00 0. -1.
</event>
<event>
 8    1  0.5951278E-006  0.1254732E+03  0.7561462E-02  0.1234332E+00
         -1   -1    0    0    0  501 -0.00000000000E+00  0.00000000000E+00  0.24461900456E+04  0.24461900456E+04  0.00000000000E+00 0.  1.
          1   -1    0    0  501    0  0.00000000000E+00 -0.00000000000E+00 -0.18694993733E+02  0.18694993733E+02  0.00000000000E+00 0. -1.
         23    2    1    2    0    0 -0.43547037255E+02 -0.10047439292E+03  0.21165396075E+04  0.21232007468E+04  0.12747569457E+03 0.  0.
         23    2    1    2    0    0  0.43547037255E+02  0.10047439292E+03  0.31095544433E+03  0.34168429256E+03  0.89796544155E+02 0.  0.
          5    1    3    3  502    0 -0.30702952860E+02 -0.44477164231E+02  0.25166265633E+03  0.25743436920E+03  0.41800000000E+01 0. -1.
         -5    1    3    3    0  502 -0.12844084394E+02 -0.55997228691E+02  0.18648769512E+04  0.18657663776E+04  0.41800000000E+01 0.  1.
        -11    1    4    4    0    0 -0.24139202907E+01 -0.14821847233E+02  0.58081242214E+02  0.59991206554E+02  0.00000000000E+00 0.  1.
         11    1    4    4    0    0  0.45960957545E+02  0.11529624016E+03  0.25287420211E+03  0.28169308601E+03  0.00000000000E+00 0. -1.
</event>
<event>
 8    1  0.5951278E-006  0.1615505E+03  0.7561462E-02  0.1186957E+00
          1   -1    0    0  501    0  0.00000000000E+00  0.00000000000E+00  0.61402870769E+03  0.61402870769E+03  0.00000000000E+00 0. -1.
         -1   -1    0    0    0  501 -0.00000000000E+00 -0.00000000000E+00 -0.54124835599E+02  0.54124835599E+02  0.00000000000E+00 0.  1.
         23    2    1    2    0    0 -0.90452575836E+02 -0.10692601005E+03  0.37376886941E+03  0.41828899415E+03  0.12509066625E+03 0.  0.
         23    2    1    2    0    0  0.90452575836E+02  0.10692601005E+03  0.18613500268E+03  0.24986454914E+03  0.90394765307E+02 0.  0.
          5    1    3    3  502    0 -0.19142714216E+01  0.13373512873E+02 -0.16377937841E+01  0.14236223169E+02  0.41800000000E+01 0. -1.
         -5    1    3    3    0  502 -0.88538304415E+02 -0.12029952292E+03  0.37540666320E+03  0.40405277098E+03  0.41800000000E+01 0. -1.
        -11    1    4    4    0    0  0.83880255719E+02  0.41153228063E+02  0.14340243482E+03  0.17115415213E+03  0.00000000000E+00 0. -1.
         11    1    4    4    0    0  0.65723201175E+01  0.65772781987E+02  0.42732567866E+02  0.78710397016E+02  0.00000000000E+00 0.  1.
</event>
<event>
 8    1  0.5951278E-006  0.7716474E+02  0.7561462E-02  0.1337296E+00
          2   -1    0    0  501    0  0.00000000000E+00  0.00000000000E+00  0.10235659115E+04  0.10235659115E+04  0.00000000000E+00 0. -1.
         -2   -1    0    0    0  501 -0.00000000000E+00 -0.00000000000E+00 -0.13455083850E+02  0.13455083850E+02  0.00000000000E+00 0.  1.
         23    2    1    2    0    0 -0.52313631089E+02  0.25290270756E+01  0.65540862470E+03  0.66726869403E+03  0.11377140555E+03 0.  0.
         23    2    1    2    0    0  0.52313631089E+02 -0.25290270756E+01  0.35470220290E+03  0.36975230127E+03  0.90332715995E+02 0.  0.
          5    1    3    3  502    0 -0.36246675964E+02 -0.68205518476E+01  0.64398338072E+03  0.64505225252E+03  0.41800000000E+01 0. -1.
         -5    1    3    3    0  502 -0.16066955125E+02  0.93495789232E+01  0.11425243984E+02  0.22216441504E+02  0.41800000000E+01 0.  1.
        -11    1    4    4    0    0  0.48183969706E+01 -0.38360416069E+02  0.82301127353E+02  0.90929720301E+02  0.00000000000E+00 0. -1.
         11    1    4    4    0    0  0.47495234119E+02  0.35831388993E+02  0.27240107555E+03  0.27882258097E+03  0.00000000000E+00 0.  1.
</event>
<event>
 8    1  0.5951278E-006  0.1079901E+03  0.7561462E-02  0.1264338E+00
          3   -1    0    0  501    0  0.00000000000E+00  0.00000000000E+00  0.25188805944E+02  0.25188805944E+02  0.00000000000E+00 0. -1.
         -3   -1    0    0    0  501 -0.00000000000E+00 -0.00000000000E+00 -0.82171866529E+03  0.82171866529E+03  0.00000000000E+00 0.  1.
         23    2    1    2    0    0  0.52071867422E+02 -0.41109965039E+02 -0.64015667556E+03  0.65562895237E+03  0.12508894959E+03 0.  0.
         23    2    1    2    0    0 -0.52071867422E+02  0.41109965039E+02 -0.15637318378E+03  0.19127851887E+03  0.87939698500E+02 0.  0.
          5    1    3    3  502    0  0.74337917446E+02 -0.40609193854E+02 -0.61848782488E+03  0.62427549569E+03  0.41800000000E+01 0. -1.
         -5    1    3    3    0  502 -0.22266050024E+02 -0.50077118461E+00 -0.21668850681E+02  0.31353456672E+02  0.41800000000E+01 0. -1.
        -11    1    4    4    0    0  0.20000472954E+02  0.29301300956E+02 -0.36432226117E+02  0.50851669156E+02  0.00000000000E+00 0. -1.
         11    1    4    4    0    0 -0.72072340376E+02  0.11808664083E+02 -0.11994095766E+03  0.14042684971E+03  0.00000000000E+00 0.  1.
</event>
<event>
 8    1  0.5951278E-006  0.1126597E+03  0.7561462E-02  0.1255722E+00
         -1   -1    0    0    0  501 -0.00000000000E+00  0.00000000000E+00  0.26384397989E+03  0.26384397989E+03  0.00000000000E+00 0.  1.
          1   -1    0    0  501    0  0.00000000000E+00 -0.00000000000E+00 -0.10730321602E+03  0.10730321602E+03  0.00000000000E+00 0. -1.
         23    2    1    2    0    0  0.12690032709E+02  0.38424003992E+02  0.21753235672E+03  0.25417659593E+03  0.12509186498E+03 0.  0.
         23    2    1    2    0    0 -0.12690032709E+02 -0.38424003992E+02 -0.60991592854E+02  0.11697059998E+03  0.91239825995E+02 0.  0.
          5    1    3    3  502    0  0.66235606399E+02  0.33708310028E+02  0.98147617815E+02  0.12318211316E+03  0.41800000000E+01 0. -1.
         -5    1    3    3    0  502 -0.53545573690E+02  0.47156939639E+01  0.11938473891E+03  0.13099448277E+03  0.41800000000E+01 0. -1.
        -11    1    4    4    0    0  0.12815369746E+02 -0.61349030992E+02 -0.25631682904E+02  0.67712040834E+02  0.00000000000E+00 0.  1.
         11    1    4    4    0    0 -0.25505402454E+02  0.22925027000E+02 -0.35359909950E+02  0.49258559144E+02  0.00000000000E+00 0. -1.
</event>
<event>
 8    1  0.5951278E-006  0.1101686E+03  0.7561462E-02  0.1260258E+00
         -2   -1    0    0    0  501 -0.00000000000E+00  0.00000000000E+00  0.38567551238E+03  0.38567551238E+03  0.00000000000E+00 0.  1.
          2   -1    0    0  501    0  0.00000000000E+00 -0.00000000000E+00 -0.74182795207E+02  0.74182795207E+02  0.00000000000E+00 0. -1.
         23    2    1    2    0    0 -0.21427602640E+02 -0.26510909857E+02  0.33242433417E+03  0.35681325096E+03  0.12509111726E+03 0.  0.
         23    2    1    2    0    0  0.21427602640E+02  0.26510909857E+02 -0.20931616992E+02  0.10304505663E+03  0.94964101691E+02 0.  0.
          5    1    3    3  502    0  0.11708794515E+02  0.44657749790E+02  0.80339194765E+02  0.92753809091E+02  0.41800000000E+01 0. -1.
         -5    1    3    3    0  502 -0.33136397155E+02 -0.71168659647E+02  0.25208513940E+03  0.26405944187E+03  0.41800000000E+01 0. -1.
        -11    1    4    4    0    0  0.27264086320E+02  0.57603356299E+02  0.23389459822E+01  0.63772625225E+02  0.00000000000E+00 0.  1.
         11    1    4    4    0    0 -0.58364836797E+01 -0.31092446442E+02 -0.23270562974E+02  0.39272431407E+02  0.00000000000E+00 0. -1.
</event>
<event>
 8    1  0.5951278E-006  0.7414399E+02  0.7561462E-02  0.1346542E+00
         -2   -1    0    0    0  501 -0.00000000000E+00  0.00000000000E+00  0.52693508289E+03  0.52693508289E+03  0.00000000000E+00 0.  1.
          2   -1    0    0  501    0  0.00000000000E+00 -0.00000000000E+00 -0.22104294482E+02  0.22104294482E+02  0.00000000000E+00 0. -1.
         23    2    1    2    0    0  0.74238090307E+01 -0.13535537559E+02  0.31547987333E+03  0.33972634954E+03  0.12509243932E+03 0.  0.
         23    2    1    2    0    0 -0.74238090307E+01  0.13535537559E+02  0.18935091507E+03  0.20931302783E+03  0.87862681859E+02 0.  0.
          5    1    3    3  502    0  0.27915789454E+01 -0.44941081036E+02  0.30135646134E+03  0.30473050860E+03  0.41800000000E+01 0.  1.
         -5    1    3    3    0  502  0.46322300853E+01  0.31405543478E+02  0.14123411988E+02  0.34995840937E+02  0.41800000000E+01 0.  1.
        -11    1    4    4    0    0 -0.34134714492E+02  0.24662040404E+02  0.16840867515E+03  0.17359400000E+03  0.00000000000E+00 0.  1.
         11    1    4    4    0    0  0.26710905462E+02 -0.11126502845E+02  0.20942239922E+02  0.35719027829E+02  0.00000000000E+00 0. -1.
</event>
<event>
 8    1  0.5951278E-006  0.1108926E+03  0.7561462E-02  0.1258926E+00
         -1   -1    0    0    0  501 -0.00000000000E+00  0.00000000000E+00  0.80199721807E+02  0.80199721807E+02  0.00000000000E+00 0.  1.
          1   -1    0    0  501    0  0.00000000000E+00 -0.00000000000E+00 -0.21264837468E+03  0.21264837468E+03  0.00000000000E+00 0. -1.
         23    2    1    2    0    0 -0.31726935300E+02  0.61230462367E+02 -0.54973988384E+02  0.15305278210E+03  0.12508895541E+03 0.  0.
         23    2    1    2    0    0  0.31726935300E+02 -0.61230462367E+02 -0.77474664485E+02  0.13979531438E+03  0.93726401509E+02 0.  0.
          5    1    3    3  502    0 -0.72266758224E+02  0.54004025706E+02 -0.63998824743E+02  0.11068984192E+03  0.41800000000E+01 0.  1.
         -5    1    3    3    0  502  0.40539822924E+02  0.72264366610E+01  0.90248363590E+01  0.42362940181E+02  0.41800000000E+01 0.  1.
        -11    1    4    4    0    0  0.48895533638E+02 -0.44681066748E+02 -0.84560512445E+01  0.66773316063E+02  0.00000000000E+00 0.  1.
         11    1    4    4    0    0 -0.17168598338E+02 -0.16549395619E+02 -0.69018613240E+02  0.73021998315E+02  0.00000000000E+00 0. -1.
</event>
<event>
 8    1  0.5951278E-006  0.1678783E+03  0.7561462E-02  0.1180079E+00
          1   -1    0    0  501    0  0.00000000000E+00  0.00000000000E+00  0.96321615103E+03  0.96321615103E+03  0.00000000000E+00 0. -1.
         -1   -1    0    0    0  501 -0.00000000000E+00 -0.00000000000E+00 -0.40048246210E+02  0.40048246210E+02  0.00000000000E+00 0.  1.
         23    2    1    2    0    0  0.14433571110E+03 -0.50776229830E+01  0.28717652838E+03  0.34492967402E+03  0.12509013475E+03 0.  0.
         23    2    1    2    0    0 -0.14433571110E+03  0.50776229830E+01  0.63599137644E+03  0.65833472322E+03  0.89783055951E+02 0.  0.
          5    1    3    3  502    0  0.62499186911E+02  0.48664501528E+02  0.66630436640E+02  0.10359280651E+03  0.41800000000E+01 0.  1.
         -5    1    3    3    0  502  0.81836524190E+02 -0.53742124511E+02  0.22054609174E+03  0.24133686751E+03  0.41800000000E+01 0.  1.
        -11    1    4    4    0    0 -0.15198782690E+02  0.23510059695E+02  0.44069468229E+02  0.52209615322E+02  0.00000000000E+00 0.  1.
         11    1    4    4    0    0 -0.12913692841E+03 -0.18432436712E+02  0.59192190822E+03  0.60612510790E+03  0.00000000000E+00 0. -1.
</event>
<event>
 8    1  0.5951278E-006  0.1214789E+03  0.7561462E-02  0.1240677E+00
          1   -1    0    0  501    0  0.00000000000E+00  0.00000000000E+00  0.96211517186E+03  0.96211517186E+03  0.00000000000E+00 0.  1.
         -1   -1    0    0    0  501 -0.00000000000E+00 -0.00000000000E+00 -0.17729912994E+02  0.17729912994E+02  0.00000000000E+00 0. -1.
         23    2    1    2    0    0 -0.32421410391E+02 -0.65733583618E+02  0.47713669511E+03  0.49867770065E+03  0.12509185199E+03 0.  0.
         23    2    1    2    0    0  0.32421410391E+02  0.65733583618E+02  0.46724856375E+03  0.48116738421E+03  0.88480390061E+02 0.  0.
          5    1    3    3  502    0  0.30008049309E+02  0.12096581379E+02  0.22718693425E+03  0.22951728867E+03  0.41800000000E+01 0.  1.
         -5    1    3    3    0  502 -0.62429459700E+02 -0.77830164997E+02  0.24994976086E+03  0.26916041198E+03  0.41800000000E+01 0.  1.
        -11    1    4    4    0    0  0.82756390738E+00  0.76944079592E+02  0.37972751713E+03  0.38744556200E+03  0.00000000000E+00 0.  1.
         11    1    4    4    0    0  0.31593846484E+02 -0.11210495974E+02  0.87521046624E+02  0.93721822207E+02  0.00000000000E+00 0. -1.
</event>
<event>
 8    1  0.5951278E-006  0.1090273E+03  0.7561462E-02  0.1262382E+00
         -1   -1    0    0    0  501 -0.00000000000E+00  0.00000000000E+00  0.54221356769E+02  0.54221356769E+02  0.00000000000E+00 0.  1.
          1   -1    0    0  501    0  0.00000000000E+00 -0.00000000000E+00 -0.24575742721E+03  0.24575742721E+03  0.00000000000E+00 0. -1.
         23    2    1    2    0    0 -0.20905297531E+02  0.27789819624E+02 -0.84677312734E+02  0.15500686230E+03  0.12509026552E+03 0.  0.
         23    2    1    2    0    0  0.20905297531E+02 -0.27789819624E+02 -0.10685875771E+03  0.14497192169E+03  0.91590165622E+02 0.  0.
          5    1    3    3  502    0 -0.34651052821E+02  0.73567681694E+02 -0.59281858066E+02  0.10072095287E+03  0.41800000000E+01 0. -1.
         -5    1    3    3    0  502  0.13745755290E+02 -0.45777862070E+02 -0.25395454668E+02  0.54285909424E+02  0.41800000000E+01 0. -1.
        -11    1    4    4    0    0  0.12151004734E+02  0.28866346158E+02 -0.10842674497E+02  0.33143271516E+02  0.00000000000E+00 0.  1.
         11    1    4    4    0    0  0.87542927975E+01 -0.56656165782E+02 -0.96016083213E+02  0.11182865017E+03  0.00000000000E+00 0. -1.
</event>
<event>
 7    1  0.5951278E-006  0.1921979E+03  0.7561462E-02  0.1156494E+00
         -1   -1    0    0    0  501 -0.00000000000E+00  0.00000000000E+00  0.41339590102E+03  0.41339590102E+03  0.00000000000E+00 0.  1.
          1   -1    0    0  501    0  0.00000000000E+00 -0.00000000000E+00 -0.22116707884E+03  0.22116707884E+03  0.00000000000E+00 0. -1.
         23    2    1    2    0    0  0.75713174065E+02  0.74339681437E+02  0.12382761649E+02  0.14043339688E+03  0.91155544038E+02 0.  0.
          5    1    1    2  502    0 -0.69587073317E+02 -0.15675198536E+03 -0.10254435649E+03  0.19986586286E+03  0.41800000000E+01 0. -1.
         -5    1    1    2    0  502 -0.61261007481E+01  0.82412303926E+02  0.28239041703E+03  0.29426372012E+03  0.41800000000E+01 0.  1.
        -11    1    3    3    0    0  0.18377823062E+02  0.70250619879E+02  0.32469991394E+02  0.79543662947E+02  0.00000000000E+00 0. -1.
         11    1    3    3    0    0  0.57335351003E+02  0.40890615577E+01 -0.20087229745E+02  0.60889733929E+02  0.00000000000E+00 0.  1.
</event>
<event>
 8    1  0.5951278E-006  0.1252136E+03  0.7561462E-02  0.1234736E+00
          3   -1    0    0  501    0  0.00000000000E+00  0.00000000000E+00  0.43067913254E+03  0.43067913254E+03  0.00000000000E+00 0. -1.
         -3   -1    0    0    0  501 -0.00000000000E+00 -0.00000000000E+00 -0.37760487163E+02  0.37760487163E+02  0.00000000000E+00 0.  1.
         23    2    1    2    0    0 -0.60210585557E+02 -0.56463157803E+02  0.21920341625E+03  0.26553834648E+03  0.12508826066E+03 0.  0.
         23    2    1    2    0    0  0.60210585557E+02  0.56463157803E+02  0.17371522912E+03  0.20290127322E+03  0.64641650984E+02 0.  0.
          5    1    3    3  502    0 -0.10526672343E+01  0.37836754491E+02  0.64452608837E+02  0.74862135187E+02  0.41800000000E+01 0. -1.
         -5    1    3    3    0  502 -0.59157918323E+02 -0.94299912294E+02  0.15475080741E+03  0.19067621130E+03  0.41800000000E+01 0. -1.
        -11    1    4    4    0    0  0.17289504916E+02  0.55376207460E+02  0.12599617509E+03  0.13871008424E+03  0.00000000000E+00 0. -1.
         11    1    4    4    0    0  0.42921080641E+02  0.10869503430E+01  0.47719054035E+02  0.64191188979E+02  0.00000000000E+00 0.  1.
</event>
<event>
 8    1  0.5951278E-006  0.9530951E+02  0.7561462E-02  0.1290481E+00
          2   -1    0    0  501    0  0.00000000000E+00  0.00000000000E+00  0.50913559395E+03  0.50913559395E+03  0.00000000000E+00 0. -1.
         -2   -1    0    0    0  501 -0.00000000000E+00 -0.00000000000E+00 -0.33182115513E+02  0.33182115513E+02  0.00000000000E+00 0.  1.
         23    2    1    2    0    0 -0.18210418877E+02 -0.53573915228E+02  0.19382410537E+03  0.23752400122E+03  0.12509230027E+03 0.  0.
         23    2    1    2    0    0  0.18210418877E+02  0.53573915228E+02  0.28212937307E+03  0.30479370824E+03  0.10050093376E+03 0.  0.
          5    1    3    3  502    0  0.28528385369E+02 -0.28153753278E+01  0.15611736236E+03  0.15878255049E+03  0.41800000000E+01 0. -1.
         -5    1    3    3    0  502 -0.46738804246E+02 -0.50758539900E+02  0.37706743008E+02  0.78741450732E+02  0.41800000000E+01 0. -1.
        -11    1    4    4    0    0 -0.26801346131E+02  0.34372773051E+02  0.44926093477E+02  0.62595156017E+02  0.00000000000E+00 0.  1.
         11    1    4    4    0    0  0.45011765008E+02  0.19201142176E+02  0.23720327960E+03  0.24219855223E+03  0.00000000000E+00 0. -1.
</event>
<event>
 8    1  0.5951278E-006  0.1744703E+03  0.7561462E-02  0.1173265E+00
          1   -1    0    0  501    0  0.00000000000E+00  0.00000000000E+00  0.20475351792E+03  0.20475351792E+03  0.00000000000E+00 0. -1.
         -1   -1    0    0    0  501 -0.00000000000E+00 -0.00000000000E+00 -0.21603086348E+03  0.21603086348E+03  0.00000000000E+00 0.  1.
         23    2    1    2    0    0 -0.13910799875E+03  0.98713102320E+02 -0.67533008202E+02  0.21802808882E+03  0.11781438126E+03 0.  0.
         23    2    1    2    0    0  0.13910799875E+03 -0.98713102320E+02  0.56255662642E+02  0.20275629257E+03  0.94074984519E+02 0.  0.
          5    1    3    3  502    0 -0.81850635926E+02  0.42166887895E+02  0.24829962318E+02  0.95454557067E+02  0.41800000000E+01 0. -1.
         -5    1    3    3    0  502 -0.57257362827E+02  0.56546214424E+02 -0.92362970520E+02  0.12257353176E+03  0.41800000000E+01 0.  1.
        -11    1    4    4    0    0  0.23145209205E+02  0.11228504080E+01 -0.21061578603E+02  0.31313760480E+02  0.00000000000E+00 0.  1.
         11    1    4    4    0    0  0.11596278955E+03 -0.99835952728E+02  0.77317241245E+02  0.17144253209E+03  0.00000000000E+00 0. -1.
</event>
<event>
 8    1  0.5951278E-006  0.8687849E+02  0.7561462E-02  0.1310592E+00
          3   -1    0    0  501    0  0.00000000000E+00  0.00000000000E+00  0.18783679889E+03  0.18783679889E+03  0.00000000000E+00 0. -1.
         -3   -1    0    0    0  501 -0.00000000000E+00 -0.00000000000E+00 -0.73641654768E+02  0.73641654768E+02  0.00000000000E+00 0.  1.
         23    2    1    2    0    0  0.92828751555E+01 -0.41378738481E+02  0.39142333888E+02  0.13776744392E+03  0.12509746013E+03 0.  0.
         23    2    1    2    0    0 -0.92828751555E+01  0.41378738481E+02  0.75052810233E+02  0.12371100974E+03  0.88730591325E+02 0.  0.
          5    1    3    3  502    0  0.30927245274E+02 -0.18186059914E+01  0.74186734031E+02  0.80504321214E+02  0.41800000000E+01 0.  1.
         -5    1    3    3    0  502 -0.21644370119E+02 -0.39560132490E+02 -0.35044400143E+02  0.57263122704E+02  0.41800000000E+01 0.  1.
        -11    1    4    4    0    0  0.22311109457E+02  0.57544616839E+02  0.56452819766E+02  0.83642629035E+02  0.00000000000E+00 0.  1.
         11    1    4    4    0    0 -0.31593984612E+02 -0.16165878358E+02  0.18599990466E+02  0.40068380702E+02  0.00000000000E+00 0. -1.
</event>
<event>
 8    1  0.5951278E-006  0.1033080E+03  0.7561462E-02  0.1273489E+00
         -1   -1    0    0    0  501 -0.00000000000E+00  0.00000000000E+00  0.19592854715E+03  0.19592854715E+03  0.00000000000E+00 0. -1.
          1   -1    0    0  501    0  0.00000000000E+00 -0.00000000000E+00 -0.88717293765E+02  0.88717293765E+02  0.00000000000E+00 0.  1.
         23    2    1    2    0    0 -0.54891695723E+02  0.15249987724E+02  0.10863448334E+03  0.17519823135E+03  0.12508920381E+03 0.  0.
         23    2    1    2    0    0  0.54891695723E+02 -0.15249987724E+02 -0.14232299582E+01  0.10944760957E+03  0.93440319306E+02 0.  0.
          5    1    3    3  502    0 -0.87077357820E+02  0.19186315266E+02  0.37328965062E+02  0.96754870528E+02  0.41800000000E+01 0. -1.
         -5    1    3    3    0  502  0.32185662097E+02 -0.39363275422E+01  0.71305518281E+02  0.78443360818E+02  0.41800000000E+01 0. -1.
        -11    1    4    4    0    0  0.25585040152E+02 -0.39199708145E+02 -0.35319204464E+02  0.58640068232E+02  0.00000000000E+00 0.  1.
         11    1    4    4    0    0  0.29306655571E+02  0.23949720422E+02  0.33895974506E+02  0.50807541337E+02  0.00000000000E+00 0. -1.
</event>
<event>
 7    1  0.5951278E-006  0.9050139E+02  0.7561462E-02  0.1301642E+00
          2   -1    0    0  501    0  0.00000000000E+00  0.00000000000E+00  0.69126217986E+02  0.69126217986E+02  0.00000000000E+00 0. -1.
         -2   -1    0    0    0  501 -0.00000000000E+00 -0.00000000000E+00 -0.21089972843E+03  0.21089972843E+03  0.00000000000E+00 0.  1.
         23    2    1    2    0    0  0.22557743657E+02 -0.40960916442E+01 -0.11870171399E+02  0.92686051500E+02  0.89017826350E+02 0.  0.
          5    1    1    2  502    0 -0.35233950639E+02  0.39385476811E+02 -0.99103379092E+00  0.53019822795E+02  0.41800000000E+01 0. -1.
         -5    1    1    2    0  502  0.12676206981E+02 -0.35289385167E+02 -0.12891230526E+03  0.13432007213E+03  0.41800000000E+01 0.  1.
        -11    1    3    3    0    0  0.21940412515E+02  0.40287822793E+02  0.27366329500E+01  0.45956278424E+02  0.00000000000E+00 0.  1.
         11    1    3    3    0    0  0.61733114281E+00 -0.44383914437E+02 -0.14606804349E+02  0.46729773076E+02  0.00000000000E+00 0. -1.
</event>
<event>
 8    1  0.5951278E-006  0.9258919E+02  0.7561462E-02  0.1296700E+00
         -2   -1    0    0    0  501 -0.00000000000E+00  0.00000000000E+00  0.65143436081E+02  0.65143436081E+02  0.00000000000E+00 0.  1.
          2   -1    0    0  501    0  0.00000000000E+00 -0.00000000000E+00 -0.25463315516E+03  0.25463315516E+03  0.00000000000E+00 0. -1.
         23    2    1    2    0    0  0.62816480325E+02  0.26156609943E+02 -0.12987990294E+03  0.19274150043E+03  0.12510163211E+03 0.  0.
         23    2    1    2    0    0 -0.62816480325E+02 -0.26156609943E+02 -0.59609816147E+02  0.12703509082E+03  0.89188035489E+02 0.  0.
          5    1    3    3  502    0 -0.76106779784E+01  0.63161583902E+01 -0.11801146554E+03  0.11849892268E+03  0.41800000000E+01 0.  1.
         -5    1    3    3    0  502  0.70427158303E+02  0.19840451553E+02 -0.11868437393E+02  0.74242577748E+02  0.41800000000E+01 0.  1.
        -11    1    4    4    0    0 -0.35800900287E+02  0.24749460203E+02  0.81974770304E+00  0.43530589566E+02  0.00000000000E+00 0.  1.
         11    1    4    4    0    0 -0.27015580038E+02 -0.50906070146E+02 -0.60429563850E+02  0.83504501253E+02  0.00000000000E+00 0. -1.
</event>
<event>
 8    1  0.5951278E-006  0.9715558E+02  0.7561462E-02  0.1286394E+00
         -2   -1    0    0    0  501 -0.00000000000E+00  0.00000000000E+00  0.30280872087E+02  0.30280872087E+02  0.00000000000E+00 0. -1.
          2   -1    0    0  501    0  0.00000000000E+00 -0.00000000000E+00 -0.39015072454E+03  0.39015072454E+03  0.00000000000E+00 0.  1.
         23    2    1    2    0    0 -0.11281414602E+02 -0.90736837859E+01 -0.19670022213E+03  0.23355530198E+03  0.12508996620E+03 0.  0.
         23    2    1    2    0    0  0.11281414602E+02  0.90736837859E+01 -0.16316963032E+03  0.18687629465E+03  0.89937862935E+02 0.  0.
          5    1    3    3  502    0  0.26943983437E+02  0.37191970768E+02 -0.15134299724E+03  0.15821313519E+03  0.41800000000E+01 0. -1.
         -5    1    3    3    0  502 -0.38225398039E+02 -0.46265654554E+02 -0.45357224895E+02  0.75342166791E+02  0.41800000000E+01 0. -1.
        -11    1    4    4    0    0 -0.49080038732E+01  0.46761145698E+02 -0.62815627818E+02  0.78463343972E+02  0.00000000000E+00 0.  1.
         11    1    4    4    0    0  0.16189418475E+02 -0.37687461912E+02 -0.10035400250E+03  0.10841295068E+03  0.00000000000E+00 0. -1.
</event>
<event>
 8    1  0.5951278E-006  0.1037671E+03  0.7561462E-02  0.1272568E+00
         -2   -1    0    0    0  501 -0.00000000000E+00  0.00000000000E+00  0.13042408606E+03  0.13042408606E+03  0.00000000000E+00 0.  1.
          2   -1    0    0  501    0  0.00000000000E+00 -0.00000000000E+00 -0.14915813344E+03  0.14915813344E+03  0.00000000000E+00 0. -1.
         23    2    1    2    0    0 -0.61069851660E+02  0.39958019925E+01  0.54425700102E+02  0.14951514190E+03  0.12508847913E+03 0.  0.
         23    2    1    2    0    0  0.61069851660E+02 -0.39958019925E+01 -0.73159747489E+02  0.13006707760E+03  0.88428518066E+02 0.  0.
          5    1    3    3  502    0 -0.81598943265E+02 -0.38709063288E+02  0.45126060913E+02  0.10104757739E+03  0.41800000000E+01 0.  1.
         -5    1    3    3    0  502  0.20529091605E+02  0.42704865280E+02  0.92996391885E+01  0.48467564513E+02  0.41800000000E+01 0.  1.
        -11    1    4    4    0    0  0.35406145508E+02  0.14145648336E+02  0.11449463168E+02  0.39809354597E+02  0.00000000000E+00 0.  1.
         11    1    4    4    0    0  0.25663706151E+02 -0.18141450329E+02 -0.84609210658E+02  0.90257723002E+02  0.00000000000E+00 0. -1.
</event>
<event>
 8    1  0.5951278E-006  0.1685610E+03  0.7561462E-02  0.1179357E+00
         -2   -1    0    0    0  501 -0.00000000000E+00  0.00000000000E+00  0.13523591426E+03  0.13523591426E+03  0.00000000000E+00 0.  1.
          2   -1    0    0  501    0  0.00000000000E+00 -0.00000000000E+00 -0.38754086337E+03  0.38754086337E+03  0.00000000000E+00 0. -1.
         23    2    1    2    0    0  0.62496614805E+02  0.13296179306E+03  0.26435923628E+02  0.19456584748E+03  0.12478920495E+03 0.  0.
         23    2    1    2    0    0 -0.62496614805E+02 -0.13296179306E+03 -0.27874087273E+03  0.32821093014E+03  0.91876412958E+02 0.  0.
          5    1    3    3  502    0 -0.21221912697E+00  0.12684618625E+03  0.32845525343E+02  0.13109653290E+03  0.41800000000E+01 0. -1.
         -5    1    3    3    0  502  0.62708833932E+02  0.61156068107E+01 -0.64096017143E+01  0.63469314585E+02  0.41800000000E+01 0. -1.
        -11    1    4    4    0    0 -0.13697361946E+02 -0.35873740768E+02 -0.12071379082E+02  0.40252468171E+02  0.00000000000E+00 0.  1.
         11    1    4    4    0    0 -0.48799252858E+02 -0.97088052294E+02 -0.26666949365E+03  0.28795846197E+03  0.00000000000E+00 0. -1.
</event>
<event>
 8    1  0.5951278E-006  0.9479280E+02  0.7561462E-02  0.1291643E+00
          1   -1    0    0  501    0  0.00000000000E+00  0.00000000000E+00  0.28950492050E+03  0.28950492050E+03  0.00000000000E+00 0. -1.
         -1   -1    0    0    0  501 -0.00000000000E+00 -0.00000000000E+00 -0.13021004595E+03  0.13021004595E+03  0.00000000000E+00 0.  1.
         23    2    1    2    0    0 -0.11349201505E+01 -0.75836671133E+02 -0.68515718557E+02  0.16396265124E+03  0.12820631255E+03 0.  0.
         23    2    1    2    0    0  0.11349201505E+01  0.75836671133E+02  0.22781059311E+03  0.25575231521E+03  0.88085706400E+02 0.  0.
          5    1    3    3  502    0 -0.31519116947E+02 -0.32647058973E+01  0.25795187186E+02  0.41072827023E+02  0.41800000000E+01 0. -1.
         -5    1    3    3    0  502  0.30384196797E+02 -0.72571965236E+02 -0.94310905743E+02  0.12288982421E+03  0.41800000000E+01 0.  1.
        -11    1    4    4    0    0 -0.10194999182E+02  0.37426755131E+02  0.19106071659E+02  0.43240513205E+02  0.00000000000E+00 0.  1.
         11    1    4    4    0    0  0.11329919333E+02  0.38409916002E+02  0.20870452145E+03  0.21251180201E+03  0.00000000000E+00 0. -1.
</event>
<event>
 8    1  0.5951278E-006  0.1015531E+03  0.7561462E-02  0.1277063E+00
          1   -1    0    0  501    0  0.00000000000E+00  0.00000000000E+00  0.44276403027E+03  0.44276403027E+03  0.00000000000E+00 0. -1.
         -1   -1    0    0    0  501 -0.00000000000E+00 -0.00000000000E+00 -0.26644862269E+02  0.26644862269E+02  0.00000000000E+00 0.  1.
         23    2    1    2    0    0  0.55962958262E+01 -0.91087484942E+01  0.21174163551E+03  0.24616303101E+03  0.12508968704E+03 0.  0.
         23    2    1    2    0    0 -0.55962958262E+01  0.91087484942E+01  0.20437753249E+03  0.22324586153E+03  0.89186608155E+02 0.  0.
          5    1    3    3  502    0 -0.33896430937E+02 -0.47203817225E+02  0.55316628312E+02  0.80340339548E+02  0.41800000000E+01 0.  1.
         -5    1    3    3    0  502  0.39492726763E+02  0.38095068731E+02  0.15642500720E+03  0.16582269147E+03  0.41800000000E+01 0.  1.
        -11    1    4    4    0    0 -0.27398138396E+02 -0.32699576910E+02  0.98984525221E+02  0.10778616122E+03  0.00000000000E+00 0.  1.
         11    1    4    4    0    0  0.21801842569E+02  0.41808325404E+02  0.10539300727E+03  0.11545970030E+03  0.00000000000E+00 0. -1.
</event>
<event>
 8    1  0.5951278E-006  0.1146420E+03  0.7561462E-02  0.1252207E+00
          4   -1    0    0  501    0  0.00000000000E+00  0.00000000000E+00  0.57883985100E+02  0.57883985100E+02  0.00000000000E+00 0. -1.
         -4   -1    0    0    0  501 -0.00000000000E+00 -0.00000000000E+00 -0.28243268518E+03  0.28243268518E+03  0.00000000000E+00 0.  1.
         23    2    1    2    0    0  0.55708314242E+02 -0.53171099189E+01 -0.18167199339E+03  0.22756055950E+03  0.12508959638E+03 0.  0.
         23    2    1    2    0    0 -0.55708314242E+02  0.53171099189E+01 -0.42876706685E+02  0.11275611078E+03  0.87999094358E+02 0.  0.
          5    1    3    3  502    0  0.94971426221E+01  0.57288210284E+02 -0.90678991114E+02  0.10776032009E+03  0.41800000000E+01 0.  1.
         -5    1    3    3    0  502  0.46211171620E+02 -0.62605320203E+02 -0.90993002280E+02  0.11980023942E+03  0.41800000000E+01 0.  1.
        -11    1    4    4    0    0  0.45929985261E+00  0.31263830521E+02 -0.40064303554E+02  0.50821122326E+02  0.00000000000E+00 0.  1.
         11    1    4    4    0    0 -0.56167614095E+02 -0.25946720602E+02 -0.28124031318E+01  0.61934988452E+02  0.00000000000E+00 0. -1.
</event>
<event>
 8    1  0.5951278E-006  0.1682762E+03  0.7561462E-02  0.1179658E+00
          2   -1    0    0  501    0  0.00000000000E+00  0.00000000000E+00  0.39031959806E+03  0.39031959806E+03  0.00000000000E+00 0. -1.
         -2   -1    0    0    0  501 -0.00000000000E+00 -0.00000000000E+00 -0.75798211306E+02  0.75798211306E+02  0.00000000000E+00 0.  1.
         23    2    1    2    0    0  0.10738535055E+03  0.76127997072E+02  0.13377131288E+03  0.22554018387E+03  0.12508607014E+03 0.  0.
         23    2    1    2    0    0 -0.10738535055E+03 -0.76127997072E+02  0.18075007388E+03  0.24057762550E+03  0.88768909146E+02 0.  0.
          5    1    3    3  502    0  0.16456045967E+02 -0.34255120227E+02  0.23209454585E+02  0.44725450169E+02  0.41800000000E+01 0. -1.
         -5    1    3    3    0  502  0.90929304580E+02  0.11038311730E+03  0.11056185829E+03  0.18081473370E+03  0.41800000000E+01 0. -1.
        -11    1    4    4    0    0 -0.33641195622E+02 -0.74208377779E+02  0.69505282406E+02  0.10709620749E+03  0.00000000000E+00 0. -1.
         11    1    4    4    0    0 -0.73744154924E+02 -0.19196192930E+01  0.11124479147E+03  0.13348141801E+03  0.00000000000E+00 0.  1.
</event>
<event>
 8    1  0.5951278E-006  0.1291735E+03  0.7561462E-02  0.1228687E+00
         -1   -1    0    0    0  501 -0.00000000000E+00  0.00000000000E+00  0.40363638902E+03  0.40363638902E+03  0.00000000000E+00 0.  1.
          1   -1    0    0  501    0  0.00000000000E+00 -0.00000000000E+00 -0.42098531505E+02  0.42098531505E+02  0.00000000000E+00 0. -1.
         23    2    1    2    0    0  0.29944467942E+02 -0.69105806043E+02  0.19607215930E+03  0.24446945092E+03  0.12509491272E+03 0.  0.
         23    2    1    2    0    0 -0.29944467942E+02  0.69105806043E+02  0.16546569821E+03  0.20126546961E+03  0.86351655352E+02 0.  0.
          5    1    3    3  502    0  0.19738153867E+02 -0.10471286027E+03  0.12574931290E+03  0.16487795461E+03  0.41800000000E+01 0. -1.
         -5    1    3    3    0  502  0.10206314075E+02  0.35607054224E+02  0.70322846408E+02  0.79591496307E+02  0.41800000000E+01 0. -1.
        -11    1    4    4    0    0  0.25209557536E+02 -0.10021896276E+01  0.40862801472E+02  0.48023897378E+02  0.00000000000E+00 0.  1.
         11    1    4    4    0    0 -0.55154025477E+02  0.70107995670E+02  0.12460289674E+03  0.15324157223E+03  0.00000000000E+00 0. -1.
</event>
<event>
 8    1  0.5951278E-006  0.9761017E+02  0.7561462E-02  0.1285403E+00
          2   -1    0    0  501    0  0.00000000000E+00  0.00000000000E+00  0.37467410541E+03  0.37467410541E+03  0.00000000000E+00 0. -1.
         -2   -1    0    0    0  501 -0.00000000000E+00 -0.00000000000E+00 -0.60164700393E+02  0.60164700393E+02  0.00000000000E+00 0.  1.
         23    2    1    2    0    0 -0.84218235952E+02  0.25996160014E+02  0.90000289802E+02  0.17753106289E+03  0.12509482214E+03 0.  0.
         23    2    1    2    0    0  0.84218235952E+02 -0.25996160014E+02  0.22450911522E+03  0.25730774291E+03  0.89634927032E+02 0.  0.
          5    1    3    3  502    0 -0.16725060181E+02  0.26357864224E+02 -0.27598114851E+02  0.41875923726E+02  0.41800000000E+01 0.  1.
         -5    1    3    3    0  502 -0.67493175771E+02 -0.36170421035E+00  0.11759840465E+03  0.13565513917E+03  0.41800000000E+01 0.  1.
        -11    1    4    4    0    0  0.55269082110E+02 -0.35434797960E+02  0.21590524509E+03  0.22566650438E+03  0.00000000000E+00 0. -1.
         11    1    4    4    0    0  0.28949153843E+02  0.94386379461E+01  0.86038701303E+01  0.31641238530E+02  0.00000000000E+00 0.  1.
</event>
<event>
 8    1  0.5951278E-006  0.8993888E+02  0.7561462E-02  0.1303000E+00
          2   -1    0    0  501    0  0.00000000000E+00  0.00000000000E+00  0.59019885272E+03  0.59019885272E+03  0.00000000000E+00 0. -1.
         -2   -1    0    0    0  501 -0.00000000000E+00 -0.00000000000E+00 -0.24959672205E+02  0.24959672205E+02  0.00000000000E+00 0.  1.
         23    2    1    2    0    0  0.17364465247E+02 -0.48912977671E+02  0.26189053387E+03  0.29483255842E+03  0.12508229985E+03 0.  0.
         23    2    1    2    0    0 -0.17364465247E+02  0.48912977671E+02  0.30334864665E+03  0.32032596651E+03  0.88849982328E+02 0.  0.
          5    1    3    3  502    0  0.28467772422E+02 -0.56952898603E+02  0.27062722648E+03  0.27804786430E+03  0.41800000000E+01 0.  1.
         -5    1    3    3    0  502 -0.11103307175E+02  0.80399209324E+01 -0.87366926156E+01  0.16784694119E+02  0.41800000000E+01 0.  1.
        -11    1    4    4    0    0  0.33003171033E+02  0.37759887718E+02  0.17357772316E+03  0.18067718283E+03  0.00000000000E+00 0. -1.
         11    1    4    4    0    0 -0.50367636280E+02  0.11153089953E+02  0.12977092349E+03  0.13964878368E+03  0.00000000000E+00 0.  1.
</event>
<event>
 8    1  0.5951278E-006  0.1124186E+03  0.7561462E-02  0.1256156E+00
          1   -1    0    0  501    0  0.00000000000E+00  0.00000000000E+00  0.11927099615E+03  0.11927099615E+03  0.00000000000E+00 0. -1.
         -1   -1    0    0    0  501 -0.00000000000E+00 -0.00000000000E+00 -0.14685246588E+03  0.14685246588E+03  0.00000000000E+00 0.  1.
         23    2    1    2    0    0 -0.63794697120E+01 -0.74714098273E+02 -0.23715728359E+02  0.14776045923E+03  0.12509126038E+03 0.  0.
         23    2    1    2    0    0  0.63794697120E+01  0.74714098273E+02 -0.38657413745E+01  0.11836300280E+03  0.91498428186E+02 0.  0.
          5    1    3    3  502    0  0.28624614014E+02  0.25257437503E+02  0.27512699325E+01  0.38501280017E+02  0.41800000000E+01 0.  1.
         -5    1    3    3    0  502 -0.35004083726E+02 -0.99971535776E+02 -0.26466998291E+02  0.10925917921E+03  0.41800000000E+01 0.  1.
        -11    1    4    4    0    0 -0.74851960983E+01  0.59000499025E+02 -0.43395305481E+02  0.73622276409E+02  0.00000000000E+00 0.  1.
         11    1    4    4    0    0  0.13864665810E+02  0.15713599248E+02  0.39529564107E+02  0.44740726389E+02  0.00000000000E+00 0. -1.
</event>
<event>
 8    1  0.5951278E-006  0.1032650E+03  0.7561462E-02  0.1273576E+00
          3   -1    0    0  501    0  0.00000000000E+00  0.00000000000E+00  0.99615693320E+02  0.99615693320E+02  0.00000000000E+00 0. -1.
         -3   -1    0    0    0  501 -0.00000000000E+00 -0.00000000000E+00 -0.20458430871E+03  0.20458430871E+03  0.00000000000E+00 0.  1.
         23    2    1    2    0    0  0.38726173156E+02  0.30768046020E+02 -0.14035813976E+03  0.19440598710E+03  0.12508753447E+03 0.  0.
         23    2    1    2    0    0 -0.38726173156E+02 -0.30768046020E+02  0.35389524361E+02  0.10979401494E+03  0.91410711290E+02 0.  0.
          5    1    3    3  502    0  0.50348727212E+02 -0.29820651829E+02 -0.25516227286E+02  0.63975119088E+02  0.41800000000E+01 0.  1.
         -5    1    3    3    0  502 -0.11622554056E+02  0.60588697849E+02 -0.11484191247E+03  0.13043086801E+03  0.41800000000E+01 0.  1.
        -11    1    4    4    0    0  0.77012909104E+01  0.17461335417E+02 -0.16393920143E+02  0.25158869885E+02  0.00000000000E+00 0.  1.
         11    1    4    4    0    0 -0.46427464066E+02 -0.48229381437E+02  0.51783444504E+02  0.84635145053E+02  0.00000000000E+00 0. -1.
</event>
<event>
 8    1  0.5951278E-006  0.1439967E+03  0.7561462E-02  0.1208050E+00
          1   -1    0    0  501    0  0.00000000000E+00  0.00000000000E+00  0.33044952662E+03  0.33044952662E+03  0.00000000000E+00 0. -1.
         -1   -1    0    0    0  501 -0.00000000000E+00 -0.00000000000E+00 -0.75689983577E+02  0.75689983577E+02  0.00000000000E+00 0.  1.
         23    2    1    2    0    0  0.42373042483E+02 -0.99071392554E+02  0.84838609663E+02  0.18562295546E+03  0.12509067252E+03 0.  0.
         23    2    1    2    0    0 -0.42373042483E+02  0.99071392554E+02  0.16992093338E+03  0.22051655474E+03  0.90243070435E+02 0.  0.
          5    1    3    3  502    0  0.12245597853E+02 -0.12413083243E+03  0.72468539196E+02  0.14431763510E+03  0.41800000000E+01 0.  1.
         -5    1    3    3    0  502  0.30127444630E+02  0.25059439875E+02  0.12370070468E+02  0.41305320361E+02  0.41800000000E+01 0.  1.
        -11    1    4    4    0    0 -0.12237536276E+02  0.92021035952E+02  0.16479899489E+03  0.18914633771E+03  0.00000000000E+00 0. -1.
         11    1    4    4    0    0 -0.30135506207E+02  0.70503566024E+01  0.51219384874E+01  0.31370217029E+02  0.00000000000E+00 0.  1.
</event>
<event>
 8    1  0.5951278E-006  0.1116028E+03  0.7561462E-02  0.1257630E+00
          4   -1    0    0  501    0  0.00000000000E+00  0.00000000000E+00  0.16825166300E+03  0.16825166300E+03  0.00000000000E+00 0. -1.
         -4   -1    0    0    0  501 -0.00000000000E+00 -0.00000000000E+00 -0.12613649135E+03  0.12613649135E+03  0.00000000000E+00 0.  1.
         23    2    1    2    0    0 -0.84905845547E+02  0.32360772293E+02 -0.10701340039E+02  0.15497771359E+03  0.12508937140E+03 0.  0.
         23    2    1    2    0    0  0.84905845547E+02 -0.32360772293E+02  0.52816511688E+02  0.13941044076E+03  0.91594022156E+02 0.  0.
          5    1    3    3  502    0 -0.15169153401E+01 -0.27070528761E+02  0.33557500420E+02  0.43343889926E+02  0.41800000000E+01 0.  1.
         -5    1    3    3    0  502 -0.83388930207E+02  0.59431301054E+02 -0.44258840459E+02  0.11163382366E+03  0.41800000000E+01 0.  1.
        -11    1    4    4    0    0  0.32467936597E+02 -0.16324836160E+01  0.69206273084E+02  0.76461363732E+02  0.00000000000E+00 0. -1.
         11    1    4    4    0    0  0.52437908950E+02 -0.30728288677E+02 -0.16389761396E+02  0.62949077029E+02  0.00000000000E+00 0.  1.
</event>
<event>
 8    1  0.5951278E-006  0.7699342E+02  0.7561462E-02  0.1337807E+00
         -2   -1    0    0    0  501 -0.00000000000E+00  0.00000000000E+00  0.44648576063E+03  0.44648576063E+03  0.00000000000E+00 0.  1.
          2   -1    0    0  501    0  0.00000000000E+00 -0.00000000000E+00 -0.11307382087E+03  0.11307382087E+03  0.00000000000E+00 0. -1.
         23    2    1    2    0    0  0.17685333695E+02 -0.36460000711E+02  0.41250633210E+03  0.43198379912E+03  0.12168165841E+03 0.  0.
         23    2    1    2    0    0 -0.17685333695E+02  0.36460000711E+02 -0.79094392344E+02  0.12757578238E+03  0.91528982678E+02 0.  0.
          5    1    3    3  502    0 -0.12323626957E+02 -0.29206670093E+02  0.18892502963E+02  0.37138934119E+02  0.41800000000E+01 0. -1.
         -5    1    3    3    0  502  0.30008960652E+02 -0.72533306181E+01  0.39361382914E+03  0.39484486500E+03  0.41800000000E+01 0.  1.
        -11    1    4    4    0    0 -0.43694789189E+02 -0.27767287144E+01 -0.65121307890E+02  0.78471202144E+02  0.00000000000E+00 0. -1.
         11    1    4    4    0    0  0.26009455493E+02  0.39236729426E+02 -0.13973084453E+02  0.49104580237E+02  0.00000000000E+00 0.  1.
</event>
<event>
 8    1  0.5951278E-006  0.8077808E+02  0.7561462E-02  0.1326858E+00
         -1   -1    0    0    0  501 -0.00000000000E+00  0.00000000000E+00  0.70059336091E+02  0.70059336091E+02  0.00000000000E+00 0.  1.
          1   -1    0    0  501    0  0.00000000000E+00 -0.00000000000E+00 -0.23803829639E+03  0.23803829639E+03  0.00000000000E+00 0. -1.
         23    2    1    2    0    0 -0.60258425688E+02 -0.31965530208E+02 -0.73538050739E+02  0.16033397885E+03  0.12508503859E+03 0.  0.
         23    2    1    2    0    0  0.60258425688E+02  0.31965530208E+02 -0.94440909563E+02  0.14776365364E+03  0.90896308776E+02 0.  0.
          5    1    3    3  502    0 -0.25918742379E+02  0.43171139914E+01 -0.10011757627E+03  0.10359256807E+03  0.41800000000E+01 0. -1.
         -5    1    3    3    0  502 -0.34339683309E+02 -0.36282644199E+02  0.26579525535E+02  0.56741410781E+02  0.41800000000E+01 0. -1.
        -11    1    4    4    0    0  0.18218306426E+02  0.38197252669E+02  0.20072167354E+01  0.42367035765E+02  0.00000000000E+00 0.  1.
         11    1    4    4    0    0  0.42040119262E+02 -0.62317224607E+01 -0.96448126299E+02  0.10539661787E+03  0.00000000000E+00 0. -1.
</event>
<event>
 8    1  0.5951278E-006  0.1088302E+03  0.7561462E-02  0.1262752E+00
         -1   -1    0    0    0  501 -0.00000000000E+00  0.00000000000E+00  0.30290438793E+03  0.30290438793E+03  0.00000000000E+00 0.  1.
          1   -1    0    0  501    0  0.00000000000E+00 -0.00000000000E+00 -0.52365569890E+02  0.52365569890E+02  0.00000000000E+00 0. -1.
         23    2    1    2    0    0 -0.22926926120E+02 -0.61458034315E+02  0.15376938809E+03  0.20879440715E+03  0.12508935135E+03 0.  0.
         23    2    1    2    0    0  0.22926926120E+02  0.61458034315E+02  0.96769429955E+02  0.14647555067E+03  0.88249818404E+02 0.  0.
          5    1    3    3  502    0 -0.44036528513E+02  0.12489549759E+02  0.11225968643E+03  0.12130504645E+03  0.41800000000E+01 0.  1.
         -5    1    3    3    0  502  0.21109602393E+02 -0.73947584074E+02  0.41509701655E+02  0.87489360696E+02  0.41800000000E+01 0.  1.
        -11    1    4    4    0    0 -0.22915404151E+02  0.80288996252E+01  0.64717018710E+02  0.69122149036E+02  0.00000000000E+00 0.  1.
         11    1    4    4    0    0  0.45842330272E+02  0.53429134689E+02  0.32052411244E+02  0.77353401638E+02  0.00000000000E+00 0. -1.
</event>
<event>
 8    1  0.5951278E-006  0.2093579E+03  0.7561462E-02  0.1142075E+00
          2   -1    0    0  501    0  0.00000000000E+00  0.00000000000E+00  0.26880611256E+03  0.26880611256E+03  0.00000000000E+00 0. -1.
         -2   -1    0    0    0  501 -0.00000000000E+00 -0.00000000000E+00 -0.28153626291E+03  0.28153626291E+03  0.00000000000E+00 0.  1.
         23    2    1    2    0    0  0.12084459826E+03 -0.16846057495E+03 -0.15067240280E+03  0.28521334426E+03  0.12514829819E+03 0.  0.
         23    2    1    2    0    0 -0.12084459826E+03  0.16846057495E+03  0.13794225245E+03  0.26512903120E+03  0.91010746270E+02 0.  0.
          5    1    3    3  502    0  0.87309818867E+02 -0.13852051860E+03 -0.17002908498E+03  0.23608960308E+03  0.41800000000E+01 0. -1.
         -5    1    3    3    0  502  0.33534779391E+02 -0.29940056348E+02  0.19356682177E+02  0.49123741183E+02  0.41800000000E+01 0. -1.
        -11    1    4    4    0    0 -0.55687598479E+02  0.10481102561E+03  0.27243290991E+02  0.12177297162E+03  0.00000000000E+00 0. -1.
         11    1    4    4    0    0 -0.65156999778E+02  0.63649549342E+02  0.11069896146E+03  0.14335605959E+03  0.00000000000E+00 0.  1.
</event>
<event>
 8    1  0.5951278E-006  0.1702495E+03  0.7561462E-02  0.1177588E+00
          1   -1    0    0  501    0  0.00000000000E+00  0.00000000000E+00  0.63755629387E+03  0.63755629387E+03  0.00000000000E+00 0. -1.
         -1   -1    0    0    0  501 -0.00000000000E+00 -0.00000000000E+00 -0.70030350809E+02  0.70030350809E+02  0.00000000000E+00 0.  1.
         23    2    1    2    0    0 -0.15215305771E+03  0.63841566637E+02  0.17183316322E+03  0.26907649678E+03  0.12509686860E+03 0.  0.
         23    2    1    2    0    0  0.15215305771E+03 -0.63841566637E+02  0.39569277984E+03  0.43851014790E+03  0.92152456280E+02 0.  0.
          5    1    3    3  502    0 -0.48146173777E+02  0.49752924192E+02  0.14488977116E+03  0.16063600375E+03  0.41800000000E+01 0.  1.
         -5    1    3    3    0  502 -0.10400688393E+03  0.14088642446E+02  0.26943392065E+02  0.10844049302E+03  0.41800000000E+01 0.  1.
        -11    1    4    4    0    0  0.52413822120E+02 -0.12337657254E+02  0.44629553879E+02  0.69937283442E+02  0.00000000000E+00 0.  1.
         11    1    4    4    0    0  0.99739235588E+02 -0.51503909384E+02  0.35106322596E+03  0.36857286446E+03  0.00000000000E+00 0. -1.
</event>
<event>
 7    1  0.5951278E-006  0.9774258E+02  0.7561462E-02  0.1285116E+00
          2   -1    0    0  501    0  0.00000000000E+00  0.00000000000E+00  0.58844630358E+02  0.58844630358E+02  0.00000000000E+00 0.  1.
         -2   -1    0    0    0  501 -0.00000000000E+00 -0.00000000000E+00 -0.20600201018E+03  0.20600201018E+03  0.00000000000E+00 0. -1.
         23    2    1    2    0    0  0.78693179918E+02 -0.65675201097E+01 -0.10243657223E+03  0.17214826140E+03  0.11360468163E+03 0.  0.
          5    1    3    3  502    0  0.86219908903E+02 -0.29318109051E+02 -0.30374183738E+02  0.96091038330E+02  0.41800000000E+01 0.  1.
         -5    1    3    3    0  502 -0.75267289853E+01  0.22750588941E+02 -0.72062388489E+02  0.76057223070E+02  0.41800000000E+01 0. -1.
        -11    1    1    2    0    0 -0.68419349609E+02  0.12574216700E+01 -0.32117760346E+02  0.75593247317E+02  0.00000000000E+00 0.  1.
         11    1    1    2    0    0 -0.10273830308E+02  0.53100984397E+01 -0.12603047245E+02  0.17105131818E+02  0.00000000000E+00 0. -1.
</event>
<event>
 8    1  0.5951278E-006  0.1549444E+03  0.7561462E-02  0.1194526E+00
          2   -1    0    0  501    0  0.00000000000E+00  0.00000000000E+00  0.49219425165E+03  0.49219425165E+03  0.00000000000E+00 0.  1.
         -2   -1    0    0    0  501 -0.00000000000E+00 -0.00000000000E+00 -0.59390560983E+02  0.59390560983E+02  0.00000000000E+00 0. -1.
         23    2    1    2    0    0  0.11193834978E+03 -0.23723068837E+02  0.12396485409E+03  0.21002172775E+03  0.12509541532E+03 0.  0.
         23    2    1    2    0    0 -0.11193834978E+03  0.23723068837E+02  0.30883883658E+03  0.34156308488E+03  0.90503789036E+02 0.  0.
          5    1    3    3  502    0  0.12886974918E+03 -0.49065260610E+02  0.93024825964E+02  0.16639081314E+03  0.41800000000E+01 0.  1.
         -5    1    3    3    0  502 -0.16931399401E+02  0.25342191773E+02  0.30940028126E+02  0.43630914613E+02  0.41800000000E+01 0.  1.
        -11    1    4    4    0    0  0.13583025034E+02  0.11326663830E+01  0.64682439733E+02  0.66102946318E+02  0.00000000000E+00 0.  1.
         11    1    4    4    0    0 -0.12552137481E+03  0.22590402454E+02  0.24415639685E+03  0.27546013856E+03  0.00000000000E+00 0. -1.
</event>
<event>
 8    1  0.5951278E-006  0.1000476E+03  0.7561462E-02  0.1280196E+00
          2   -1    0    0  501    0  0.00000000000E+00  0.00000000000E+00  0.93056216728E+02  0.93056216728E+02  0.00000000000E+00 0. -1.
         -2   -1    0    0    0  501 -0.00000000000E+00 -0.00000000000E+00 -0.23023083021E+03  0.23023083021E+03  0.00000000000E+00 0.  1.
         23    2    1    2    0    0 -0.88778994464E+02 -0.33541426628E+02 -0.92731655127E+02  0.18235300757E+03  0.12508685921E+03 0.  0.
         23    2    1    2    0    0  0.88778994464E+02  0.33541426628E+02 -0.44442958352E+02  0.14093403937E+03  0.94236350458E+02 0.  0.
          5    1    3    3  502    0 -0.69508903711E+02 -0.90429948190E+01 -0.12110968171E+03  0.13999389578E+03  0.41800000000E+01 0. -1.
         -5    1    3    3    0  502 -0.19270090753E+02 -0.24498431809E+02  0.28378026585E+02  0.42359111789E+02  0.41800000000E+01 0. -1.
        -11    1    4    4    0    0  0.59871858857E+02  0.90729844812E+01  0.22022629394E+02  0.64435663540E+02  0.00000000000E+00 0. -1.
         11    1    4    4    0    0  0.28907135607E+02  0.24468442147E+02 -0.66465587747E+02  0.76498375830E+02  0.00000000000E+00 0.  1.
</event>
<event>
 8    1  0.5951278E-006  0.1025293E+03  0.7561462E-02  0.1275065E+00
          1   -1    0    0  501    0  0.00000000000E+00  0.00000000000E+00  0.49313656970E+02  0.49313656970E+02  0.00000000000E+00 0. -1.
         -1   -1    0    0    0  501 -0.00000000000E+00 -0.00000000000E+00 -0.35120926570E+03  0.35120926570E+03  0.00000000000E+00 0.  1.
         23    2    1    2    0    0 -0.26351857910E+02  0.32798332222E+02 -0.24234196413E+03  0.27594861121E+03  0.12509139634E+03 0.  0.
         23    2    1    2    0    0  0.26351857910E+02 -0.32798332222E+02 -0.59553644604E+02  0.12457431146E+03  0.10100480919E+03 0.  0.
          5    1    3    3  502    0  0.30109084348E+02  0.45589312424E+02 -0.47078946815E+02  0.72241553145E+02  0.41800000000E+01 0.  1.
         -5    1    3    3    0  502 -0.56460942258E+02 -0.12790980202E+02 -0.19526301731E+03  0.20370705807E+03  0.41800000000E+01 0.  1.
        -11    1    4    4    0    0  0.55536667562E+02 -0.29404075471E+02 -0.69365739435E+02  0.93597686433E+02  0.00000000000E+00 0.  1.
         11    1    4    4    0    0 -0.29184809652E+02 -0.33942567503E+01  0.98120948306E+01  0.30976625031E+02  0.00000000000E+00 0. -1.
</event>
<event>
 8    1  0.5951278E-006  0.1083369E+03  0.7561462E-02  0.1263681E+00
          1   -1    0    0  501    0  0.00000000000E+00  0.00000000000E+00  0.94125662454E+03  0.94125662454E+03  0.00000000000E+00 0. -1.
         -1   -1    0    0    0  501 -0.00000000000E+00 -0.00000000000E+00 -0.16146742422E+02  0.16146742422E+02  0.00000000000E+00 0.  1.
         23    2    1    2    0    0 -0.78038296691E+01  0.58943599405E+02  0.49983771598E+03  0.51867123037E+03  0.12508739038E+03 0.  0.
         23    2    1    2    0    0  0.78038296691E+01 -0.58943599405E+02  0.42527216613E+03  0.43873213659E+03  0.89967909367E+02 0.  0.
          5    1    3    3  502    0  0.25948625094E+02  0.71285563927E+02  0.45380857911E+03  0.46012461534E+03  0.41800000000E+01 0.  1.
         -5    1    3    3    0  502 -0.33752454763E+02 -0.12341964522E+02  0.46029136874E+02  0.58546615036E+02  0.41800000000E+01 0.  1.
        -11    1    4    4    0    0 -0.39047816626E+02 -0.31889685145E+02  0.15158409383E+03  0.15974799374E+03  0.00000000000E+00 0. -1.
         11    1    4    4    0    0  0.46851646295E+02 -0.27053914261E+02  0.27368807230E+03  0.27898414284E+03  0.00000000000E+00 0.  1.
</event>
<event>
 8    1  0.5951278E-006  0.1525593E+03  0.7561462E-02  0.1197363E+00
         -4   -1    0    0    0  501 -0.00000000000E+00  0.00000000000E+00  0.58194503030E+03  0.58194503030E+03  0.00000000000E+00 0.  1.
          4   -1    0    0  501    0  0.00000000000E+00 -0.00000000000E+00 -0.55233562435E+02  0.55233562435E+02  0.00000000000E+00 0. -1.
         23    2    1    2    0    0 -0.64471378213E+02 -0.10059792881E+03  0.41352840693E+03  0.44825391668E+03  0.12509727652E+03 0.  0.
         23    2    1    2    0    0  0.64471378213E+02  0.10059792881E+03  0.11318306093E+03  0.18892467605E+03  0.92766513625E+02 0.  0.
          5    1    3    3  502    0  0.11815324387E+02 -0.75419761719E+02  0.10806246693E+03  0.13237337915E+03  0.41800000000E+01 0.  1.
         -5    1    3    3    0  502 -0.76286702600E+02 -0.25178167089E+02  0.30546594000E+03  0.31588053753E+03  0.41800000000E+01 0.  1.
        -11    1    4    4    0    0  0.13973954581E+02  0.96556868301E+02  0.91719149983E+02  0.13390632060E+03  0.00000000000E+00 0.  1.
         11    1    4    4    0    0  0.50497423632E+02  0.40410605071E+01  0.21463910951E+02  0.55018355454E+02  0.00000000000E+00 0. -1.
</event>
<event>
 8    1  0.5951278E-006  0.1927003E+03  0.7561462E-02  0.1156048E+00
         -2   -1    0    0    0  501 -0.00000000000E+00  0.00000000000E+00  0.62209674307E+02  0.62209674307E+02  0.00000000000E+00 0.  1.
          2   -1    0    0  501    0  0.00000000000E+00 -0.00000000000E+00 -0.68886552196E+03  0.68886552196E+03  0.00000000000E+00 0. -1.
         23    2    1    2    0    0 -0.17166777345E+03  0.38140829831E+02 -0.32660023695E+03  0.39145843871E+03  0.12508975624E+03 0.  0.
         23    2    1    2    0    0  0.17166777345E+03 -0.38140829831E+02 -0.30005561069E+03  0.35961675755E+03  0.91467455763E+02 0.  0.
          5    1    3    3  502    0 -0.17687990998E+03  0.44397114571E+02 -0.33341061295E+03  0.38004962250E+03  0.41800000000E+01 0. -1.
         -5    1    3    3    0  502  0.52121365334E+01 -0.62562847399E+01  0.68103759960E+01  0.11408816205E+02  0.41800000000E+01 0. -1.
        -11    1    4    4    0    0  0.99852515133E+02  0.19509478145E+02 -0.11959620753E+03  0.15701718814E+03  0.00000000000E+00 0.  1.
         11    1    4    4    0    0  0.71815258315E+02 -0.57650307975E+02 -0.18045940316E+03  0.20259956941E+03  0.00000000000E+00 0. -1.
</event>
<event>
 8    1  0.5951278E-006  0.1033529E+03  0.7561462E-02  0.1273399E+00
          1   -1    0    0  501    0  0.00000000000E+00  0.00000000000E+00  0.44883001474E+03  0.44883001474E+03  0.00000000000E+00 0. -1.
         -1   -1    0    0    0  501 -0.00000000000E+00 -0.00000000000E+00 -0.33926231492E+02  0.33926231492E+02  0.00000000000E+00 0.  1.
         23    2    1    2    0    0  0.20818448688E+02  0.14674574014E+01  0.12604155078E+03  0.17880046636E+03  0.12509025945E+03 0.  0.
         23    2    1    2    0    0 -0.20818448688E+02 -0.14674574014E+01  0.28886223247E+03  0.30395577988E+03  0.92261397868E+02 0.  0.
          5    1    3    3  502    0 -0.21800783942E+00 -0.60468078933E+02  0.69702475843E+02  0.92370686020E+02  0.41800000000E+01 0.  1.
         -5    1    3    3    0  502  0.21036456528E+02  0.61935536334E+02  0.56339074936E+02  0.86429780336E+02  0.41800000000E+01 0.  1.
        -11    1    4    4    0    0  0.13384472461E+02  0.30765618461E+02  0.48075467548E+02  0.58625233153E+02  0.00000000000E+00 0.  1.
         11    1    4    4    0    0 -0.34202921149E+02 -0.32233075862E+02  0.24078676492E+03  0.24533054673E+03  0.00000000000E+00 0. -1.
</event>
<event>
 7    1  0.5951278E-006  0.1196078E+03  0.7561462E-02  0.1243745E+00
         -1   -1    0    0    0  501 -0.00000000000E+00  0.00000000000E+00  0.19130499023E+03  0.19130499023E+03  0.00000000000E+00 0.  1.
          1   -1    0    0  501    0  0.00000000000E+00 -0.00000000000E+00 -0.13434113497E+03  0.13434113497E+03  0.00000000000E+00 0. -1.
         23    2    1    2    0    0 -0.41624527786E+02  0.20902052522E+01  0.49733392025E+02  0.14093824385E+03  0.12511278123E+03 0.  0.
          5    1    3    3  502    0 -0.86196545905E+02  0.20869829799E+01  0.25387609701E+02  0.89978903918E+02  0.41800000000E+01 0.  1.
         -5    1    3    3    0  502  0.44572018119E+02  0.32222723418E-02  0.24345782323E+02  0.50959339934E+02  0.41800000000E+01 0.  1.
        -11    1    1    2    0    0 -0.23205253440E+02  0.28240026791E+02 -0.70273355409E+02  0.79210651941E+02  0.00000000000E+00 0. -1.
         11    1    1    2    0    0  0.64829781226E+02 -0.30330232043E+02  0.77503818645E+02  0.10549722941E+03  0.00000000000E+00 0.  1.
</event>
<event>
 8    1  0.5951278E-006  0.1683662E+03  0.7561462E-02  0.1179562E+00
          2   -1    0    0  501    0  0.00000000000E+00  0.00000000000E+00  0.14550147187E+04  0.14550147187E+04  0.00000000000E+00 0.  1.
         -2   -1    0    0    0  501 -0.00000000000E+00 -0.00000000000E+00 -0.22658215013E+02  0.22658215013E+02  0.00000000000E+00 0. -1.
         23    2    1    2    0    0  0.13602328545E+03 -0.32758666300E+02  0.59317668874E+03  0.62215802187E+03  0.12508619310E+03 0.  0.
         23    2    1    2    0    0 -0.13602328545E+03  0.32758666300E+02  0.83917981491E+03  0.85551491181E+03  0.90041869029E+02 0.  0.
          5    1    3    3  502    0  0.82314583436E+02  0.39267109771E+02  0.21789263580E+03  0.23624620566E+03  0.41800000000E+01 0.  1.
         -5    1    3    3    0  502  0.53708702009E+02 -0.72025776071E+02  0.37528405295E+03  0.38591181621E+03  0.41800000000E+01 0.  1.
        -11    1    4    4    0    0 -0.66961630209E+01  0.25056960757E+02  0.56291735806E+02  0.61979427245E+02  0.00000000000E+00 0. -1.
         11    1    4    4    0    0 -0.12932712242E+03  0.77017055430E+01  0.78288807910E+03  0.79353548456E+03  0.00000000000E+00 0.  1.
</event>
<event>
 8    1  0.5951278E-006  0.1554305E+03  0.7561462E-02  0.1193954E+00
          1   -1    0    0  501    0  0.00000000000E+00  0.00000000000E+00  0.13640690147E+03  0.13640690147E+03  0.00000000000E+00 0. -1.
         -1   -1    0    0    0  501 -0.00000000000E+00 -0.00000000000E+00 -0.20587301007E+03  0.20587301007E+03  0.00000000000E+00 0.  1.
         23    2    1    2    0    0 -0.11829151703E+03 -0.44125927331E+02 -0.17372169311E+02  0.17857448585E+03  0.12508826590E+03 0.  0.
         23    2    1    2    0    0  0.11829151703E+03  0.44125927331E+02 -0.52093939291E+02  0.16370542569E+03  0.90253572924E+02 0.  0.
          5    1    3    3  502    0  0.29738029768E+00  0.20451718431E+02 -0.36581260481E+02  0.42119143393E+02  0.41800000000E+01 0.  1.
         -5    1    3    3    0  502 -0.11858889732E+03 -0.64577645762E+02  0.19209091170E+02  0.13645534245E+03  0.41800000000E+01 0.  1.
        -11    1    4    4    0    0  0.55012054573E+01 -0.22990132850E+02 -0.11735156204E+02  0.26391729028E+02  0.00000000000E+00 0.  1.
         11    1    4    4    0    0  0.11279031157E+03  0.67116060181E+02 -0.40358783087E+02  0.13731369666E+03  0.00000000000E+00 0. -1.
</event>
<event>
 8    1  0.5951278E-006  0.2158783E+03  0.7561462E-02  0.1136994E+00
         -2   -1    0    0    0  501 -0.00000000000E+00  0.00000000000E+00  0.72621560263E+02  0.72621560263E+02  0.00000000000E+00 0.  1.
          2   -1    0    0  501    0  0.00000000000E+00 -0.00000000000E+00 -0.12106715404E+04  0.12106715404E+04  0.00000000000E+00 0. -1.
         23    2    1    2    0    0 -0.20648291422E+03 -0.97320898935E+01 -0.18618204151E+03  0.30502537796E+03  0.12508725428E+03 0.  0.
         23    2    1    2    0    0  0.20648291422E+03  0.97320898935E+01 -0.95186793861E+03  0.97826772268E+03  0.90693203951E+02 0.  0.
          5    1    3    3  502    0 -0.57958596735E+02  0.10341576908E+02  0.81445138046E+01  0.59581479115E+02  0.41800000000E+01 0. -1.
         -5    1    3    3    0  502 -0.14852431748E+03 -0.20073666801E+02 -0.19432655531E+03  0.24544389885E+03  0.41800000000E+01 0. -1.
        -11    1    4    4    0    0  0.12591405892E+03  0.46517785485E+02 -0.49401557491E+03  0.51192738045E+03  0.00000000000E+00 0. -1.
         11    1    4    4    0    0  0.80568855295E+02 -0.36785695592E+02 -0.45785236371E+03  0.46634034223E+03  0.00000000000E+00 0.  1.
</event>
<event>
 8    1  0.5951278E-006  0.1245475E+03  0.7561462E-02  0.1235778E+00
          4   -1    0    0  501    0  0.00000000000E+00  0.00000000000E+00  0.90529163880E+03  0.90529163880E+03  0.00000000000E+00 0. -1.
         -4   -1    0    0    0  501 -0.00000000000E+00 -0.00000000000E+00 -0.40310527038E+02  0.40310527038E+02  0.00000000000E+00 0.  1.
         23    2    1    2    0    0 -0.10196448562E+03  0.33248131460E+02  0.17618806206E+03  0.24262357060E+03  0.12775667977E+03 0.  0.
         23    2    1    2    0    0  0.10196448562E+03 -0.33248131460E+02  0.68879304970E+03  0.70297859523E+03  0.90779102579E+02 0.  0.
          5    1    3    3  502    0 -0.53743234946E+02  0.26746781496E+02  0.18361583063E+03  0.19322518283E+03  0.41800000000E+01 0. -1.
         -5    1    3    3    0  502 -0.48221250677E+02  0.65013499641E+01 -0.74277685734E+01  0.49398387769E+02  0.41800000000E+01 0.  1.
        -11    1    4    4    0    0  0.82008465292E+01  0.27275148155E+02  0.11918531614E+03  0.12254112442E+03  0.00000000000E+00 0.  1.
         11    1    4    4    0    0  0.93763639093E+02 -0.60523279614E+02  0.56960773356E+03  0.58043747081E+03  0.00000000000E+00 0. -1.
</event>
<event>
 8    1  0.9544287E-006  0.1487019E+03  0.7561462E-02  0.1202077E+00
          2   -1    0    0  501    0  0.00000000000E+00  0.00000000000E+00  0.13357560294E+03  0.13357560294E+03  0.00000000000E+00 0. -1.
         -2   -1    0    0    0  501 -0.00000000000E+00 -0.00000000000E+00 -0.19262204036E+03  0.19262204036E+03  0.00000000000E+00 0.  1.
         23    2    1    2    0    0 -0.97299695669E+02  0.57615878922E+02 -0.69279386516E+02  0.18230112548E+03  0.12508895505E+03 0.  0.
         23    2    1    2    0    0  0.97299695669E+02 -0.57615878922E+02  0.10232949090E+02  0.14389651781E+03  0.88400646551E+02 0.  0.
          5    1    3    3  502    0 -0.12692410095E+03  0.42104741200E+02 -0.46572023797E+02  0.14166496544E+03  0.41800000000E+01 0. -1.
         -5    1    3    3    0  502  0.29624405278E+02  0.15511137722E+02 -0.22707362720E+02  0.40636160045E+02  0.41800000000E+01 0. -1.
        -11    1    4    4    0    0  0.48863246835E+02 -0.64575713107E+02 -0.23667446055E+02  0.84366981796E+02  0.00000000000E+00 0.  1.
         11    1    4    4    0    0  0.48436448833E+02  0.69598341846E+01  0.33900395145E+02  0.59529536018E+02  0.00000000000E+00 0. -1.
</event>
<event>
 8    1  0.5951278E-006  0.1348344E+03  0.7561462E-02  0.1220454E+00
         -2   -1    0    0    0  501 -0.00000000000E+00  0.00000000000E+00  0.44586720164E+03  0.44586720164E+03  0.00000000000E+00 0.  1.
          2   -1    0    0  501    0  0.00000000000E+00 -0.00000000000E+00 -0.86647003774E+02  0.86647003774E+02  0.00000000000E+00 0. -1.
         23    2    1    2    0    0 -0.12264824194E+03 -0.17585282829E+02  0.33854288010E+03  0.38158974829E+03  0.12509045091E+03 0.  0.
         23    2    1    2    0    0  0.12264824194E+03  0.17585282829E+02  0.20677317765E+02  0.15092445713E+03  0.83658872017E+02 0.  0.
          5    1    3    3  502    0 -0.23440736587E+02  0.28098631085E+00 -0.43114582867E+01  0.24199342090E+02  0.41800000000E+01 0.  1.
         -5    1    3    3    0  502 -0.99207505348E+02 -0.17866269139E+02  0.34285433839E+03  0.35739040620E+03  0.41800000000E+01 0.  1.
        -11    1    4    4    0    0  0.62593982860E+02  0.46826977062E+02  0.29493074301E+02  0.83550068239E+02  0.00000000000E+00 0.  1.
         11    1    4    4    0    0  0.60054259075E+02 -0.29241694233E+02 -0.88157565363E+01  0.67374388888E+02  0.00000000000E+00 0. -1.
</event>
<event>
 8    1  0.5951278E-006  0.1781526E+03  0.7561462E-02  0.1169603E+00
          2   -1    0    0  501    0  0.00000000000E+00  0.00000000000E+00  0.38778488912E+03  0.38778488912E+03  0.00000000000E+00 0. -1.
         -2   -1    0    0    0  501 -0.00000000000E+00 -0.00000000000E+00 -0.11240974413E+03  0.11240974413E+03  0.00000000000E+00 0.  1.
         23    2    1    2    0    0  0.18866585485E+02 -0.14209420894E+03  0.17316827120E+02  0.19103544063E+03  0.12509178556E+03 0.  0.
         23    2    1    2    0    0 -0.18866585485E+02  0.14209420894E+03  0.25805831787E+03  0.30915919261E+03  0.91861845675E+02 0.  0.
          5    1    3    3  502    0  0.72040526988E+02 -0.88730096420E+02  0.16707379688E+02  0.11558320153E+03  0.41800000000E+01 0.  1.
         -5    1    3    3    0  502 -0.53173941504E+02 -0.53364112519E+02  0.60944743195E+00  0.75452239106E+02  0.41800000000E+01 0.  1.
        -11    1    4    4    0    0  0.93251749406E+01  0.13762713597E+03  0.23487665152E+03  0.27238801162E+03  0.00000000000E+00 0. -1.
         11    1    4    4    0    0 -0.28191760425E+02  0.44670729650E+01  0.23181666354E+02  0.36771180994E+02  0.00000000000E+00 0.  1.
</event>
<event>
 8    1  0.5951278E-006  0.7173821E+02  0.7561462E-02  0.1354280E+00
         -3   -1    0    0    0  501 -0.00000000000E+00  0.00000000000E+00  0.23839960157E+03  0.23839960157E+03  0.00000000000E+00 0.  1.
          3   -1    0    0  501    0  0.00000000000E+00 -0.00000000000E+00 -0.50637089018E+02  0.50637089018E+02  0.00000000000E+00 0. -1.
         23    2    1    2    0    0 -0.20201127452E+02  0.28868835870E+01  0.11248795083E+03  0.16946149736E+03  0.12508892981E+03 0.  0.
         23    2    1    2    0    0  0.20201127452E+02 -0.28868835870E+01  0.75274561729E+02  0.11957519323E+03  0.90639657683E+02 0.  0.
          5    1    3    3  502    0 -0.98061712381E+01  0.50039965235E+02  0.48215172667E+01  0.51389478921E+02  0.41800000000E+01 0.  1.
         -5    1    3    3    0  502 -0.10394956214E+02 -0.47153081648E+02  0.10766643356E+03  0.11807201844E+03  0.41800000000E+01 0.  1.
        -11    1    4    4    0    0  0.27907547497E+02  0.93106423517E+01 -0.11516171719E+02  0.31593377144E+02  0.00000000000E+00 0. -1.
         11    1    4    4    0    0 -0.77064200451E+01 -0.12197525939E+02  0.86790733448E+02  0.87981816084E+02  0.00000000000E+00 0.  1.
</event>
<event>
 7    1  0.5951278E-006  0.2209953E+03  0.7561462E-02  0.1133143E+00
          2   -1    0    0  501    0  0.00000000000E+00  0.00000000000E+00  0.36494280326E+02  0.36494280326E+02  0.00000000000E+00 0. -1.
         -2   -1    0    0    0  501 -0.00000000000E+00 -0.00000000000E+00 -0.14879657288E+04  0.14879657288E+04  0.00000000000E+00 0.  1.
         23    2    1    2    0    0  0.52744571628E+02  0.93492977013E+02 -0.39314998745E+03  0.41761428284E+03  0.91169347992E+02 0.  0.
          5    1    1    2  502    0 -0.15820776619E+03  0.12485257511E+02 -0.37276383184E+03  0.40516160439E+03  0.41800000000E+01 0. -1.
         -5    1    1    2    0  502  0.10546319456E+03 -0.10597823452E+03 -0.68555762920E+03  0.70168412192E+03  0.41800000000E+01 0.  1.
        -11    1    3    3    0    0  0.70987232905E+02  0.50958857048E+02 -0.18810969979E+03  0.20741564913E+03  0.00000000000E+00 0. -1.
         11    1    3    3    0    0 -0.18242661278E+02  0.42534119965E+02 -0.20504028766E+03  0.21019863371E+03  0.00000000000E+00 0.  1.
</event>
<event>
 8    1  0.5951278E-006  0.1260922E+03  0.7561462E-02  0.1233372E+00
         -1   -1    0    0    0  501 -0.00000000000E+00  0.00000000000E+00  0.38235294720E+03  0.38235294720E+03  0.00000000000E+00 0.  1.
          1   -1    0    0  501    0  0.00000000000E+00 -0.00000000000E+00 -0.92361133190E+02  0.92361133190E+02  0.00000000000E+00 0. -1.
         23    2    1    2    0    0 -0.60542701558E+02 -0.32736857211E+02  0.32754283755E+03  0.35735672746E+03  0.12522938831E+03 0.  0.
         23    2    1    2    0    0  0.60542701558E+02  0.32736857211E+02 -0.37551023536E+02  0.11735735294E+03  0.87324385986E+02 0.  0.
          5    1    3    3  502    0 -0.60030454431E+02 -0.76942732727E+02  0.20683920702E+03  0.22874389509E+03  0.41800000000E+01 0. -1.
         -5    1    3    3    0  502 -0.51224712685E+00  0.44205875517E+02  0.12070363053E+03  0.12861283237E+03  0.41800000000E+01 0. -1.
        -11    1    4    4    0    0  0.15638879725E+02 -0.29479273651E+02 -0.19068859495E+02  0.38434665817E+02  0.00000000000E+00 0.  1.
         11    1    4    4    0    0  0.44903821833E+02  0.62216130861E+02 -0.18482164041E+02  0.78922687120E+02  0.00000000000E+00 0. -1.
</event>
<event>
 8    1  0.5951278E-006  0.1294229E+03  0.7561462E-02  0.1228315E+00
          1   -1    0    0  501    0  0.00000000000E+00  0.00000000000E+00  0.22451556012E+03  0.22451556012E+03  0.00000000000E+00 0. -1.
         -1   -1    0    0    0  501 -0.00000000000E+00 -0.00000000000E+00 -0.10259630902E+03  0.10259630902E+03  0.00000000000E+00 0.  1.
         23    2    1    2    0    0  0.22255234967E+02  0.94174202111E+02  0.19617046528E+02  0.15936171237E+03  0.12508897245E+03 0.  0.
         23    2    1    2    0    0 -0.22255234967E+02 -0.94174202111E+02  0.10230220457E+03  0.16775015676E+03  0.91160837028E+02 0.  0.
          5    1    3    3  502    0  0.59488380773E+02  0.49166454031E+02  0.51313264873E+02  0.92772470060E+02  0.41800000000E+01 0.  1.
         -5    1    3    3    0  502 -0.37233145807E+02  0.45007748080E+02 -0.31696218345E+02  0.66589242309E+02  0.41800000000E+01 0.  1.
        -11    1    4    4    0    0 -0.50080991166E+02 -0.70397033121E+02  0.98396167367E+02  0.13094141324E+03  0.00000000000E+00 0. -1.
         11    1    4    4    0    0  0.27825756199E+02 -0.23777168990E+02  0.39060372025E+01  0.36808743525E+02  0.00000000000E+00 0.  1.
</event>
<event>
 8    1  0.5951278E-006  0.1529379E+03  0.7561462E-02  0.1196909E+00
         -1   -1    0    0    0  501 -0.00000000000E+00  0.00000000000E+00  0.67254355898E+02  0.67254355898E+02  0.00000000000E+00 0.  1.
          1   -1    0    0  501    0  0.00000000000E+00 -0.00000000000E+00 -0.41718357552E+03  0.41718357552E+03  0.00000000000E+00 0. -1.
         23    2    1    2    0    0 -0.29233779237E+02 -0.11250587590E+03 -0.11124740221E+03  0.20380526895E+03  0.12509363370E+03 0.  0.
         23    2    1    2    0    0  0.29233779237E+02  0.11250587590E+03 -0.23868181741E+03  0.28063266247E+03  0.90958756149E+02 0.  0.
          5    1    3    3  502    0  0.14597171142E+02  0.17687730605E+02  0.49498866053E+01  0.23830799330E+02  0.41800000000E+01 0. -1.
         -5    1    3    3    0  502 -0.43830950379E+02 -0.13019360651E+03 -0.11619728882E+03  0.17997446962E+03  0.41800000000E+01 0. -1.
        -11    1    4    4    0    0  0.60416636342E+02  0.71373593891E+02 -0.12812541442E+03  0.15862055880E+03  0.00000000000E+00 0.  1.
         11    1    4    4    0    0 -0.31182857105E+02  0.41132282011E+02 -0.11055640299E+03  0.12201210367E+03  0.00000000000E+00 0. -1.
</event>
<event>
 8    1  0.5951278E-006  0.2426311E+03  0.7561462E-02  0.1118052E+00
          2   -1    0    0  501    0  0.00000000000E+00  0.00000000000E+00  0.10323208799E+04  0.10323208799E+04  0.00000000000E+00 0.  1.
         -2   -1    0    0    0  501 -0.00000000000E+00 -0.00000000000E+00 -0.74930632037E+02  0.74930632037E+02  0.00000000000E+00 0. -1.
         23    2    1    2    0    0  0.27931476644E+02  0.22801808180E+03  0.26540527667E+03  0.37255820599E+03  0.12484888046E+03 0.  0.
         23    2    1    2    0    0 -0.27931476644E+02 -0.22801808180E+03  0.69198497121E+03  0.73469330597E+03  0.90325192717E+02 0.  0.
          5    1    3    3  502    0  0.48194192062E+02  0.19381779651E+03  0.14822782624E+03  0.24875083771E+03  0.41800000000E+01 0. -1.
         -5    1    3    3    0  502 -0.20262715419E+02  0.34200285290E+02  0.11717745043E+03  0.12380736828E+03  0.41800000000E+01 0. -1.
        -11    1    4    4    0    0  0.24954781132E+02 -0.14473905924E+03  0.37608719211E+03  0.40374956649E+03  0.00000000000E+00 0. -1.
         11    1    4    4    0    0 -0.52886257776E+02 -0.83279022555E+02  0.31589777910E+03  0.33094373948E+03  0.00000000000E+00 0.  1.
</event>
<event>
 8    1  0.5951278E-006  0.1485214E+03  0.7561462E-02  0.1202302E+00
          2   -1    0    0  501    0  0.00000000000E+00  0.00000000000E+00  0.14901141917E+03  0.14901141917E+03  0.00000000000E+00 0. -1.
         -2   -1    0    0    0  501 -0.00000000000E+00 -0.00000000000E+00 -0.15559557631E+03  0.15559557631E+03  0.00000000000E+00 0.  1.
         23    2    1    2    0    0  0.90470476174E+02 -0.53976811441E+02 -0.18954701055E+02  0.16463677383E+03  0.12509030087E+03 0.  0.
         23    2    1    2    0    0 -0.90470476174E+02  0.53976811441E+02  0.12370543917E+02  0.13997022164E+03  0.91324856189E+02 0.  0.
          5    1    3    3  502    0 -0.20478283315E+02  0.17062474614E+02  0.11541452621E+02  0.29345624139E+02  0.41800000000E+01 0. -1.
         -5    1    3    3    0  502  0.11094875949E+03 -0.71039286055E+02 -0.30496153676E+02  0.13529114969E+03  0.41800000000E+01 0. -1.
        -11    1    4    4    0    0 -0.21397748724E+02  0.64886614146E+02  0.15160640405E+02  0.69985579681E+02  0.00000000000E+00 0. -1.
         11    1    4    4    0    0 -0.69072727450E+02 -0.10909802705E+02 -0.27900964876E+01  0.69984641964E+02  0.00000000000E+00 0.  1.
</event>
<event>
 8    1  0.5951278E-006  0.9860562E+02  0.7561462E-02  0.1283256E+00
         -1   -1    0    0    0  501 -0.00000000000E+00  0.00000000000E+00  0.83825101488E+03  0.83825101488E+03  0.00000000000E+00 0.  1.
          1   -1    0    0  501    0  0.00000000000E+00 -0.00000000000E+00 -0.17625511709E+02  0.17625511709E+02  0.00000000000E+00 0. -1.
         23    2    1    2    0    0  0.50148895624E+01  0.31295188572E+02  0.63018702669E+03  0.64326340793E+03  0.12509030911E+03 0.  0.
         23    2    1    2    0    0 -0.50148895624E+01 -0.31295188572E+02  0.19043847649E+03  0.21261311866E+03  0.89067316986E+02 0.  0.
          5    1    3    3  502    0  0.32073189734E+02 -0.26919442612E+02  0.44950394474E+03  0.45146939501E+03  0.41800000000E+01 0.  1.
         -5    1    3    3    0  502 -0.27058300172E+02  0.58214631184E+02  0.18068308194E+03  0.19179401292E+03  0.41800000000E+01 0.  1.
        -11    1    4    4    0    0  0.34682110217E+01  0.29354345053E+02  0.36678594497E+02  0.47106531983E+02  0.00000000000E+00 0. -1.
         11    1    4    4    0    0 -0.84831005841E+01 -0.60649533625E+02  0.15375988199E+03  0.16550658668E+03  0.00000000000E+00 0.  1.
</event>
<event>
 8    1  0.5951278E-006  0.1300459E+03  0.7561462E-02  0.1227388E+00
         -4   -1    0    0    0  501 -0.00000000000E+00  0.00000000000E+00  0.25303401284E+02  0.25303401284E+02  0.00000000000E+00 0.  1.
          4   -1    0    0  501    0  0.00000000000E+00 -0.00000000000E+00 -0.76077077707E+03  0.76077077707E+03  0.00000000000E+00 0. -1.
         23    2    1    2    0    0  0.63639172312E+02 -0.58617404159E+02 -0.42622650443E+03  0.45254994683E+03  0.12508587839E+03 0.  0.
         23    2    1    2    0    0 -0.63639172312E+02  0.58617404159E+02 -0.30924087135E+03  0.33352423152E+03  0.90125202771E+02 0.  0.
          5    1    3    3  502    0  0.81122507028E+01 -0.82481633447E+02 -0.31662607319E+03  0.32732028824E+03  0.41800000000E+01 0.  1.
         -5    1    3    3    0  502  0.55526921609E+02  0.23864229288E+02 -0.10960043124E+03  0.12522965859E+03  0.41800000000E+01 0.  1.
        -11    1    4    4    0    0 -0.77152802781E+02  0.26327976335E+02 -0.26414005914E+03  0.27643387664E+03  0.00000000000E+00 0. -1.
         11    1    4    4    0    0  0.13513630469E+02  0.32289427825E+02 -0.45100812213E+02  0.57090354876E+02  0.00000000000E+00 0.  1.
</event>
<event>
 8    1  0.5951278E-006  0.1154036E+03  0.7561462E-02  0.1250878E+00
         -1   -1    0    0    0  501 -0.00000000000E+00  0.00000000000E+00  0.13342927038E+03  0.13342927038E+03  0.00000000000E+00 0.  1.
          1   -1    0    0  501    0  0.00000000000E+00 -0.00000000000E+00 -0.14167030158E+03  0.14167030158E+03  0.00000000000E+00 0. -1.
         23    2    1    2    0    0  0.29220351274E+02 -0.66791033841E+02  0.38389944890E+02  0.14978957779E+03  0.12509299987E+03 0.  0.
         23    2    1    2    0    0 -0.29220351274E+02  0.66791033841E+02 -0.46630976092E+02  0.12530999417E+03  0.90627123850E+02 0.  0.
          5    1    3    3  502    0  0.62394497034E+02  0.17502022269E+01  0.38634615778E+02  0.73527154196E+02  0.41800000000E+01 0.  1.
         -5    1    3    3    0  502 -0.33174145760E+02 -0.68541236068E+02 -0.24467088788E+00  0.76262423594E+02  0.41800000000E+01 0.  1.
        -11    1    4    4    0    0 -0.39048156764E+02  0.19427790390E+02  0.15750741627E+02  0.46371148874E+02  0.00000000000E+00 0.  1.
         11    1    4    4    0    0  0.98278054902E+01  0.47363243451E+02 -0.62381717719E+02  0.78938845295E+02  0.00000000000E+00 0. -1.
</event>
<event>
 8    1  0.5951278E-006  0.7707227E+02  0.7561462E-02  0.1337571E+00
         -1   -1    0    0    0  501 -0.00000000000E+00  0.00000000000E+00  0.32730701440E+03  0.32730701440E+03  0.00000000000E+00 0.  1.
          1   -1    0    0  501    0  0.00000000000E+00 -0.00000000000E+00 -0.46431017693E+02  0.46431017693E+02  0.00000000000E+00 0. -1.
         23    2    1    2    0    0  0.42038163915E+02  0.68415815400E+00  0.27439265372E+03  0.30447648060E+03  0.12508766336E+03 0.  0.
         23    2    1    2    0    0 -0.42038163915E+02 -0.68415815400E+00  0.64833429863E+01  0.69261551492E+02  0.54657602226E+02 0.  0.
          5    1    3    3  502    0 -0.54102273300E+01  0.35217335999E+02  0.15668300139E+02  0.39147149882E+02  0.41800000000E+01 0.  1.
         -5    1    3    3    0  502  0.47448391245E+02 -0.34533177845E+02  0.25872435358E+03  0.26532933072E+03  0.41800000000E+01 0.  1.
        -11    1    4    4    0    0 -0.42012522087E+02  0.14354923056E+02 -0.11456799790E+02  0.45851653073E+02  0.00000000000E+00 0. -1.
         11    1    4    4    0    0 -0.25641827787E-01 -0.15039081210E+02  0.17940142777E+02  0.23409898419E+02  0.00000000000E+00 0.  1.
</event>
<event>
 8    1  0.5951278E-006  0.1244258E+03  0.7561462E-02  0.1235969E+00
          2   -1    0    0  501    0  0.00000000000E+00  0.00000000000E+00  0.39925031424E+03  0.39925031424E+03  0.00000000000E+00 0.  1.
         -2   -1    0    0    0  501 -0.00000000000E+00 -0.00000000000E+00 -0.53800359586E+02  0.53800359586E+02  0.00000000000E+00 0. -1.
         23    2    1    2    0    0  0.86796067036E+02 -0.45135296492E+02  0.21471968054E+03  0.26558912716E+03  0.12191099627E+03 0.  0.
         23    2    1    2    0    0 -0.86796067036E+02  0.45135296492E+02  0.13073027412E+03  0.18746154667E+03  0.92090578602E+02 0.  0.
          5    1    3    3  502    0 -0.15688872291E+02 -0.13979454389E+02 -0.41998486022E+01  0.21832933542E+02  0.41800000000E+01 0. -1.
         -5    1    3    3    0  502  0.10248493933E+03 -0.31155842103E+02  0.21891952914E+03  0.24375619362E+03  0.41800000000E+01 0.  1.
        -11    1    4    4    0    0 -0.56962324951E+01  0.38432613351E+02  0.71655906107E+01  0.39507702065E+02  0.00000000000E+00 0.  1.
         11    1    4    4    0    0 -0.81099834541E+02  0.67026831409E+01  0.12356468351E+03  0.14795384461E+03  0.00000000000E+00 0. -1.
</event>
<event>
 8    1  0.5951278E-006  0.6502702E+02  0.7561462E-02  0.1377870E+00
         -2   -1    0    0    0  501 -0.00000000000E+00  0.00000000000E+00  0.19510377135E+03  0.19510377135E+03  0.00000000000E+00 0.  1.
          2   -1    0    0  501    0  0.00000000000E+00 -0.00000000000E+00 -0.74335136572E+02  0.74335136572E+02  0.00000000000E+00 0. -1.
         23    2    1    2    0    0 -0.32189761956E+02  0.24893402230E+02  0.10644782609E+03  0.16921562922E+03  0.12508767823E+03 0.  0.
         23    2    1    2    0    0  0.32189761956E+02 -0.24893402230E+02  0.14320808687E+02  0.10022327870E+03  0.90464124281E+02 0.  0.
          5    1    3    3  502    0 -0.12389637080E+02 -0.23535261042E+01  0.12821100284E+03  0.12889754009E+03  0.41800000000E+01 0. -1.
         -5    1    3    3    0  502 -0.19800124876E+02  0.27246928335E+02 -0.21763176753E+02  0.40318089131E+02  0.41800000000E+01 0. -1.
        -11    1    4    4    0    0 -0.15261720188E+02  0.14578518247E+02 -0.20443747603E+02  0.29383670864E+02  0.00000000000E+00 0. -1.
         11    1    4    4    0    0  0.47451482144E+02 -0.39471920478E+02  0.34764556290E+02  0.70839607833E+02  0.00000000000E+00 0.  1.
</event>
<event>
 8    1  0.5951278E-006  0.7169908E+02  0.7561462E-02  0.1354409E+00
         -2   -1    0    0    0  501 -0.00000000000E+00  0.00000000000E+00  0.29484399538E+02  0.29484399538E+02  0.00000000000E+00 0.  1.
          2   -1    0    0  501    0  0.00000000000E+00 -0.00000000000E+00 -0.35455560425E+03  0.35455560425E+03  0.00000000000E+00 0. -1.
         23    2    1    2    0    0 -0.76340373122E+01  0.18251016167E+01 -0.17012845040E+03  0.21131161370E+03  0.12508916391E+03 0.  0.
         23    2    1    2    0    0  0.76340373122E+01 -0.18251016167E+01 -0.15494275431E+03  0.17272839009E+03  0.75935697177E+02 0.  0.
          5    1    3    3  502    0  0.32946257313E+02 -0.33546891946E+01 -0.16674161901E+03  0.17004984482E+03  0.41800000000E+01 0. -1.
         -5    1    3    3    0  502 -0.40580294625E+02  0.51797908113E+01 -0.33868313832E+01  0.41261768885E+02  0.41800000000E+01 0. -1.
        -11    1    4    4    0    0 -0.61609198061E+01 -0.33650431194E+02 -0.39837296612E+02  0.52510176668E+02  0.00000000000E+00 0.  1.
         11    1    4    4    0    0  0.13794957118E+02  0.31825329577E+02 -0.11510545770E+03  0.12021821342E+03  0.00000000000E+00 0. -1.
</event>
<event>
 8    1  0.5951278E-006  0.2057583E+03  0.7561462E-02  0.1144970E+00
          1   -1    0    0  501    0  0.00000000000E+00  0.00000000000E+00  0.10832787103E+03  0.10832787103E+03  0.00000000000E+00 0. -1.
         -1   -1    0    0    0  501 -0.00000000000E+00 -0.00000000000E+00 -0.49430760756E+03  0.49430760756E+03  0.00000000000E+00 0.  1.
         23    2    1    2    0    0  0.15246552526E+03  0.13218429848E+03 -0.23723197800E+03  0.33562727329E+03  0.12509288562E+03 0.  0.
         23    2    1    2    0    0 -0.15246552526E+03 -0.13218429848E+03 -0.14874775852E+03  0.26700820529E+03  0.91918773219E+02 0.  0.
          5    1    3    3  502    0  0.93341827220E+02  0.63697179012E+02 -0.42396584844E+02  0.12076824967E+03  0.41800000000E+01 0.  1.
         -5    1    3    3    0  502  0.59123698043E+02  0.68487119468E+02 -0.19483539316E+03  0.21485902362E+03  0.41800000000E+01 0.  1.
        -11    1    4    4    0    0 -0.52390647763E+02 -0.78274167070E+02 -0.21941714260E+02  0.96711240444E+02  0.00000000000E+00 0. -1.
         11    1    4    4    0    0 -0.10007487750E+03 -0.53910131411E+02 -0.12680604427E+03  0.17029696485E+03  0.00000000000E+00 0.  1.
</event>
<event>
 8    1  0.5951278E-006  0.1315480E+03  0.7561462E-02  0.1225177E+00
         -2   -1    0    0    0  501 -0.00000000000E+00  0.00000000000E+00  0.38538783066E+02  0.38538783066E+02  0.00000000000E+00 0.  1.
          2   -1    0    0  501    0  0.00000000000E+00 -0.00000000000E+00 -0.79570880849E+03  0.79570880849E+03  0.00000000000E+00 0. -1.
         23    2    1    2    0    0  0.38651649547E+01 -0.11370569509E+03 -0.21814683196E+03  0.27599394402E+03  0.12506275324E+03 0.  0.
         23    2    1    2    0    0 -0.38651649547E+01  0.11370569509E+03 -0.53902319346E+03  0.55825364753E+03  0.90317259125E+02 0.  0.
          5    1    3    3  502    0  0.24691705521E+02 -0.10958222335E+03 -0.22645237044E+03  0.25281632161E+03  0.41800000000E+01 0.  1.
         -5    1    3    3    0  502 -0.20826540567E+02 -0.41234717375E+01  0.83055384802E+01  0.23177622410E+02  0.41800000000E+01 0.  1.
        -11    1    4    4    0    0 -0.23585566056E+02  0.14031036423E+02 -0.37087550589E+02  0.46137135997E+02  0.00000000000E+00 0.  1.
         11    1    4    4    0    0  0.19720401101E+02  0.99674658665E+02 -0.50193564287E+03  0.51211651153E+03  0.00000000000E+00 0. -1.
</event>
<event>
 8    1  0.5951278E-006  0.1326446E+03  0.7561462E-02  0.1223584E+00
          2   -1    0    0  501    0  0.00000000000E+00  0.00000000000E+00  0.75062561705E+03  0.75062561705E+03  0.00000000000E+00 0. -1.
         -2   -1    0    0    0  501 -0.00000000000E+00 -0.00000000000E+00 -0.41606288039E+02  0.41606288039E+02  0.00000000000E+00 0.  1.
         23    2    1    2    0    0  0.61380753017E+02 -0.75812548519E+02  0.15264798542E+03  0.22014410202E+03  0.12508748477E+03 0.  0.
         23    2    1    2    0    0 -0.61380753017E+02  0.75812548519E+02  0.55637134360E+03  0.57208780308E+03  0.90665556299E+02 0.  0.
          5    1    3    3  502    0  0.83948663940E+02 -0.16844172319E+02  0.12384569870E+03  0.15061983204E+03  0.41800000000E+01 0.  1.
         -5    1    3    3    0  502 -0.22567910923E+02 -0.58968376201E+02  0.28802286720E+02  0.69524269974E+02  0.41800000000E+01 0.  1.
        -11    1    4    4    0    0 -0.36833291050E+02  0.82919514221E+02  0.51863919691E+03  0.52651586276E+03  0.00000000000E+00 0. -1.
         11    1    4    4    0    0 -0.24547461967E+02 -0.71069657015E+01  0.37732146692E+02  0.45571940320E+02  0.00000000000E+00 0.  1.
</event>
<event>
 8    1  0.5951278E-006  0.1329341E+03  0.7561462E-02  0.1223166E+00
         -1   -1    0    0    0  501 -0.00000000000E+00  0.00000000000E+00  0.43445171332E+02  0.43445171332E+02  0.00000000000E+00 0.  1.
          1   -1    0    0  501    0  0.00000000000E+00 -0.00000000000E+00 -0.57336207618E+03  0.57336207618E+03  0.00000000000E+00 0. -1.
         23    2    1    2    0    0 -0.92834364858E+02 -0.60969654569E+02 -0.23020128112E+03  0.28456056660E+03  0.12508624287E+03 0.  0.
         23    2    1    2    0    0  0.92834364858E+02  0.60969654569E+02 -0.29971562372E+03  0.33224668091E+03  0.90680117970E+02 0.  0.
          5    1    3    3  502    0 -0.84204631790E+02 -0.71523883197E+02 -0.24199563631E+03  0.26605534439E+03  0.41800000000E+01 0. -1.
         -5    1    3    3    0  502 -0.86297330678E+01  0.10554228628E+02  0.11794355191E+02  0.18505222212E+02  0.41800000000E+01 0. -1.
        -11    1    4    4    0    0  0.49651933443E+02  0.79762366982E+02 -0.22624688825E+03  0.24497959940E+03  0.00000000000E+00 0. -1.
         11    1    4    4    0    0  0.43182431415E+02 -0.18792712412E+02 -0.73468735478E+02  0.87267081511E+02  0.00000000000E+00 0.  1.
</event>
<event>
 8    1  0.5951278E-006  0.1078511E+03  0.7561462E-02  0.1264602E+00
          2   -1    0    0  501    0  0.00000000000E+00  0.00000000000E+00  0.17323086889E+02  0.17323086889E+02  0.00000000000E+00 0. -1.
         -2   -1    0    0    0  501 -0.00000000000E+00 -0.00000000000E+00 -0.84954877933E+03  0.84954877933E+03  0.00000000000E+00 0.  1.
         23    2    1    2    0    0  0.36682726762E+02 -0.33287725513E+02 -0.55394011094E+03  0.57004463610E+03  0.12509014960E+03 0.  0.
         23    2    1    2    0    0 -0.36682726762E+02  0.33287725513E+02 -0.27828558150E+03  0.29682723012E+03  0.90608192543E+02 0.  0.
          5    1    3    3  502    0  0.76847375052E+02 -0.39896465024E+02 -0.45127237499E+03  0.45952309605E+03  0.41800000000E+01 0. -1.
         -5    1    3    3    0  502 -0.40164648290E+02  0.66087395110E+01 -0.10266773595E+03  0.11052154005E+03  0.41800000000E+01 0. -1.
        -11    1    4    4    0    0 -0.17919591433E+02  0.55906238884E+02 -0.24709186284E+03  0.25397048644E+03  0.00000000000E+00 0.  1.
         11    1    4    4    0    0 -0.18763135329E+02 -0.22618513371E+02 -0.31193718665E+02  0.42856743678E+02  0.00000000000E+00 0. -1.
</event>
<event>
 8    1  0.5951278E-006  0.9608567E+02  0.7561462E-02  0.1288749E+00
         -3   -1    0    0    0  501 -0.00000000000E+00  0.00000000000E+00  0.30466796634E+02  0.30466796634E+02  0.00000000000E+00 0.  1.
          3   -1    0    0  501    0  0.00000000000E+00 -0.00000000000E+00 -0.39347675734E+03  0.39347675734E+03  0.00000000000E+00 0. -1.
         23    2    1    2    0    0  0.63311676656E+01 -0.22507611658E+02 -0.20797741772E+03  0.24381076300E+03  0.12506960305E+03 0.  0.
         23    2    1    2    0    0 -0.63311676656E+01  0.22507611658E+02 -0.15503254299E+03  0.18013279098E+03  0.88690792828E+02 0.  0.
          5    1    3    3  502    0 -0.21843930366E+02  0.41635814103E+02 -0.13291751895E+03  0.14105047874E+03  0.41800000000E+01 0. -1.
         -5    1    3    3    0  502  0.28175098031E+02 -0.64143425762E+02 -0.75059898775E+02  0.10276028426E+03  0.41800000000E+01 0. -1.
        -11    1    4    4    0    0 -0.74648647526E+01  0.48347227818E+02 -0.42932000453E+02  0.65087136259E+02  0.00000000000E+00 0.  1.
         11    1    4    4    0    0  0.11336970870E+01 -0.25839616160E+02 -0.11210054254E+03  0.11504565472E+03  0.00000000000E+00 0. -1.
</event>
<event>
 8    1  0.5951278E-006  0.1490554E+03  0.7561462E-02  0.1201639E+00
         -2   -1    0    0    0  501 -0.00000000000E+00  0.00000000000E+00  0.57875210750E+02  0.57875210750E+02  0.00000000000E+00 0.  1.
          2   -1    0    0  501    0  0.00000000000E+00 -0.00000000000E+00 -0.39554041021E+03  0.39554041021E+03  0.00000000000E+00 0. -1.
         23    2    1    2    0    0  0.51488275107E+02  0.91301352317E+02 -0.18887942990E+03  0.24961915290E+03  0.12508918038E+03 0.  0.
         23    2    1    2    0    0 -0.51488275107E+02 -0.91301352317E+02 -0.14878576956E+03  0.20379646806E+03  0.91699595202E+02 0.  0.
          5    1    3    3  502    0 -0.24446348992E+02  0.79195494616E+02 -0.12242962636E+03  0.14790549739E+03  0.41800000000E+01 0.  1.
         -5    1    3    3    0  502  0.75934624099E+02  0.12105857700E+02 -0.66449803533E+02  0.10171365551E+03  0.41800000000E+01 0.  1.
        -11    1    4    4    0    0 -0.57373405159E+02 -0.12023591580E+02 -0.76271660305E+02  0.96195844711E+02  0.00000000000E+00 0. -1.
         11    1    4    4    0    0  0.58851300517E+01 -0.79277760737E+02 -0.72514109255E+02  0.10760062334E+03  0.00000000000E+00 0.  1.
</event>
<event>
 8    1  0.5951278E-006  0.7024268E+02  0.7561462E-02  0.1359270E+00
         -1   -1    0    0    0  501 -0.00000000000E+00  0.00000000000E+00  0.27613004708E+03  0.27613004708E+03  0.00000000000E+00 0.  1.
          1   -1    0    0  501    0  0.00000000000E+00 -0.00000000000E+00 -0.48976032275E+02  0.48976032275E+02  0.00000000000E+00 0. -1.
         23    2    1    2    0    0  0.12325040055E+02  0.38893272071E+02  0.14984916671E+03  0.19941557061E+03  0.12508878373E+03 0.  0.
         23    2    1    2    0    0 -0.12325040055E+02 -0.38893272071E+02  0.77304848092E+02  0.12569050874E+03  0.90318720231E+02 0.  0.
          5    1    3    3  502    0  0.12330795466E+02  0.26695709103E+02 -0.15542270175E+02  0.33522290547E+02  0.41800000000E+01 0.  1.
         -5    1    3    3    0  502 -0.57554114955E-02  0.12197562968E+02  0.16539143689E+03  0.16589328007E+03  0.41800000000E+01 0.  1.
        -11    1    4    4    0    0  0.29509010082E+02 -0.46789062709E+02  0.33827262233E+02  0.64840432875E+02  0.00000000000E+00 0.  1.
         11    1    4    4    0    0 -0.41834050137E+02  0.78957906385E+01  0.43477585859E+02  0.60850075866E+02  0.00000000000E+00 0. -1.
</event>
<event>
 8    1  0.5951278E-006  0.1204396E+03  0.7561462E-02  0.1242374E+00
          3   -1    0    0  501    0  0.00000000000E+00  0.00000000000E+00  0.10913980971E+04  0.10913980971E+04  0.00000000000E+00 0. -1.
         -3   -1    0    0    0  501 -0.00000000000E+00 -0.00000000000E+00 -0.17190456844E+02  0.17190456844E+02  0.00000000000E+00 0.  1.
         23    2    1    2    0    0  0.50799376616E+02 -0.58123417280E+02  0.46024145839E+03  0.48314461803E+03  0.12509042173E+03 0.  0.
         23    2    1    2    0    0 -0.50799376616E+02  0.58123417280E+02  0.61396618190E+03  0.62544393595E+03  0.90921593687E+02 0.  0.
          5    1    3    3  502    0  0.61348857809E+02  0.12372899130E+01  0.96614962447E+02  0.11453006858E+03  0.41800000000E+01 0. -1.
         -5    1    3    3    0  502 -0.10549481193E+02 -0.59360707193E+02  0.36362649595E+03  0.36861454945E+03  0.41800000000E+01 0. -1.
        -11    1    4    4    0    0 -0.74050952849E+02  0.24379430085E+02  0.42404574675E+03  0.43115275201E+03  0.00000000000E+00 0.  1.
         11    1    4    4    0    0  0.23251576233E+02  0.33743987195E+02  0.18992043515E+03  0.19429118394E+03  0.00000000000E+00 0. -1.
</event>
<event>
 8    1  0.5951278E-006  0.1089283E+03  0.7561462E-02  0.1262567E+00
          1   -1    0    0  501    0  0.00000000000E+00  0.00000000000E+00  0.18961910776E+03  0.18961910776E+03  0.00000000000E+00 0. -1.
         -1   -1    0    0    0  501 -0.00000000000E+00 -0.00000000000E+00 -0.10359477677E+03  0.10359477677E+03  0.00000000000E+00 0.  1.
         23    2    1    2    0    0  0.68153419979E+02 -0.26413430931E+02  0.13895759870E+01  0.14488682372E+03  0.12509077815E+03 0.  0.
         23    2    1    2    0    0 -0.68153419979E+02  0.26413430931E+02  0.84634755000E+02  0.14832706081E+03  0.97443918365E+02 0.  0.
          5    1    3    3  502    0  0.17588712296E+02  0.24021821489E+02 -0.48925709994E+02  0.57424804800E+02  0.41800000000E+01 0.  1.
         -5    1    3    3    0  502  0.50564707683E+02 -0.50435252420E+02  0.50315285981E+02  0.87462018917E+02  0.41800000000E+01 0.  1.
        -11    1    4    4    0    0 -0.85970971161E+02  0.19568550924E+01  0.80490146546E+02  0.11778582621E+03  0.00000000000E+00 0.  1.
         11    1    4    4    0    0  0.17817551182E+02  0.24456575839E+02  0.41446084545E+01  0.30541234604E+02  0.00000000000E+00 0. -1.
</event>
<event>
 8    1  0.5951278E-006  0.7722261E+02  0.7561462E-02  0.1337123E+00
          2   -1    0    0  501    0  0.00000000000E+00  0.00000000000E+00  0.82143276632E+03  0.82143276632E+03  0.00000000000E+00 0.  1.
         -2   -1    0    0    0  501 -0.00000000000E+00 -0.00000000000E+00 -0.15564155649E+02  0.15564155649E+02  0.00000000000E+00 0. -1.
         23    2    1    2    0    0 -0.18134723177E+02 -0.25990067181E+02  0.45607457394E+03  0.47398299135E+03  0.12510598432E+03 0.  0.
         23    2    1    2    0    0  0.18134723177E+02  0.25990067181E+02  0.34979403673E+03  0.36301393062E+03  0.91754530778E+02 0.  0.
          5    1    3    3  502    0  0.10435966284E+02 -0.28701218135E+02  0.19561308462E+02  0.36507348623E+02  0.41800000000E+01 0. -1.
         -5    1    3    3    0  502 -0.28570689461E+02  0.27111509540E+01  0.43651326548E+03  0.43747564273E+03  0.41800000000E+01 0. -1.
        -11    1    4    4    0    0  0.26406261800E+02  0.56842699483E+02  0.26734223955E+03  0.27459107086E+03  0.00000000000E+00 0. -1.
         11    1    4    4    0    0 -0.82715386231E+01 -0.30852632301E+02  0.82451797178E+02  0.88422859764E+02  0.00000000000E+00 0.  1.
</event>
<event>
 8    1  0.5951278E-006  0.1449156E+03  0.7561462E-02  0.1206864E+00
         -2   -1    0    0    0  501 -0.00000000000E+00  0.00000000000E+00  0.24990081896E+03  0.24990081896E+03  0.00000000000E+00 0.  1.
          2   -1    0    0  501    0  0.00000000000E+00 -0.00000000000E+00 -0.12176516976E+03  0.12176516976E+03  0.00000000000E+00 0. -1.
         23    2    1    2    0    0  0.50298606338E+02  0.10410972229E+03  0.14383622212E+03  0.22292520095E+03  0.12505199858E+03 0.  0.
         23    2    1    2    0    0 -0.50298606338E+02 -0.10410972229E+03 -0.15700572923E+02  0.14874078777E+03  0.92241692745E+02 0.  0.
          5    1    3    3  502    0 -0.19365388466E+02  0.94935743291E+02  0.10333201449E+03  0.14171376519E+03  0.41800000000E+01 0. -1.
         -5    1    3    3    0  502  0.69663994804E+02  0.91739790031E+01  0.40504207628E+02  0.81211435761E+02  0.41800000000E+01 0. -1.
        -11    1    4    4    0    0 -0.18749986368E+02 -0.64449437523E+01  0.30347516081E+02  0.36250117532E+02  0.00000000000E+00 0.  1.
         11    1    4    4    0    0 -0.31548619970E+02 -0.97664778542E+02 -0.46048089004E+02  0.11249067024E+03  0.00000000000E+00 0. -1.
</event>
<event>
 8    1  0.5951278E-006  0.1089524E+03  0.7561462E-02  0.1262522E+00
         -2   -1    0    0    0  501 -0.00000000000E+00  0.00000000000E+00  0.41506910021E+02  0.41506910021E+02  0.00000000000E+00 0.  1.
          2   -1    0    0  501    0  0.00000000000E+00 -0.00000000000E+00 -0.40749101440E+03  0.40749101440E+03  0.00000000000E+00 0. -1.
         23    2    1    2    0    0 -0.87493421999E+01 -0.36171904852E+02 -0.97573883454E+02  0.16294883992E+03  0.12508678591E+03 0.  0.
         23    2    1    2    0    0  0.87493421999E+01  0.36171904852E+02 -0.26841022093E+03  0.28604908451E+03  0.91624638386E+02 0.  0.
          5    1    3    3  502    0 -0.94451823658E+01  0.44864313502E+02 -0.18407378799E+02  0.49581469222E+02  0.41800000000E+01 0. -1.
         -5    1    3    3    0  502  0.69584016581E+00 -0.81036218355E+02 -0.79166504655E+02  0.11336737069E+03  0.41800000000E+01 0. -1.
        -11    1    4    4    0    0  0.25550259602E+02  0.57880720186E+02 -0.23186651565E+03  0.24034365940E+03  0.00000000000E+00 0. -1.
         11    1    4    4    0    0 -0.16800917402E+02 -0.21708815333E+02 -0.36543705281E+02  0.45705425109E+02  0.00000000000E+00 0.  1.
</event>
<event>
 7    1  0.5951278E-006  0.1383853E+03  0.7561462E-02  0.1215518E+00
          1   -1    0    0  501    0  0.00000000000E+00  0.00000000000E+00  0.25182255211E+03  0.25182255211E+03  0.00000000000E+00 0. -1.
         -1   -1    0    0    0  501 -0.00000000000E+00 -0.00000000000E+00 -0.10256643479E+03  0.10256643479E+03  0.00000000000E+00 0.  1.
         23    2    1    2    0    0  0.64639993082E+02 -0.42084582781E+02  0.12858055302E+03  0.17624357362E+03  0.92625038795E+02 0.  0.
          5    1    1    2  502    0 -0.71326277712E+02  0.94183608635E+02  0.35454042960E+02  0.12341981847E+03  0.41800000000E+01 0. -1.
         -5    1    1    2    0  502  0.66862846302E+01 -0.52099025854E+02 -0.14778478664E+02  0.54725594823E+02  0.41800000000E+01 0.  1.
        -11    1    3    3    0    0  0.34498286116E+02 -0.61139273106E+02  0.12084336674E+03  0.13975429062E+03  0.00000000000E+00 0.  1.
         11    1    3    3    0    0  0.30141706966E+02  0.19054690325E+02  0.77371862829E+01  0.36489282999E+02  0.00000000000E+00 0. -1.
</event>
<event>
 8    1  0.5951278E-006  0.8946103E+02  0.7561462E-02  0.1304162E+00
         -1   -1    0    0    0  501 -0.00000000000E+00  0.00000000000E+00  0.15537120804E+03  0.15537120804E+03  0.00000000000E+00 0.  1.
          1   -1    0    0  501    0  0.00000000000E+00 -0.00000000000E+00 -0.13131722779E+03  0.13131722779E+03  0.00000000000E+00 0. -1.
         23    2    1    2    0    0  0.24955133040E+02  0.42760106737E+02  0.90074186124E+02  0.16190384003E+03  0.12509320132E+03 0.  0.
         23    2    1    2    0    0 -0.24955133040E+02 -0.42760106737E+02 -0.66020205871E+02  0.12478459580E+03  0.93602042562E+02 0.  0.
          5    1    3    3  502    0  0.30246795966E+02  0.54559540876E+02 -0.78746799152E+01  0.63016625986E+02  0.41800000000E+01 0.  1.
         -5    1    3    3    0  502 -0.52916629267E+01 -0.11799434139E+02  0.97948866039E+02  0.98887214041E+02  0.41800000000E+01 0.  1.
        -11    1    4    4    0    0  0.33322411692E+02 -0.58663418414E+01 -0.36467294570E+02  0.49745961251E+02  0.00000000000E+00 0. -1.
         11    1    4    4    0    0 -0.58277544731E+02 -0.36893764896E+02 -0.29552911301E+02  0.75038634546E+02  0.00000000000E+00 0.  1.
</event>
<event>
 6    1  0.5951278E-006  0.1153400E+03  0.7561462E-02  0.1250989E+00
          2   -1    0    0  501    0  0.00000000000E+00  0.00000000000E+00  0.73174854488E+03  0.73174854488E+03  0.00000000000E+00 0. -1.
         -2   -1    0    0    0  501 -0.00000000000E+00 -0.00000000000E+00 -0.19652335859E+02  0.19652335859E+02  0.00000000000E+00 0.  1.
          5    1    1    2  502    0  0.15482927784E+02 -0.67645252055E+02  0.15851302180E+03  0.17308798820E+03  0.41800000000E+01 0. -1.
         -5    1    1    2    0  502  0.27192314599E+02  0.10159870616E+03  0.28141497583E+03  0.30045562083E+03  0.41800000000E+01 0.  1.
        -11    1    1    2    0    0 -0.19049628758E+02 -0.22989252707E+02  0.14033510278E+03  0.14347590449E+03  0.00000000000E+00 0. -1.
         11    1    1    2    0    0 -0.23625613625E+02 -0.10964201395E+02  0.13183310861E+03  0.13438136722E+03  0.00000000000E+00 0.  1.
</event>
<event>
 8    1  0.5951278E-006  0.2208845E+03  0.7561462E-02  0.1133225E+00
         -3   -1    0    0    0  501 -0.00000000000E+00  0.00000000000E+00  0.17958429614E+03  0.17958429614E+03  0.00000000000E+00 0.  1.
          3   -1    0    0  501    0  0.00000000000E+00 -0.00000000000E+00 -0.31386822168E+03  0.31386822168E+03  0.00000000000E+00 0. -1.
         23    2    1    2    0    0  0.20519471607E+03 -0.87782323909E+01 -0.19315368555E+02  0.24125661422E+03  0.12509892715E+03 0.  0.
         23    2    1    2    0    0 -0.20519471607E+03  0.87782323909E+01 -0.11496855699E+03  0.25219590360E+03  0.90570833230E+02 0.  0.
          5    1    3    3  502    0 -0.78182958163E+01 -0.29911905377E+01  0.22224396195E+02  0.24113671569E+02  0.41800000000E+01 0. -1.
         -5    1    3    3    0  502  0.21301301189E+03 -0.57870418532E+01 -0.41539764749E+02  0.21714294265E+03  0.41800000000E+01 0. -1.
        -11    1    4    4    0    0 -0.12106295480E+03 -0.32810279923E+02 -0.38703874299E+02  0.13126592620E+03  0.00000000000E+00 0.  1.
         11    1    4    4    0    0 -0.84131761266E+02  0.41588512314E+02 -0.76264682688E+02  0.12092997741E+03  0.00000000000E+00 0. -1.
</event>
<event>
 8    1  0.5951278E-006  0.9381057E+02  0.7561462E-02  0.1293878E+00
         -1   -1    0    0    0  501 -0.00000000000E+00  0.00000000000E+00  0.55858117978E+02  0.55858117978E+02  0.00000000000E+00 0.  1.
          1   -1    0    0  501    0  0.00000000000E+00 -0.00000000000E+00 -0.32902875187E+03  0.32902875187E+03  0.00000000000E+00 0. -1.
         23    2    1    2    0    0 -0.17177011967E+02 -0.69124309565E+02 -0.96757374317E+02  0.17344324590E+03  0.12508936865E+03 0.  0.
         23    2    1    2    0    0  0.17177011967E+02  0.69124309565E+02 -0.17641325958E+03  0.21144362395E+03  0.92268889895E+02 0.  0.
          5    1    3    3  502    0 -0.41783883864E+02 -0.77149357365E+01 -0.98263536535E+02  0.10713826672E+03  0.41800000000E+01 0. -1.
         -5    1    3    3    0  502  0.24606871897E+02 -0.61409373828E+02  0.15061622181E+01  0.66304979173E+02  0.41800000000E+01 0. -1.
        -11    1    4    4    0    0 -0.79999843981E+01  0.36831951528E+02 -0.85366759460E+01  0.38645403866E+02  0.00000000000E+00 0.  1.
         11    1    4    4    0    0  0.25176996365E+02  0.32292358037E+02 -0.16787658363E+03  0.17279822008E+03  0.00000000000E+00 0. -1.
</event>
<event>
 8    1  0.5951278E-006  0.8853139E+02  0.7561462E-02  0.1306448E+00
         -1   -1    0    0    0  501 -0.00000000000E+00  0.00000000000E+00  0.72114303636E+02  0.72114303636E+02  0.00000000000E+00 0.  1.
          1   -1    0    0  501    0  0.00000000000E+00 -0.00000000000E+00 -0.21158498987E+03  0.21158498987E+03  0.00000000000E+00 0. -1.
         23    2    1    2    0    0  0.52553039040E+02 -0.11714248921E+02 -0.50926513382E+02  0.14539724644E+03  0.12509118262E+03 0.  0.
         23    2    1    2    0    0 -0.52553039040E+02  0.11714248921E+02 -0.88544172850E+02  0.13830204706E+03  0.91587882031E+02 0.  0.
          5    1    3    3  502    0  0.39784550822E+02  0.46171914670E+02 -0.59593703437E+02  0.85343646968E+02  0.41800000000E+01 0. -1.
         -5    1    3    3    0  502  0.12768488218E+02 -0.57886163591E+02  0.86671900552E+01  0.60053599477E+02  0.41800000000E+01 0. -1.
        -11    1    4    4    0    0 -0.43188744763E+02  0.22720659545E+01 -0.10708303754E+03  0.11548682560E+03  0.00000000000E+00 0. -1.
         11    1    4    4    0    0 -0.93642942778E+01  0.94421829667E+01  0.18538864688E+02  0.22815221463E+02  0.00000000000E+00 0.  1.
</event>
<event>
 7    1  0.5951278E-006  0.1216941E+03  0.7561462E-02  0.1240328E+00
         -1   -1    0    0    0  501 -0.00000000000E+00  0.00000000000E+00  0.28983999762E+02  0.28983999762E+02  0.00000000000E+00 0.  1.
          1   -1    0    0  501    0  0.00000000000E+00 -0.00000000000E+00 -0.51804718337E+03  0.51804718337E+03  0.00000000000E+00 0. -1.
         23    2    1    2    0    0 -0.18239490649E+02  0.12563729989E+02 -0.20684295153E+03  0.22895801105E+03  0.95641193502E+02 0.  0.
          5    1    1    2  502    0  0.14353962078E+02 -0.78224051822E+02 -0.13436765742E+03  0.15619596112E+03  0.41800000000E+01 0. -1.
         -5    1    1    2    0  502  0.38855285714E+01  0.65660321832E+02 -0.14785257465E+03  0.16187721096E+03  0.41800000000E+01 0.  1.
        -11    1    3    3    0    0  0.11210928628E+02 -0.37838764907E+02 -0.74340540039E+02  0.84166340919E+02  0.00000000000E+00 0. -1.
         11    1    3    3    0    0 -0.29450419278E+02  0.50402494897E+02 -0.13250241149E+03  0.14479167013E+03  0.00000000000E+00 0.  1.
</event>
<event>
 8    1  0.5951278E-006  0.9580322E+02  0.7561462E-02  0.1289377E+00
          1   -1    0    0  501    0  0.00000000000E+00  0.00000000000E+00  0.87324142233E+02  0.87324142233E+02  0.00000000000E+00 0. -1.
         -1   -1    0    0    0  501 -0.00000000000E+00 -0.00000000000E+00 -0.16805896868E+03  0.16805896868E+03  0.00000000000E+00 0.  1.
         23    2    1    2    0    0  0.16187493241E+02  0.31185266748E+02 -0.82081541645E+02  0.15367872320E+03  0.12508083261E+03 0.  0.
         23    2    1    2    0    0 -0.16187493241E+02 -0.31185266748E+02  0.13467152012E+01  0.10170438771E+03  0.95432767108E+02 0.  0.
          5    1    3    3  502    0  0.58386433776E+02  0.34373676199E+02 -0.87571599583E+02  0.11080064403E+03  0.41800000000E+01 0.  1.
         -5    1    3    3    0  502 -0.42198940535E+02 -0.31884094516E+01  0.54900579378E+01  0.42878079169E+02  0.41800000000E+01 0.  1.
        -11    1    4    4    0    0 -0.42805763094E+02 -0.33675679672E+02 -0.28635800808E+02  0.61533680561E+02  0.00000000000E+00 0.  1.
         11    1    4    4    0    0  0.26618269853E+02  0.24904129245E+01  0.29982516009E+02  0.40170707148E+02  0.00000000000E+00 0. -1.
</event>
<event>
 8    1  0.5951278E-006  0.1102819E+03  0.7561462E-02  0.1260049E+00
          2   -1    0    0  501    0  0.00000000000E+00  0.00000000000E+00  0.46188091323E+03  0.46188091323E+03  0.00000000000E+00 0. -1.
         -2   -1    0    0    0  501 -0.00000000000E+00 -0.00000000000E+00 -0.29507984949E+02  0.29507984949E+02  0.00000000000E+00 0.  1.
         23    2    1    2    0    0  0.30656399954E+02 -0.18057212827E+02  0.19304124369E+03  0.23276237672E+03  0.12509006538E+03 0.  0.
         23    2    1    2    0    0 -0.30656399954E+02  0.18057212827E+02  0.23933168460E+03  0.25862652147E+03  0.91335341245E+02 0.  0.
          5    1    3    3  502    0  0.70693005139E+02 -0.38073812942E+02  0.15168661978E+03  0.17167824331E+03  0.41800000000E+01 0.  1.
         -5    1    3    3    0  502 -0.40036605185E+02  0.20016600115E+02  0.41354623909E+02  0.61084133403E+02  0.41800000000E+01 0.  1.
        -11    1    4    4    0    0  0.30026923945E+02  0.17014677999E+02  0.11827693019E+03  0.12320936508E+03  0.00000000000E+00 0.  1.
         11    1    4    4    0    0 -0.60683323899E+02  0.10425348290E+01  0.12105475441E+03  0.13541715638E+03  0.00000000000E+00 0. -1.
</event>
<event>
 8    1  0.5951278E-006  0.1134680E+03  0.7561462E-02  0.1254279E+00
          2   -1    0    0  501    0  0.00000000000E+00  0.00000000000E+00  0.13198475159E+03  0.13198475159E+03  0.00000000000E+00 0. -1.
         -2   -1    0    0    0  501 -0.00000000000E+00 -0.00000000000E+00 -0.17369954417E+03  0.17369954417E+03  0.00000000000E+00 0.  1.
         23    2    1    2    0    0  0.94264184608E+02 -0.17266745115E+02 -0.66331311032E+02  0.17096490694E+03  0.12508109208E+03 0.  0.
         23    2    1    2    0    0 -0.94264184608E+02  0.17266745115E+02  0.24616518451E+02  0.13471938881E+03  0.91430103108E+02 0.  0.
          5    1    3    3  502    0  0.90902794523E+02 -0.30273424408E+02 -0.97504388848E+02  0.13676394453E+03  0.41800000000E+01 0.  1.
         -5    1    3    3    0  502  0.33613900850E+01  0.13006679294E+02  0.31173077817E+02  0.34200962415E+02  0.41800000000E+01 0.  1.
        -11    1    4    4    0    0 -0.85657219683E+02 -0.11967622611E+02 -0.11737038613E+02  0.87281964633E+02  0.00000000000E+00 0.  1.
         11    1    4    4    0    0 -0.86069649256E+01  0.29234367725E+02  0.36353557064E+02  0.47437424179E+02  0.00000000000E+00 0. -1.
</event>
<event>
 8    1  0.6606079E-006  0.4175772E+03  0.7561462E-02  0.1037858E+00
          2   -1    0    0  501    0  0.00000000000E+00  0.00000000000E+00  0.33163437640E+03  0.33163437640E+03  0.00000000000E+00 0. -1.
         -2   -1    0    0    0  501 -0.00000000000E+00 -0.00000000000E+00 -0.55479384302E+03  0.55479384302E+03  0.00000000000E+00 0.  1.
         23    2    1    2    0    0  0.36502291377E+03 -0.18318089564E+03 -0.37729206166E+02  0.42879904915E+03  0.12509261949E+03 0.  0.
         23    2    1    2    0    0 -0.36502291377E+03  0.18318089564E+03 -0.18543026045E+03  0.45762917027E+03  0.90791562857E+02 0.  0.
          5    1    3    3  502    0  0.27365616945E+03 -0.88558864718E+02  0.12519806821E+02  0.28793157097E+03  0.41800000000E+01 0.  1.
         -5    1    3    3    0  502  0.91366744321E+02 -0.94622030919E+02 -0.50249012987E+02  0.14086747818E+03  0.41800000000E+01 0.  1.
        -11    1    4    4    0    0 -0.13827253855E+03  0.27867326488E+02 -0.86828893649E+02  0.16563556253E+03  0.00000000000E+00 0. -1.
         11    1    4    4    0    0 -0.22675037522E+03  0.15531356915E+03 -0.98601366797E+02  0.29199360774E+03  0.00000000000E+00 0.  1.
</event>
<event>
 8    1  0.5951278E-006  0.1433397E+03  0.7561462E-02  0.1208904E+00
         -1   -1    0    0    0  501 -0.00000000000E+00  0.00000000000E+00  0.36800831812E+02  0.36800831812E+02  0.00000000000E+00 0.  1.
          1   -1    0    0  501    0  0.00000000000E+00 -0.00000000000E+00 -0.96443892248E+03  0.96443892248E+03  0.00000000000E+00 0. -1.
         23    2    1    2    0    0 -0.13003288473E+03  0.30304286453E+02 -0.28459264021E+03  0.33833015855E+03  0.12508966558E+03 0.  0.
         23    2    1    2    0    0  0.13003288473E+03 -0.30304286453E+02 -0.64304545046E+03  0.66290959574E+03  0.90082073040E+02 0.  0.
          5    1    3    3  502    0 -0.10882341970E+03  0.44801881529E+02 -0.28887171031E+03  0.31195205189E+03  0.41800000000E+01 0. -1.
         -5    1    3    3    0  502 -0.21209465027E+02 -0.14497595075E+02  0.42790701009E+01  0.26378106654E+02  0.41800000000E+01 0. -1.
        -11    1    4    4    0    0  0.12455903731E+03 -0.13583413234E+02 -0.62598709433E+03  0.63840371643E+03  0.00000000000E+00 0. -1.
         11    1    4    4    0    0  0.54738474177E+01 -0.16720873219E+02 -0.17058356126E+02  0.24505879304E+02  0.00000000000E+00 0.  1.
</event>
<event>
 8    1  0.5951278E-006  0.1065359E+03  0.7561462E-02  0.1267123E+00
         -2   -1    0    0    0  501 -0.00000000000E+00  0.00000000000E+00  0.25954303763E+02  0.25954303763E+02  0.00000000000E+00 0.  1.
          2   -1    0    0  501    0  0.00000000000E+00 -0.00000000000E+00 -0.51000716163E+03  0.51000716163E+03  0.00000000000E+00 0. -1.
         23    2    1    2    0    0  0.10999617623E+02  0.29621702312E+02 -0.20082095018E+03  0.23869444117E+03  0.12509014900E+03 0.  0.
         23    2    1    2    0    0 -0.10999617623E+02 -0.29621702312E+02 -0.28323190768E+03  0.29726702422E+03  0.84551365008E+02 0.  0.
          5    1    3    3  502    0  0.77600016706E+01  0.76323003090E+02 -0.90093054348E+02  0.11840459986E+03  0.41800000000E+01 0. -1.
         -5    1    3    3    0  502  0.32396159524E+01 -0.46701300778E+02 -0.11072789583E+03  0.12028984131E+03  0.41800000000E+01 0. -1.
        -11    1    4    4    0    0  0.11396155842E+01  0.29178912219E+02 -0.72827078938E+02  0.78463310334E+02  0.00000000000E+00 0.  1.
         11    1    4    4    0    0 -0.12139233207E+02 -0.58800614531E+02 -0.21040482874E+03  0.21880371389E+03  0.00000000000E+00 0. -1.
</event>
<event>
 7    1  0.5951278E-006  0.1520665E+03  0.7561462E-02  0.1197956E+00
         -1   -1    0    0    0  501 -0.00000000000E+00  0.00000000000E+00  0.74094865109E+02  0.74094865109E+02  0.00000000000E+00 0.  1.
          1   -1    0    0  501    0  0.00000000000E+00 -0.00000000000E+00 -0.44801142872E+03  0.44801142872E+03  0.00000000000E+00 0. -1.
         23    2    1    2    0    0  0.68600479814E+02 -0.10318453210E+03 -0.12982265888E+03  0.21873142835E+03  0.12504575760E+03 0.  0.
          5    1    3    3  502    0  0.75941578556E+02 -0.12301418961E+03 -0.13355045545E+03  0.19685733603E+03  0.41800000000E+01 0. -1.
         -5    1    3    3    0  502 -0.73410987427E+01  0.19829657507E+02  0.37277965687E+01  0.21874092321E+02  0.41800000000E+01 0. -1.
        -11    1    1    2    0    0 -0.53657469929E+02  0.26537228942E+02 -0.20964474580E+03  0.21802354928E+03  0.00000000000E+00 0. -1.
         11    1    1    2    0    0 -0.14943009885E+02  0.76647303159E+02 -0.34449158936E+02  0.85351316202E+02  0.00000000000E+00 0.  1.
</event>
<event>
 8    1  0.5951278E-006  0.1146473E+03  0.7561462E-02  0.1252198E+00
          1   -1    0    0  501    0  0.00000000000E+00  0.00000000000E+00  0.36679376312E+03  0.36679376312E+03  0.00000000000E+00 0. -1.
         -1   -1    0    0    0  501 -0.00000000000E+00 -0.00000000000E+00 -0.47725131648E+02  0.47725131648E+02  0.00000000000E+00 0.  1.
         23    2    1    2    0    0  0.29397790288E+02 -0.66904131498E+02  0.13758921642E+03  0.19979808537E+03  0.12509232414E+03 0.  0.
         23    2    1    2    0    0 -0.29397790288E+02  0.66904131498E+02  0.18147941505E+03  0.21472080939E+03  0.88486467960E+02 0.  0.
          5    1    3    3  502    0  0.44075775622E+02  0.50725366096E+01  0.11421004145E+03  0.12259612797E+03  0.41800000000E+01 0. -1.
         -5    1    3    3    0  502 -0.14677985334E+02 -0.71976668108E+02  0.23379174965E+02  0.77201957406E+02  0.41800000000E+01 0. -1.
        -11    1    4    4    0    0  0.24692948496E+02 -0.54059713721E+00  0.65953461893E+02  0.70426508407E+02  0.00000000000E+00 0. -1.
         11    1    4    4    0    0 -0.54090738784E+02  0.67444728635E+02  0.11552595316E+03  0.14429430098E+03  0.00000000000E+00 0.  1.
</event>
<event>
 8    1  0.5951278E-006  0.8972804E+02  0.7561462E-02  0.1303512E+00
         -1   -1    0    0    0  501 -0.00000000000E+00  0.00000000000E+00  0.51452584616E+02  0.51452584616E+02  0.00000000000E+00 0.  1.
          1   -1    0    0  501    0  0.00000000000E+00 -0.00000000000E+00 -0.33078708917E+03  0.33078708917E+03  0.00000000000E+00 0. -1.
         23    2    1    2    0    0  0.68557763964E+02 -0.75060441838E+01 -0.12088928537E+03  0.18713105650E+03  0.12508918934E+03 0.  0.
         23    2    1    2    0    0 -0.68557763964E+02  0.75060441838E+01 -0.15844521918E+03  0.19510861728E+03  0.90586849808E+02 0.  0.
          5    1    3    3  502    0  0.13332732137E+02  0.94213962569E+01 -0.12771141212E+03  0.12881848330E+03  0.41800000000E+01 0. -1.
         -5    1    3    3    0  502  0.55225031827E+02 -0.16927440441E+02  0.68221267472E+01  0.58312573202E+02  0.41800000000E+01 0. -1.
        -11    1    4    4    0    0 -0.20245678966E+02  0.41121712876E+02 -0.10897929173E+03  0.11822592276E+03  0.00000000000E+00 0. -1.
         11    1    4    4    0    0 -0.48312084998E+02 -0.33615668693E+02 -0.49465927448E+02  0.76882694521E+02  0.00000000000E+00 0.  1.
</event>
<event>
 8    1  0.5951278E-006  0.7836365E+02  0.7561462E-02  0.1333760E+00
          1   -1    0    0  501    0  0.00000000000E+00  0.00000000000E+00  0.47605862879E+02  0.47605862879E+02  0.00000000000E+00 0. -1.
         -1   -1    0    0    0  501 -0.00000000000E+00 -0.00000000000E+00 -0.85479012384E+03  0.85479012384E+03  0.00000000000E+00 0.  1.
         23    2    1    2    0    0  0.23738685051E+02  0.31237077422E+02 -0.79222010897E+03  0.80123991768E+03  0.11328470530E+03 0.  0.
         23    2    1    2    0    0 -0.23738685051E+02 -0.31237077422E+02 -0.14964151990E+02  0.10115606904E+03  0.92029040440E+02 0.  0.
          5    1    3    3  502    0  0.23277548498E+02 -0.16349258234E+01 -0.29704813630E+02  0.38004810213E+02  0.41800000000E+01 0. -1.
         -5    1    3    3    0  502  0.46113655217E+00  0.32872003245E+02 -0.76251529534E+03  0.76323510747E+03  0.41800000000E+01 0.  1.
        -11    1    4    4    0    0  0.25208368341E+02 -0.42721913144E+02 -0.45543942253E+01  0.49813313520E+02  0.00000000000E+00 0.  1.
         11    1    4    4    0    0 -0.48947053392E+02  0.11484835721E+02 -0.10409757765E+02  0.51342755516E+02  0.00000000000E+00 0. -1.
</event>
<event>
 8    1  0.5951278E-006  0.6187417E+02  0.7561462E-02  0.1390131E+00
          1   -1    0    0  501    0  0.00000000000E+00  0.00000000000E+00  0.11128405169E+03  0.11128405169E+03  0.00000000000E+00 0. -1.
         -1   -1    0    0    0  501 -0.00000000000E+00 -0.00000000000E+00 -0.11597110242E+03  0.11597110242E+03  0.00000000000E+00 0.  1.
         23    2    1    2    0    0  0.13690645767E+02 -0.12154797837E+02 -0.27443312777E+02  0.12936310663E+03  0.12508599062E+03 0.  0.
         23    2    1    2    0    0 -0.13690645767E+02  0.12154797837E+02  0.22756262049E+02  0.97892047483E+02  0.93433573227E+02 0.  0.
          5    1    3    3  502    0  0.29754222358E+02 -0.40388057349E+02 -0.63250558505E+02  0.80836962312E+02  0.41800000000E+01 0. -1.
         -5    1    3    3    0  502 -0.16063576591E+02  0.28233259512E+02  0.35807245729E+02  0.48526144317E+02  0.41800000000E+01 0. -1.
        -11    1    4    4    0    0 -0.22239406808E+02 -0.37963878125E+01 -0.32603998372E+02  0.39648763984E+02  0.00000000000E+00 0.  1.
         11    1    4    4    0    0  0.85487610402E+01  0.15951185649E+02  0.55360260421E+02  0.58243283499E+02  0.00000000000E+00 0. -1.
</event>
<event>
 8    1  0.5951278E-006  0.1061460E+03  0.7561462E-02  0.1267878E+00
          2   -1    0    0  501    0  0.00000000000E+00  0.00000000000E+00  0.96746562024E+02  0.96746562024E+02  0.00000000000E+00 0.  1.
         -2   -1    0    0    0  501 -0.00000000000E+00 -0.00000000000E+00 -0.18807720886E+03  0.18807720886E+03  0.00000000000E+00 0. -1.
         23    2    1    2    0    0  0.23248160077E+02 -0.73082508883E+02 -0.76037539676E+02  0.16525838318E+03  0.12508835165E+03 0.  0.
         23    2    1    2    0    0 -0.23248160077E+02  0.73082508883E+02 -0.15293107157E+02  0.11956538770E+03  0.90445965961E+02 0.  0.
          5    1    3    3  502    0 -0.11519313385E+02 -0.55757706354E+02  0.20860627414E+02  0.60780379851E+02  0.41800000000E+01 0. -1.
         -5    1    3    3    0  502  0.34767473461E+02 -0.17324802529E+02 -0.96898167090E+02  0.10447800333E+03  0.41800000000E+01 0. -1.
        -11    1    4    4    0    0 -0.48265822373E+02  0.76935145218E+02 -0.17084837215E+01  0.90837905611E+02  0.00000000000E+00 0.  1.
         11    1    4    4    0    0  0.25017662296E+02 -0.38526363353E+01 -0.13584623435E+02  0.28727482093E+02  0.00000000000E+00 0. -1.
</event>
<event>
 8    1  0.5951278E-006  0.1086664E+03  0.7561462E-02  0.1263060E+00
          1   -1    0    0  501    0  0.00000000000E+00  0.00000000000E+00  0.27344191811E+03  0.27344191811E+03  0.00000000000E+00 0. -1.
         -1   -1    0    0    0  501 -0.00000000000E+00 -0.00000000000E+00 -0.49402059499E+02  0.49402059499E+02  0.00000000000E+00 0.  1.
         23    2    1    2    0    0  0.27949217569E+01 -0.40893159123E+02  0.12283315109E+03  0.18004082388E+03  0.12508658283E+03 0.  0.
         23    2    1    2    0    0 -0.27949217569E+01  0.40893159123E+02  0.10120670752E+03  0.14280315373E+03  0.92031956507E+02 0.  0.
          5    1    3    3  502    0 -0.60694309103E+02 -0.25679701730E+02  0.57062655678E+02  0.87274654462E+02  0.41800000000E+01 0.  1.
         -5    1    3    3    0  502  0.63489230860E+02 -0.15213457394E+02  0.65770495416E+02  0.92766169417E+02  0.41800000000E+01 0.  1.
        -11    1    4    4    0    0  0.14354173463E+02 -0.18865867614E+02  0.68641406349E+02  0.72619597370E+02  0.00000000000E+00 0. -1.
         11    1    4    4    0    0 -0.17149095219E+02  0.59759026738E+02  0.32565301172E+02  0.70183556364E+02  0.00000000000E+00 0.  1.
</event>
<event>
 8    1  0.5951278E-006  0.1098369E+03  0.7561462E-02  0.1260872E+00
          2   -1    0    0  501    0  0.00000000000E+00  0.00000000000E+00  0.14304384466E+03  0.14304384466E+03  0.00000000000E+00 0. -1.
         -2   -1    0    0    0  501 -0.00000000000E+00 -0.00000000000E+00 -0.11556316615E+03  0.11556316615E+03  0.00000000000E+00 0.  1.
         23    2    1    2    0    0  0.37351643030E+02 -0.53153133390E+02  0.40138636647E+02  0.14655810392E+03  0.12509103424E+03 0.  0.
         23    2    1    2    0    0 -0.37351643030E+02  0.53153133390E+02 -0.12657958135E+02  0.11204890689E+03  0.90412016927E+02 0.  0.
          5    1    3    3  502    0  0.25651334938E+02  0.33321428701E+02  0.41438921264E+02  0.59185852958E+02  0.41800000000E+01 0.  1.
         -5    1    3    3    0  502  0.11700308091E+02 -0.86474562091E+02 -0.13002846169E+01  0.87372250963E+02  0.41800000000E+01 0.  1.
        -11    1    4    4    0    0 -0.31977544020E+01 -0.14188978223E+02  0.24038323203E+02  0.28096151313E+02  0.00000000000E+00 0. -1.
         11    1    4    4    0    0 -0.34153888628E+02  0.67342111613E+02 -0.36696281337E+02  0.83952755576E+02  0.00000000000E+00 0.  1.
</event>
<event>
 8    1  0.5951278E-006  0.1892756E+03  0.7561462E-02  0.1159116E+00
         -1   -1    0    0    0  501 -0.00000000000E+00  0.00000000000E+00  0.21577591496E+03  0.21577591496E+03  0.00000000000E+00 0.  1.
          1   -1    0    0  501    0  0.00000000000E+00 -0.00000000000E+00 -0.20664340601E+03  0.20664340601E+03  0.00000000000E+00 0. -1.
         23    2    1    2    0    0 -0.14731262794E+03  0.89582396984E+02  0.60577710640E+02  0.22146093814E+03  0.12509704990E+03 0.  0.
         23    2    1    2    0    0  0.14731262794E+03 -0.89582396984E+02 -0.51445201682E+02  0.20095838283E+03  0.89507802208E+02 0.  0.
          5    1    3    3  502    0 -0.47842777672E+02  0.74073409175E+02 -0.22236314826E+02  0.91036956337E+02  0.41800000000E+01 0.  1.
         -5    1    3    3    0  502 -0.99469850264E+02  0.15508987809E+02  0.82814025466E+02  0.13042398180E+03  0.41800000000E+01 0.  1.
        -11    1    4    4    0    0  0.34784502923E+02 -0.65904703082E+02 -0.42090631952E+02  0.85586288798E+02  0.00000000000E+00 0.  1.
         11    1    4    4    0    0  0.11252812501E+03 -0.23677693902E+02 -0.93545697298E+01  0.11537209404E+03  0.00000000000E+00 0. -1.
</event>
<event>
 8    1  0.5951278E-006  0.8947933E+02  0.7561462E-02  0.1304118E+00
         -2   -1    0    0    0  501 -0.00000000000E+00  0.00000000000E+00  0.80394182243E+02  0.80394182243E+02  0.00000000000E+00 0.  1.
          2   -1    0    0  501    0  0.00000000000E+00 -0.00000000000E+00 -0.18630026494E+03  0.18630026494E+03  0.00000000000E+00 0. -1.
         23    2    1    2    0    0  0.43028476602E+02 -0.27872949703E+02 -0.31305492343E+02  0.13877454806E+03  0.12509992092E+03 0.  0.
         23    2    1    2    0    0 -0.43028476602E+02  0.27872949703E+02 -0.74600590351E+02  0.12791989912E+03  0.90387506809E+02 0.  0.
          5    1    3    3  502    0  0.78896588774E+02 -0.11846050351E+02  0.11282698387E+02  0.80683160027E+02  0.41800000000E+01 0.  1.
         -5    1    3    3    0  502 -0.35868112172E+02 -0.16026899353E+02 -0.42588190729E+02  0.58091388030E+02  0.41800000000E+01 0.  1.
        -11    1    4    4    0    0 -0.26122432290E+02  0.32818897876E+02  0.86480160623E+01  0.42828141547E+02  0.00000000000E+00 0.  1.
         11    1    4    4    0    0 -0.16906044313E+02 -0.49459481731E+01 -0.83248606414E+02  0.85091757576E+02  0.00000000000E+00 0. -1.
</event>
<event>
 8    1  0.5951278E-006  0.1208032E+03  0.7561462E-02  0.1241778E+00
         -1   -1    0    0    0  501 -0.00000000000E+00  0.00000000000E+00  0.95440558149E+02  0.95440558149E+02  0.00000000000E+00 0.  1.
          1   -1    0    0  501    0  0.00000000000E+00 -0.00000000000E+00 -0.29106558582E+03  0.29106558582E+03  0.00000000000E+00 0. -1.
         23    2    1    2    0    0  0.17109214417E+02 -0.83798787898E+02  0.33772865936E+01  0.15157658040E+03  0.12509632924E+03 0.  0.
         23    2    1    2    0    0 -0.17109214417E+02  0.83798787898E+02 -0.19900231426E+03  0.23492956356E+03  0.90967118701E+02 0.  0.
          5    1    3    3  502    0  0.56453707876E+02 -0.90927422228E+02  0.18362943675E+02  0.10867146519E+03  0.41800000000E+01 0. -1.
         -5    1    3    3    0  502 -0.39344493459E+02  0.71286343302E+01 -0.14985657082E+02  0.42905115210E+02  0.41800000000E+01 0. -1.
        -11    1    4    4    0    0  0.12133394282E+02  0.38591277443E+02 -0.14891349239E+02  0.43107519456E+02  0.00000000000E+00 0.  1.
         11    1    4    4    0    0 -0.29242608699E+02  0.45207510455E+02 -0.18411096502E+03  0.19182204411E+03  0.00000000000E+00 0. -1.
</event>
<event>
 8    1  0.5951278E-006  0.9739662E+02  0.7561462E-02  0.1285868E+00
         -2   -1    0    0    0  501 -0.00000000000E+00  0.00000000000E+00  0.18773032743E+03  0.18773032743E+03  0.00000000000E+00 0.  1.
          2   -1    0    0  501    0  0.00000000000E+00 -0.00000000000E+00 -0.86596692412E+02  0.86596692412E+02  0.00000000000E+00 0. -1.
         23    2    1    2    0    0  0.17896976187E+02 -0.40024498592E+01  0.12691650875E+03  0.17914119928E+03  0.12508975867E+03 0.  0.
         23    2    1    2    0    0 -0.17896976187E+02  0.40024498592E+01 -0.25782873732E+02  0.95185820562E+02  0.89773395261E+02 0.  0.
          5    1    3    3  502    0  0.61792689623E+02  0.63871087020E+01  0.11734408481E+03  0.13283914441E+03  0.41800000000E+01 0. -1.
         -5    1    3    3    0  502 -0.43895713436E+02 -0.10389558561E+02  0.95724239457E+01  0.46302054871E+02  0.41800000000E+01 0. -1.
        -11    1    4    4    0    0 -0.25315608682E+02  0.41713960248E+02  0.19585372054E+00  0.48795213712E+02  0.00000000000E+00 0.  1.
         11    1    4    4    0    0  0.74186324948E+01 -0.37711510389E+02 -0.25978727453E+02  0.46390606850E+02  0.00000000000E+00 0. -1.
</event>
<event>
 8    1  0.5951278E-006  0.1451324E+03  0.7561462E-02  0.1206585E+00
         -1   -1    0    0    0  501 -0.00000000000E+00  0.00000000000E+00  0.26947545973E+03  0.26947545973E+03  0.00000000000E+00 0.  1.
          1   -1    0    0  501    0  0.00000000000E+00 -0.00000000000E+00 -0.10555058409E+03  0.10555058409E+03  0.00000000000E+00 0. -1.
         23    2    1    2    0    0 -0.76574882582E+02  0.85215586858E+02  0.15131740027E+03  0.22730979762E+03  0.12508948631E+03 0.  0.
         23    2    1    2    0    0  0.76574882582E+02 -0.85215586858E+02  0.12607475366E+02  0.14771624620E+03  0.92389025707E+02 0.  0.
          5    1    3    3  502    0  0.12130090051E+02 -0.18115758347E+02 -0.18947264289E+01  0.22279635844E+02  0.41800000000E+01 0.  1.
         -5    1    3    3    0  502 -0.88704972633E+02  0.10333134520E+03  0.15321212670E+03  0.20503016178E+03  0.41800000000E+01 0.  1.
        -11    1    4    4    0    0  0.83731231145E+02 -0.53634242009E+02  0.38118770274E+02  0.10649221395E+03  0.00000000000E+00 0.  1.
         11    1    4    4    0    0 -0.71563485633E+01 -0.31581344849E+02 -0.25511294907E+02  0.41224032251E+02  0.00000000000E+00 0. -1.
</event>
<event>
 8    1  0.5951278E-006  0.1906249E+03  0.7561462E-02  0.1157899E+00
         -2   -1    0    0    0  501 -0.00000000000E+00  0.00000000000E+00  0.42843109273E+02  0.42843109273E+02  0.00000000000E+00 0. -1.
          2   -1    0    0  501    0  0.00000000000E+00 -0.00000000000E+00 -0.90530334938E+03  0.90530334938E+03  0.00000000000E+00 0.  1.
         23    2    1    2    0    0 -0.94270968273E+02  0.13204030849E+03 -0.38874892495E+03  0.43942515463E+03  0.12508829421E+03 0.  0.
         23    2    1    2    0    0  0.94270968273E+02 -0.13204030849E+03 -0.47371131516E+03  0.50872130402E+03  0.89851524936E+02 0.  0.
          5    1    3    3  502    0 -0.42551529729E+02  0.14061395935E+03 -0.23753290215E+03  0.27932466818E+03  0.41800000000E+01 0.  1.
         -5    1    3    3    0  502 -0.51719438545E+02 -0.85736508628E+01 -0.15121602279E+03  0.16010048645E+03  0.41800000000E+01 0.  1.
        -11    1    4    4    0    0  0.13683353783E+02 -0.89540102080E+02 -0.18515959677E+03  0.20612797075E+03  0.00000000000E+00 0. -1.
         11    1    4    4    0    0  0.80587614490E+02 -0.42500206409E+02 -0.28855171839E+03  0.30259333327E+03  0.00000000000E+00 0.  1.
</event>
<event>
 8    1  0.5951278E-006  0.1351675E+03  0.7561462E-02  0.1219983E+00
          1   -1    0    0  501    0  0.00000000000E+00  0.00000000000E+00  0.59990463724E+03  0.59990463724E+03  0.00000000000E+00 0. -1.
         -1   -1    0    0    0  501 -0.00000000000E+00 -0.00000000000E+00 -0.47371819977E+02  0.47371819977E+02  0.00000000000E+00 0.  1.
         23    2    1    2    0    0  0.11710636389E+03 -0.52685120360E+02  0.27620216913E+03  0.32927774008E+03  0.12508624827E+03 0.  0.
         23    2    1    2    0    0 -0.11710636389E+03  0.52685120360E+02  0.27633064813E+03  0.31799871714E+03  0.90966667724E+02 0.  0.
          5    1    3    3  502    0  0.74622787762E+02 -0.24455281793E+02  0.26562020757E+03  0.27701658494E+03  0.41800000000E+01 0. -1.
         -5    1    3    3    0  502  0.42483576126E+02 -0.28229838567E+02  0.10581961564E+02  0.52261155139E+02  0.41800000000E+01 0. -1.
        -11    1    4    4    0    0 -0.64441681062E+02 -0.21638176212E+01  0.20049088306E+03  0.21060390916E+03  0.00000000000E+00 0. -1.
         11    1    4    4    0    0 -0.52664682826E+02  0.54848937981E+02  0.75839765075E+02  0.10739480798E+03  0.00000000000E+00 0.  1.
</event>
<event>
 8    1  0.5951278E-006  0.6616996E+02  0.7561462E-02  0.1373624E+00
         -2   -1    0    0    0  501 -0.00000000000E+00  0.00000000000E+00  0.26023593263E+03  0.26023593263E+03  0.00000000000E+00 0.  1.
          2   -1    0    0  501    0  0.00000000000E+00 -0.00000000000E+00 -0.77358773353E+02  0.77358773353E+02  0.00000000000E+00 0. -1.
         23    2    1    2    0    0 -0.66160298004E+00 -0.22917727773E+02  0.20800351516E+03  0.24380103419E+03  0.12509125465E+03 0.  0.
         23    2    1    2    0    0  0.66160298004E+00  0.22917727773E+02 -0.25126355883E+02  0.93793671789E+02  0.87408575912E+02 0.  0.
          5    1    3    3  502    0  0.30187159734E+01  0.38823433051E+02  0.16472398269E+02  0.42487455852E+02  0.41800000000E+01 0.  1.
         -5    1    3    3    0  502 -0.36803189534E+01 -0.61741160824E+02  0.19153111689E+03  0.20131357834E+03  0.41800000000E+01 0.  1.
        -11    1    4    4    0    0  0.10888686055E+02  0.10967186217E+02  0.31465829030E+02  0.35056255563E+02  0.00000000000E+00 0.  1.
         11    1    4    4    0    0 -0.10227083075E+02  0.11950541556E+02 -0.56592184913E+02  0.58737416226E+02  0.00000000000E+00 0. -1.
</event>
<event>
 8    1  0.5951278E-006  0.8559133E+02  0.7561462E-02  0.1313893E+00
          1   -1    0    0  501    0  0.00000000000E+00  0.00000000000E+00  0.45034021204E+03  0.45034021204E+03  0.00000000000E+00 0. -1.
         -1   -1    0    0    0  501 -0.00000000000E+00 -0.00000000000E+00 -0.30701332102E+02  0.30701332102E+02  0.00000000000E+00 0.  1.
         23    2    1    2    0    0  0.51770181628E+02  0.13285479036E+01  0.24530099450E+03  0.28018226737E+03  0.12509040050E+03 0.  0.
         23    2    1    2    0    0 -0.51770181628E+02 -0.13285479036E+01  0.17433788544E+03  0.20085927678E+03  0.85257457289E+02 0.  0.
          5    1    3    3  502    0 -0.27409333730E+02 -0.10461443631E+02  0.94869195387E+01  0.31115710191E+02  0.41800000000E+01 0.  1.
         -5    1    3    3    0  502  0.79179515358E+02  0.11789991535E+02  0.23581407496E+03  0.24906655718E+03  0.41800000000E+01 0.  1.
        -11    1    4    4    0    0 -0.35585686417E+02  0.14797688061E+02  0.17378319574E+03  0.17800537006E+03  0.00000000000E+00 0. -1.
         11    1    4    4    0    0 -0.16184495211E+02 -0.16126235965E+02  0.55468970206E+00  0.22853906718E+02  0.00000000000E+00 0.  1.
</event>
<event>
 8    1  0.5951278E-006  0.1500477E+03  0.7561462E-02  0.1200414E+00
         -2   -1    0    0    0  501 -0.00000000000E+00  0.00000000000E+00  0.83291523788E+02  0.83291523788E+02  0.00000000000E+00 0.  1.
          2   -1    0    0  501    0  0.00000000000E+00 -0.00000000000E+00 -0.33612072802E+03  0.33612072802E+03  0.00000000000E+00 0. -1.
         23    2    1    2    0    0 -0.10839331592E+03  0.10250146606E+02 -0.51635771886E+02  0.17370726072E+03  0.12511507921E+03 0.  0.
         23    2    1    2    0    0  0.10839331592E+03 -0.10250146606E+02 -0.20119343235E+03  0.24570499109E+03  0.89654720930E+02 0.  0.
          5    1    3    3  502    0 -0.71797167963E+02 -0.55256760082E+02 -0.27414221621E+02  0.94747848574E+02  0.41800000000E+01 0.  1.
         -5    1    3    3    0  502 -0.36596147958E+02  0.65506906687E+02 -0.24221550265E+02  0.78959412145E+02  0.41800000000E+01 0.  1.
        -11    1    4    4    0    0  0.13382971653E+02 -0.33807867164E+02 -0.24934306071E+02  0.44088495457E+02  0.00000000000E+00 0. -1.
         11    1    4    4    0    0  0.95010344268E+02  0.23557720558E+02 -0.17625912627E+03  0.20161649563E+03  0.00000000000E+00 0.  1.
</event>
<event>
 8    1  0.5951278E-006  0.1557097E+03  0.7561462E-02  0.1193627E+00
          2   -1    0    0  501    0  0.00000000000E+00  0.00000000000E+00  0.85938972330E+02  0.85938972330E+02  0.00000000000E+00 0. -1.
         -2   -1    0    0    0  501 -0.00000000000E+00 -0.00000000000E+00 -0.35937224452E+03  0.35937224452E+03  0.00000000000E+00 0.  1.
         23    2    1    2    0    0  0.12077051657E+03 -0.61663271020E+02 -0.17964853304E+03  0.25750485673E+03  0.12508908486E+03 0.  0.
         23    2    1    2    0    0 -0.12077051657E+03  0.61663271020E+02 -0.93784739145E+02  0.18780636012E+03  0.89932057346E+02 0.  0.
          5    1    3    3  502    0 -0.15387256561E+02  0.12902860846E+02 -0.63848711542E+00  0.20521489914E+02  0.41800000000E+01 0. -1.
         -5    1    3    3    0  502  0.13615777313E+03 -0.74566131866E+02 -0.17901004593E+03  0.23698336682E+03  0.41800000000E+01 0. -1.
        -11    1    4    4    0    0 -0.76133629502E+02  0.39807795143E+02 -0.50007681664E+01  0.86058106984E+02  0.00000000000E+00 0. -1.
         11    1    4    4    0    0 -0.44636887066E+02  0.21855475877E+02 -0.88783970979E+02  0.10174825313E+03  0.00000000000E+00 0.  1.
</event>
<event>
 7    1  0.5951278E-006  0.2239224E+03  0.7561462E-02  0.1130992E+00
          1   -1    0    0  501    0  0.00000000000E+00  0.00000000000E+00  0.49821097336E+03  0.49821097336E+03  0.00000000000E+00 0. -1.
         -1   -1    0    0    0  501 -0.00000000000E+00 -0.00000000000E+00 -0.34079751245E+03  0.34079751245E+03  0.00000000000E+00 0.  1.
         23    2    1    2    0    0 -0.12091385112E+03 -0.16210801333E+03  0.42075149462E+03  0.47539995196E+03  0.89856144622E+02 0.  0.
          5    1    1    2  502    0  0.16899944305E+01  0.11547600362E+03 -0.16811213058E+03  0.20400177534E+03  0.41800000000E+01 0. -1.
         -5    1    1    2    0  502  0.11922385669E+03  0.46632009706E+02 -0.95225903128E+02  0.15960675850E+03  0.41800000000E+01 0.  1.
        -11    1    3    3    0    0 -0.33458830769E+02 -0.67615427750E+02  0.74676153238E+02  0.10615021097E+03  0.00000000000E+00 0.  1.
         11    1    3    3    0    0 -0.87455020349E+02 -0.94492585576E+02  0.34607534138E+03  0.36924974099E+03  0.00000000000E+00 0. -1.
</event>
<event>
 8    1  0.5951278E-006  0.1112734E+03  0.7561462E-02  0.1258230E+00
          1   -1    0    0  501    0  0.00000000000E+00  0.00000000000E+00  0.47547260638E+02  0.47547260638E+02  0.00000000000E+00 0. -1.
         -1   -1    0    0    0  501 -0.00000000000E+00 -0.00000000000E+00 -0.44299874965E+03  0.44299874965E+03  0.00000000000E+00 0.  1.
         23    2    1    2    0    0 -0.67599124110E+01  0.97217491799E+02 -0.20600128233E+03  0.25996425459E+03  0.12509175920E+03 0.  0.
         23    2    1    2    0    0  0.67599124110E+01 -0.97217491799E+02 -0.18945020669E+03  0.23058175570E+03  0.88202200190E+02 0.  0.
          5    1    3    3  502    0  0.12323974778E+02  0.63079443420E+02 -0.16587194754E+02  0.66509427650E+02  0.41800000000E+01 0. -1.
         -5    1    3    3    0  502 -0.19083887189E+02  0.34138048379E+02 -0.18941408757E+03  0.19345482694E+03  0.41800000000E+01 0. -1.
        -11    1    4    4    0    0  0.34430355418E+02 -0.77575732802E+02 -0.17337298531E+03  0.19303273227E+03  0.00000000000E+00 0. -1.
         11    1    4    4    0    0 -0.27670443007E+02 -0.19641758997E+02 -0.16077221378E+02  0.37549023422E+02  0.00000000000E+00 0.  1.
</event>
<event>
 8    1  0.5951278E-006  0.1671819E+03  0.7561462E-02  0.1180819E+00
         -4   -1    0    0    0  501 -0.00000000000E+00  0.00000000000E+00  0.10169058785E+03  0.10169058785E+03  0.00000000000E+00 0.  1.
          4   -1    0    0  501    0  0.00000000000E+00 -0.00000000000E+00 -0.36175222799E+03  0.36175222799E+03  0.00000000000E+00 0. -1.
         23    2    1    2    0    0  0.74929870854E+02 -0.12913997728E+03 -0.76931796152E+02  0.20942377665E+03  0.12509275634E+03 0.  0.
         23    2    1    2    0    0 -0.74929870854E+02  0.12913997728E+03 -0.18312984399E+03  0.25401903919E+03  0.93260459112E+02 0.  0.
          5    1    3    3  502    0  0.60745983891E+02 -0.39749602384E+02 -0.92322958644E+02  0.11752066432E+03  0.41800000000E+01 0.  1.
         -5    1    3    3    0  502  0.14183886963E+02 -0.89390374893E+02  0.15391162492E+02  0.91903112329E+02  0.41800000000E+01 0.  1.
        -11    1    4    4    0    0 -0.55826701985E+02  0.13882168793E+03 -0.13577661246E+03  0.20204794032E+03  0.00000000000E+00 0.  1.
         11    1    4    4    0    0 -0.19103168869E+02 -0.96817106521E+01 -0.47353231531E+02  0.51971098877E+02  0.00000000000E+00 0. -1.
</event>
<event>
 8    1  0.5951278E-006  0.1227873E+03  0.7561462E-02  0.1238568E+00
          2   -1    0    0  501    0  0.00000000000E+00  0.00000000000E+00  0.18505340388E+03  0.18505340388E+03  0.00000000000E+00 0. -1.
         -2   -1    0    0    0  501 -0.00000000000E+00 -0.00000000000E+00 -0.18096651092E+03  0.18096651092E+03  0.00000000000E+00 0.  1.
         23    2    1    2    0    0  0.73626815984E+02  0.43735099760E+02 -0.11742451735E+03  0.19175676657E+03  0.12509385784E+03 0.  0.
         23    2    1    2    0    0 -0.73626815984E+02 -0.43735099760E+02  0.12151141031E+03  0.17426314823E+03  0.90933794668E+02 0.  0.
          5    1    3    3  502    0  0.68685669754E+01  0.76634024217E+02 -0.60198227078E+02  0.97781643591E+02  0.41800000000E+01 0. -1.
         -5    1    3    3    0  502  0.66758249009E+02 -0.32898924457E+02 -0.57226290274E+02  0.93975122983E+02  0.41800000000E+01 0. -1.
        -11    1    4    4    0    0 -0.83353478028E+01 -0.24549799061E+02 -0.86951383065E+01  0.27345494823E+02  0.00000000000E+00 0.  1.
         11    1    4    4    0    0 -0.65291468181E+02 -0.19185300699E+02  0.13020654862E+03  0.14691765341E+03  0.00000000000E+00 0. -1.
</event>
<event>
 8    1  0.5951278E-006  0.8353440E+02  0.7561462E-02  0.1319310E+00
          1   -1    0    0  501    0  0.00000000000E+00  0.00000000000E+00  0.75430638970E+02  0.75430638970E+02  0.00000000000E+00 0. -1.
         -1   -1    0    0    0  501 -0.00000000000E+00 -0.00000000000E+00 -0.19425411736E+03  0.19425411736E+03  0.00000000000E+00 0.  1.
         23    2    1    2    0    0  0.19883226821E+02 -0.31302684221E+02 -0.10986815198E+03  0.17057201876E+03  0.12509437243E+03 0.  0.
         23    2    1    2    0    0 -0.19883226821E+02  0.31302684221E+02 -0.89553264029E+01  0.99112737568E+02  0.91476423897E+02 0.  0.
          5    1    3    3  502    0 -0.18639870082E+02 -0.71488609428E+02 -0.54103947069E+02  0.91666654369E+02  0.41800000000E+01 0.  1.
         -5    1    3    3    0  502  0.38523096903E+02  0.40185925207E+02 -0.55764204915E+02  0.78905364390E+02  0.41800000000E+01 0.  1.
        -11    1    4    4    0    0 -0.42972597423E+01  0.96956051349E+01  0.41079846198E+02  0.42426701072E+02  0.00000000000E+00 0. -1.
         11    1    4    4    0    0 -0.15585967079E+02  0.21607079086E+02 -0.50035172601E+02  0.56686036496E+02  0.00000000000E+00 0.  1.
</event>
<event>
 8    1  0.5951278E-006  0.1378517E+03  0.7561462E-02  0.1216249E+00
          1   -1    0    0  501    0  0.00000000000E+00  0.00000000000E+00  0.85391520774E+02  0.85391520774E+02  0.00000000000E+00 0. -1.
         -1   -1    0    0    0  501 -0.00000000000E+00 -0.00000000000E+00 -0.32272645112E+03  0.32272645112E+03  0.00000000000E+00 0.  1.
         23    2    1    2    0    0  0.62151443561E+02  0.96111180321E+02 -0.19322174517E+03  0.25706479474E+03  0.12508998748E+03 0.  0.
         23    2    1    2    0    0 -0.62151443561E+02 -0.96111180321E+02 -0.44113185175E+02  0.15105317716E+03  0.88152868946E+02 0.  0.
          5    1    3    3  502    0 -0.49126152547E+01  0.93789650171E+02 -0.71883601282E+02  0.11834423011E+03  0.41800000000E+01 0.  1.
         -5    1    3    3    0  502  0.67064058816E+02  0.23215301493E+01 -0.12133814389E+03  0.13872056463E+03  0.41800000000E+01 0.  1.
        -11    1    4    4    0    0 -0.10027049622E+02 -0.15052924587E+02 -0.51319057589E+02  0.54413030927E+02  0.00000000000E+00 0.  1.
         11    1    4    4    0    0 -0.52124393939E+02 -0.81058255734E+02  0.72058724142E+01  0.96640146230E+02  0.00000000000E+00 0. -1.
</event>
<event>
 8    1  0.5951278E-006  0.1018620E+03  0.7561462E-02  0.1276429E+00
          2   -1    0    0  501    0  0.00000000000E+00  0.00000000000E+00  0.55104668092E+03  0.55104668092E+03  0.00000000000E+00 0. -1.
         -2   -1    0    0    0  501 -0.00000000000E+00 -0.00000000000E+00 -0.30253190340E+02  0.30253190340E+02  0.00000000000E+00 0.  1.
         23    2    1    2    0    0 -0.65189670693E+02 -0.12621341168E+02  0.34679755685E+03  0.37459505643E+03  0.12507565491E+03 0.  0.
         23    2    1    2    0    0  0.65189670693E+02  0.12621341168E+02  0.17399593374E+03  0.20670481483E+03  0.89684469664E+02 0.  0.
          5    1    3    3  502    0  0.13891583135E+02  0.44691026892E+01 -0.30556369316E+01  0.15484129873E+02  0.41800000000E+01 0. -1.
         -5    1    3    3    0  502 -0.79081253828E+02 -0.17090443858E+02  0.34985319378E+03  0.35911092656E+03  0.41800000000E+01 0. -1.
        -11    1    4    4    0    0  0.73645654908E+02 -0.17957171595E+02  0.14549080660E+03  0.16405400727E+03  0.00000000000E+00 0. -1.
         11    1    4    4    0    0 -0.84559842150E+01  0.30578512764E+02  0.28505127141E+02  0.42650807556E+02  0.00000000000E+00 0.  1.
</event>
<event>
 8    1  0.5951278E-006  0.1072642E+03  0.7561462E-02  0.1265722E+00
         -1   -1    0    0    0  501 -0.00000000000E+00  0.00000000000E+00  0.58489491659E+02  0.58489491659E+02  0.00000000000E+00 0.  1.
          1   -1    0    0  501    0  0.00000000000E+00 -0.00000000000E+00 -0.30779799925E+03  0.30779799925E+03  0.00000000000E+00 0. -1.
         23    2    1    2    0    0  0.68609001460E+02 -0.23172579301E+02 -0.17819555040E+03  0.22944605754E+03  0.12509066962E+03 0.  0.
         23    2    1    2    0    0 -0.68609001460E+02  0.23172579301E+02 -0.71112957190E+02  0.13684143337E+03  0.91784321609E+02 0.  0.
          5    1    3    3  502    0  0.66027660559E+02 -0.64731683290E+02 -0.15767961313E+03  0.18283920689E+03  0.41800000000E+01 0. -1.
         -5    1    3    3    0  502  0.25813409017E+01  0.41559103989E+02 -0.20515937271E+02  0.46606850648E+02  0.41800000000E+01 0. -1.
        -11    1    4    4    0    0 -0.21783759892E+02 -0.87213713390E+01 -0.76416930664E+02  0.79938362537E+02  0.00000000000E+00 0. -1.
         11    1    4    4    0    0 -0.46825241569E+02  0.31893950640E+02  0.53039734743E+01  0.56903070831E+02  0.00000000000E+00 0.  1.
</event>
<event>
 8    1  0.5951278E-006  0.1356867E+03  0.7561462E-02  0.1219254E+00
         -2   -1    0    0    0  501 -0.00000000000E+00  0.00000000000E+00  0.76361225640E+03  0.76361225640E+03  0.00000000000E+00 0.  1.
          2   -1    0    0  501    0  0.00000000000E+00 -0.00000000000E+00 -0.27055495971E+02  0.27055495971E+02  0.00000000000E+00 0. -1.
         23    2    1    2    0    0 -0.38830343946E+02  0.84100162455E+02  0.35839343557E+03  0.39073442893E+03  0.12508759474E+03 0.  0.
         23    2    1    2    0    0  0.38830343946E+02 -0.84100162455E+02  0.37816332486E+03  0.39993332344E+03  0.91424996532E+02 0.  0.
          5    1    3    3  502    0 -0.51684745631E+02 -0.10191422735E+02  0.19057742818E+03  0.19776856818E+03  0.41800000000E+01 0.  1.
         -5    1    3    3    0  502  0.12854401685E+02  0.94291585190E+02  0.16781600740E+03  0.19296586076E+03  0.41800000000E+01 0.  1.
        -11    1    4    4    0    0  0.63627766642E+02 -0.70588415298E+02  0.33604458419E+03  0.34922368136E+03  0.00000000000E+00 0.  1.
         11    1    4    4    0    0 -0.24797422696E+02 -0.13511747157E+02  0.42118740672E+02  0.50709642075E+02  0.00000000000E+00 0. -1.
</event>
<event>
 8    1  0.5951278E-006  0.1228457E+03  0.7561462E-02  0.1238475E+00
          1   -1    0    0  501    0  0.00000000000E+00  0.00000000000E+00  0.11278630769E+04  0.11278630769E+04  0.00000000000E+00 0. -1.
         -1   -1    0    0    0  501 -0.00000000000E+00 -0.00000000000E+00 -0.21918625760E+02  0.21918625760E+02  0.00000000000E+00 0.  1.
         23    2    1    2    0    0  0.10471585862E+03 -0.72641401490E+01  0.43937476151E+03  0.46873740765E+03  0.12508556070E+03 0.  0.
         23    2    1    2    0    0 -0.10471585862E+03  0.72641401490E+01  0.66656968959E+03  0.68104429498E+03  0.92130352537E+02 0.  0.
          5    1    3    3  502    0  0.61087774134E+02 -0.14612156260E+02  0.41148240539E+03  0.41626971257E+03  0.41800000000E+01 0.  1.
         -5    1    3    3    0  502  0.43628084486E+02  0.73480161108E+01  0.27892356125E+02  0.52467695079E+02  0.41800000000E+01 0.  1.
        -11    1    4    4    0    0 -0.59588514745E+02 -0.40919542381E+02  0.30069448803E+03  0.30926101463E+03  0.00000000000E+00 0.  1.
         11    1    4    4    0    0 -0.45127343875E+02  0.48183682530E+02  0.36587520156E+03  0.37178328035E+03  0.00000000000E+00 0. -1.
</event>
<event>
 8    1  0.5951278E-006  0.1176202E+03  0.7561462E-02  0.1247075E+00
         -4   -1    0    0    0  501 -0.00000000000E+00  0.00000000000E+00  0.55128076764E+02  0.55128076764E+02  0.00000000000E+00 0.  1.
          4   -1    0    0  501    0  0.00000000000E+00 -0.00000000000E+00 -0.34625530627E+03  0.34625530627E+03  0.00000000000E+00 0. -1.
         23    2    1    2    0    0  0.37056467669E+02  0.76319291436E+02 -0.17588419306E+03  0.23189857702E+03  0.12507551564E+03 0.  0.
         23    2    1    2    0    0 -0.37056467669E+02 -0.76319291436E+02 -0.11524303645E+03  0.16948480602E+03  0.90809283555E+02 0.  0.
          5    1    3    3  502    0 -0.13594446301E+02 -0.58797863362E+01  0.12726315945E+02  0.19970287307E+02  0.41800000000E+01 0. -1.
         -5    1    3    3    0  502  0.50650913971E+02  0.82199077773E+02 -0.18861050901E+03  0.21192828971E+03  0.41800000000E+01 0. -1.
        -11    1    4    4    0    0 -0.66538890569E+02 -0.45823013949E+02 -0.64726146194E+02  0.10352123727E+03  0.00000000000E+00 0.  1.
         11    1    4    4    0    0  0.29482422900E+02 -0.30496277487E+02 -0.50516890254E+02  0.65963568745E+02  0.00000000000E+00 0. -1.
</event>
<event>
 8    1  0.5951278E-006  0.1743183E+03  0.7561462E-02  0.1173418E+00
          1   -1    0    0  501    0  0.00000000000E+00  0.00000000000E+00  0.99270414391E+02  0.99270414391E+02  0.00000000000E+00 0. -1.
         -1   -1    0    0    0  501 -0.00000000000E+00 -0.00000000000E+00 -0.36007653260E+03  0.36007653260E+03  0.00000000000E+00 0.  1.
         23    2    1    2    0    0  0.11913692399E+03  0.92545024234E+02 -0.17670952426E+03  0.26387956684E+03  0.12509189289E+03 0.  0.
         23    2    1    2    0    0 -0.11913692399E+03 -0.92545024234E+02 -0.84096593953E+02  0.19546738015E+03  0.91526342755E+02 0.  0.
          5    1    3    3  502    0  0.98881740197E+02 -0.21919786013E+01 -0.87787973933E+02  0.13231252428E+03  0.41800000000E+01 0.  1.
         -5    1    3    3    0  502  0.20255183796E+02  0.94737002835E+02 -0.88921550324E+02  0.13156704256E+03  0.41800000000E+01 0.  1.
        -11    1    4    4    0    0 -0.94540769023E+02 -0.60358807154E+02 -0.12046639273E+02  0.11281074473E+03  0.00000000000E+00 0. -1.
         11    1    4    4    0    0 -0.24596154970E+02 -0.32186217080E+02 -0.72049954680E+02  0.82656635418E+02  0.00000000000E+00 0.  1.
</event>
<event>
 8    1  0.5951278E-006  0.1136255E+03  0.7561462E-02  0.1254000E+00
          2   -1    0    0  501    0  0.00000000000E+00  0.00000000000E+00  0.38786651813E+03  0.38786651813E+03  0.00000000000E+00 0.  1.
         -2   -1    0    0    0  501 -0.00000000000E+00 -0.00000000000E+00 -0.48411571128E+02  0.48411571128E+02  0.00000000000E+00 0. -1.
         23    2    1    2    0    0  0.48356400552E+02 -0.15985126739E+02  0.74756392527E+02  0.15436863436E+03  0.12508913342E+03 0.  0.
         23    2    1    2    0    0 -0.48356400552E+02  0.15985126739E+02  0.26469855448E+03  0.28190945490E+03  0.82545443648E+02 0.  0.
          5    1    3    3  502    0 -0.11035613701E+02  0.44377188717E+02  0.83481620311E+01  0.46672088634E+02  0.41800000000E+01 0. -1.
         -5    1    3    3    0  502  0.59392014254E+02 -0.60362315456E+02  0.66408230496E+02  0.10769654573E+03  0.41800000000E+01 0. -1.
        -11    1    4    4    0    0 -0.63997447833E+02 -0.11404421452E+02  0.16512569933E+03  0.17746050472E+03  0.00000000000E+00 0.  1.
         11    1    4    4    0    0  0.15641047281E+02  0.27389548191E+02  0.99572855150E+02  0.10444895018E+03  0.00000000000E+00 0. -1.
</event>
<event>
 8    1  0.5951278E-006  0.1086511E+03  0.7561462E-02  0.1263088E+00
          1   -1    0    0  501    0  0.00000000000E+00  0.00000000000E+00  0.95402282861E+02  0.95402282861E+02  0.00000000000E+00 0. -1.
         -1   -1    0    0    0  501 -0.00000000000E+00 -0.00000000000E+00 -0.31274252706E+03  0.31274252706E+03  0.00000000000E+00 0.  1.
         23    2    1    2    0    0 -0.23799956991E+02  0.26301162969E+02 -0.26803220772E+03  0.29790472441E+03  0.12509105215E+03 0.  0.
         23    2    1    2    0    0  0.23799956991E+02 -0.26301162969E+02  0.50691963524E+02  0.11024008550E+03  0.91241504589E+02 0.  0.
          5    1    3    3  502    0  0.24052231476E+02  0.57957802533E+02 -0.19527426123E+03  0.20515147139E+03  0.41800000000E+01 0. -1.
         -5    1    3    3    0  502 -0.47852188467E+02 -0.31656639564E+02 -0.72757946485E+02  0.92753253023E+02  0.41800000000E+01 0. -1.
        -11    1    4    4    0    0  0.63769025128E+01 -0.59261181641E+02  0.23380852023E+02  0.64025126133E+02  0.00000000000E+00 0.  1.
         11    1    4    4    0    0  0.17423054478E+02  0.32960018671E+02  0.27311111502E+02  0.46214959370E+02  0.00000000000E+00 0. -1.
</event>
<event>
 8    1  0.5951279E-006  0.1207832E+03  0.7561462E-02  0.1241811E+00
         -3   -1    0    0    0  501 -0.00000000000E+00  0.00000000000E+00  0.58261581265E+03  0.58261581265E+03  0.00000000000E+00 0.  1.
          3   -1    0    0  501    0  0.00000000000E+00 -0.00000000000E+00 -0.44820148228E+02  0.44820148228E+02  0.00000000000E+00 0. -1.
         23    2    1    2    0    0 -0.10036148051E+03 -0.62490953604E+02  0.31972824464E+03  0.36311297151E+03  0.12508930251E+03 0.  0.
         23    2    1    2    0    0  0.10036148051E+03  0.62490953604E+02  0.21806741979E+03  0.26432298938E+03  0.91300038818E+02 0.  0.
          5    1    3    3  502    0 -0.99731856724E+02 -0.53471796643E+02  0.32994971449E+03  0.34884088461E+03  0.41800000000E+01 0.  1.
         -5    1    3    3    0  502 -0.62962378451E+00 -0.90191569607E+01 -0.10221469853E+02  0.14272086896E+02  0.41800000000E+01 0.  1.
        -11    1    4    4    0    0  0.49785053673E+02  0.27613914150E+02  0.18700887483E+03  0.19548247771E+03  0.00000000000E+00 0.  1.
         11    1    4    4    0    0  0.50576426835E+02  0.34877039453E+02  0.31058544956E+02  0.68840511672E+02  0.00000000000E+00 0. -1.
</event>
<event>
 8    1  0.5951278E-006  0.3831626E+03  0.7561462E-02  0.1049771E+00
          1   -1    0    0  501    0  0.00000000000E+00  0.00000000000E+00  0.47821494001E+03  0.47821494001E+03  0.00000000000E+00 0. -1.
         -1   -1    0    0    0  501 -0.00000000000E+00 -0.00000000000E+00 -0.34699707085E+03  0.34699707085E+03  0.00000000000E+00 0.  1.
         23    2    1    2    0    0 -0.29521485874E+03  0.23019984794E+03 -0.49283776827E+02  0.39776975514E+03  0.12509238441E+03 0.  0.
         23    2    1    2    0    0  0.29521485874E+03 -0.23019984794E+03  0.18050164599E+03  0.42744225573E+03  0.99911235432E+02 0.  0.
          5    1    3    3  502    0 -0.34393152117E+02  0.65330587942E+02 -0.49846053915E+02  0.89180020880E+02  0.41800000000E+01 0.  1.
         -5    1    3    3    0  502 -0.26082170662E+03  0.16486926000E+03  0.56227708815E+00  0.30858973426E+03  0.41800000000E+01 0.  1.
        -11    1    4    4    0    0  0.83691657250E+02 -0.20999329159E+02  0.66134782723E+02  0.10871556836E+03  0.00000000000E+00 0. -1.
         11    1    4    4    0    0  0.21152320149E+03 -0.20920051878E+03  0.11436686326E+03  0.31872668736E+03  0.00000000000E+00 0.  1.
</event>
<event>
 8    1  0.5951278E-006  0.1225525E+03  0.7561462E-02  0.1238945E+00
         -1   -1    0    0    0  501 -0.00000000000E+00  0.00000000000E+00  0.34137731330E+03  0.34137731330E+03  0.00000000000E+00 0.  1.
          1   -1    0    0  501    0  0.00000000000E+00 -0.00000000000E+00 -0.64364308753E+02  0.64364308753E+02  0.00000000000E+00 0. -1.
         23    2    1    2    0    0 -0.73957815801E+02 -0.57761850675E+02  0.19919255401E+03  0.25323912079E+03  0.12508472654E+03 0.  0.
         23    2    1    2    0    0  0.73957815801E+02  0.57761850675E+02  0.77820450532E+02  0.15250250126E+03  0.91623143681E+02 0.  0.
          5    1    3    3  502    0 -0.48956144196E+02  0.29413003930E+02  0.39574416555E+02  0.69609163911E+02  0.41800000000E+01 0. -1.
         -5    1    3    3    0  502 -0.25001671605E+02 -0.87174854605E+02  0.15961813746E+03  0.18362995688E+03  0.41800000000E+01 0. -1.
        -11    1    4    4    0    0  0.52714632551E+02  0.25832559571E+02 -0.72860690502E+01  0.59154377869E+02  0.00000000000E+00 0. -1.
         11    1    4    4    0    0  0.21243183250E+02  0.31929291104E+02  0.85106519582E+02  0.93348123390E+02  0.00000000000E+00 0.  1.
</event>
<event>
 8    1  0.5951278E-006  0.1201279E+03  0.7561462E-02  0.1242886E+00
          3   -1    0    0  501    0  0.00000000000E+00  0.00000000000E+00  0.62303298532E+03  0.62303298532E+03  0.00000000000E+00 0. -1.
         -3   -1    0    0    0  501 -0.00000000000E+00 -0.00000000000E+00 -0.25658114879E+02  0.25658114879E+02  0.00000000000E+00 0.  1.
         23    2    1    2    0    0 -0.30792689546E+02 -0.45783398423E+02  0.24903457825E+03  0.28409564692E+03  0.12509119128E+03 0.  0.
         23    2    1    2    0    0  0.30792689546E+02  0.45783398423E+02  0.34834029219E+03  0.36459545328E+03  0.92436876223E+02 0.  0.
          5    1    3    3  502    0  0.45602198019E+02 -0.31553905221E+01  0.11670518425E+03  0.12540769268E+03  0.41800000000E+01 0.  1.
         -5    1    3    3    0  502 -0.76394887565E+02 -0.42628007901E+02  0.13232939400E+03  0.15868795424E+03  0.41800000000E+01 0.  1.
        -11    1    4    4    0    0  0.35905420218E+02 -0.19790160113E+02  0.11176629565E+03  0.11904853835E+03  0.00000000000E+00 0.  1.
         11    1    4    4    0    0 -0.51127306719E+01  0.65573558537E+02  0.23657399654E+03  0.24554691493E+03  0.00000000000E+00 0. -1.
</event>
<event>
 8    1  0.5951278E-006  0.1350265E+03  0.7561462E-02  0.1220182E+00
         -1   -1    0    0    0  501 -0.00000000000E+00  0.00000000000E+00  0.72765281163E+03  0.72765281163E+03  0.00000000000E+00 0.  1.
          1   -1    0    0  501    0  0.00000000000E+00 -0.00000000000E+00 -0.26108969647E+02  0.26108969647E+02  0.00000000000E+00 0. -1.
         23    2    1    2    0    0 -0.33138883529E+02 -0.76519152192E+02  0.33854259306E+03  0.37042124451E+03  0.12508974705E+03 0.  0.
         23    2    1    2    0    0  0.33138883529E+02  0.76519152192E+02  0.36300124893E+03  0.38334053677E+03  0.90701125423E+02 0.  0.
          5    1    3    3  502    0 -0.79567821626E+02 -0.45607334358E+02  0.17569654517E+03  0.19823676645E+03  0.41800000000E+01 0. -1.
         -5    1    3    3    0  502  0.46428938097E+02 -0.30911817834E+02  0.16284604788E+03  0.17218447806E+03  0.41800000000E+01 0. -1.
        -11    1    4    4    0    0  0.43286295543E+02 -0.18135251310E+01  0.15143124539E+03  0.15750687076E+03  0.00000000000E+00 0.  1.
         11    1    4    4    0    0 -0.10147412014E+02  0.78332677323E+02  0.21157000353E+03  0.22583366601E+03  0.00000000000E+00 0. -1.
</event>
<event>
 8    1  0.5951278E-006  0.1503150E+03  0.7561462E-02  0.1200086E+00
          1   -1    0    0  501    0  0.00000000000E+00  0.00000000000E+00  0.47825739279E+03  0.47825739279E+03  0.00000000000E+00 0. -1.
         -1   -1    0    0    0  501 -0.00000000000E+00 -0.00000000000E+00 -0.72297762890E+02  0.72297762890E+02  0.00000000000E+00 0.  1.
         23    2    1    2    0    0 -0.31397144054E+02 -0.13027769948E+03  0.10978503550E+03  0.21367825601E+03  0.12509030112E+03 0.  0.
         23    2    1    2    0    0  0.31397144054E+02  0.13027769948E+03  0.29617459440E+03  0.33687689967E+03  0.88366257836E+02 0.  0.
          5    1    3    3  502    0  0.83805770811E+01 -0.45099050596E+02 -0.22559626464E+02  0.51289059097E+02  0.41800000000E+01 0.  1.
         -5    1    3    3    0  502 -0.39777721135E+02 -0.85178648886E+02  0.13234466196E+03  0.16238919691E+03  0.41800000000E+01 0.  1.
        -11    1    4    4    0    0 -0.30655531599E+02  0.32634766783E+02  0.86563807756E+02  0.97458106045E+02  0.00000000000E+00 0.  1.
         11    1    4    4    0    0  0.62052675654E+02  0.97642932698E+02  0.20961078665E+03  0.23941879362E+03  0.00000000000E+00 0. -1.
</event>
<event>
 8    1  0.5951278E-006  0.1160201E+03  0.7561462E-02  0.1249811E+00
          1   -1    0    0  501    0  0.00000000000E+00  0.00000000000E+00  0.63246106869E+03  0.63246106869E+03  0.00000000000E+00 0. -1.
         -1   -1    0    0    0  501 -0.00000000000E+00 -0.00000000000E+00 -0.23982486985E+02  0.23982486985E+02  0.00000000000E+00 0.  1.
         23    2    1    2    0    0  0.58420649179E+02  0.32644839071E+02  0.34086250255E+03  0.36920667571E+03  0.12509063104E+03 0.  0.
         23    2    1    2    0    0 -0.58420649179E+02 -0.32644839071E+02  0.26761607915E+03  0.28723687996E+03  0.80049994524E+02 0.  0.
          5    1    3    3  502    0  0.94491642162E+02  0.59256692988E+01  0.25830957276E+03  0.27514558288E+03  0.41800000000E+01 0. -1.
         -5    1    3    3    0  502 -0.36070992983E+02  0.26719169772E+02  0.82552929788E+02  0.94061092832E+02  0.41800000000E+01 0. -1.
        -11    1    4    4    0    0 -0.64287351472E+02 -0.56193432915E+01  0.11266903469E+03  0.12984125676E+03  0.00000000000E+00 0.  1.
         11    1    4    4    0    0  0.58667022926E+01 -0.27025495779E+02  0.15494704445E+03  0.15739562320E+03  0.00000000000E+00 0. -1.
</event>
<event>
 8    1  0.5951278E-006  0.5870615E+02  0.7561462E-02  0.1403343E+00
         -1   -1    0    0    0  501 -0.00000000000E+00  0.00000000000E+00  0.53750340736E+02  0.53750340736E+02  0.00000000000E+00 0.  1.
          1   -1    0    0  501    0  0.00000000000E+00 -0.00000000000E+00 -0.19755875294E+03  0.19755875294E+03  0.00000000000E+00 0. -1.
         23    2    1    2    0    0  0.51445498755E+01  0.19143314015E+02 -0.63572284987E+02  0.12997949560E+03  0.11162571833E+03 0.  0.
         23    2    1    2    0    0 -0.51445498755E+01 -0.19143314015E+02 -0.80236127216E+02  0.12132959808E+03  0.88826248342E+02 0.  0.
          5    1    3    3  502    0 -0.16087462473E+02 -0.33694874889E+01 -0.88445833196E+02  0.90057191298E+02  0.41800000000E+01 0. -1.
         -5    1    3    3    0  502  0.21232012349E+02  0.22512801504E+02  0.24873548209E+02  0.39922304298E+02  0.41800000000E+01 0.  1.
        -11    1    4    4    0    0  0.16735760573E+02  0.18958545268E+02 -0.72412213454E+02  0.76700982901E+02  0.00000000000E+00 0.  1.
         11    1    4    4    0    0 -0.21880310448E+02 -0.38101859283E+02 -0.78239137611E+01  0.44628615178E+02  0.00000000000E+00 0. -1.
</event>
<event>
 8    1  0.5951278E-006  0.8919199E+02  0.7561462E-02  0.1304820E+00
         -2   -1    0    0    0  501 -0.00000000000E+00  0.00000000000E+00  0.11108794381E+03  0.11108794381E+03  0.00000000000E+00 0.  1.
          2   -1    0    0  501    0  0.00000000000E+00 -0.00000000000E+00 -0.13326056564E+03  0.13326056564E+03  0.00000000000E+00 0. -1.
         23    2    1    2    0    0 -0.20086569988E+00 -0.26023720706E+02  0.40668653205E+02  0.13409001195E+03  0.12509563368E+03 0.  0.
         23    2    1    2    0    0  0.20086569988E+00  0.26023720706E+02 -0.62841275034E+02  0.11025849750E+03  0.86779237365E+02 0.  0.
          5    1    3    3  502    0 -0.47962998648E+02 -0.35787129091E+02 -0.13088509802E+02  0.61399913165E+02  0.41800000000E+01 0. -1.
         -5    1    3    3    0  502  0.47762132948E+02  0.97634083857E+01  0.53757163007E+02  0.72690098787E+02  0.41800000000E+01 0. -1.
        -11    1    4    4    0    0 -0.31708941001E+02  0.18392176683E+02  0.29136641993E+01  0.36772524276E+02  0.00000000000E+00 0.  1.
         11    1    4    4    0    0  0.31909806701E+02  0.76315440224E+01 -0.65754939234E+02  0.73485973229E+02  0.00000000000E+00 0. -1.
</event>
<event>
 8    1  0.5951278E-006  0.1192658E+03  0.7561462E-02  0.1244313E+00
          1   -1    0    0  501    0  0.00000000000E+00  0.00000000000E+00  0.72937974757E+03  0.72937974757E+03  0.00000000000E+00 0. -1.
         -1   -1    0    0    0  501 -0.00000000000E+00 -0.00000000000E+00 -0.33360086743E+02  0.33360086743E+02  0.00000000000E+00 0.  1.
         23    2    1    2    0    0 -0.41165944201E+02 -0.88639735243E+02  0.24026298047E+03  0.28796750437E+03  0.12508935273E+03 0.  0.
         23    2    1    2    0    0  0.41165944201E+02  0.88639735243E+02  0.45575668036E+03  0.47477232994E+03  0.90238439468E+02 0.  0.
          5    1    3    3  502    0 -0.32654771651E+02 -0.79306022451E+01  0.18872377038E+03  0.19173774399E+03  0.41800000000E+01 0.  1.
         -5    1    3    3    0  502 -0.85111725506E+01 -0.80709132998E+02  0.51539210091E+02  0.96229760388E+02  0.41800000000E+01 0.  1.
        -11    1    4    4    0    0  0.63511810706E+02  0.65747663920E+02  0.40160287344E+03  0.41187543429E+03  0.00000000000E+00 0. -1.
         11    1    4    4    0    0 -0.22345866504E+02  0.22892071323E+02  0.54153806913E+02  0.62896895651E+02  0.00000000000E+00 0.  1.
</event>
<event>
 8    1  0.5951278E-006  0.7621207E+02  0.7561462E-02  0.1340158E+00
         -3   -1    0    0    0  501 -0.00000000000E+00  0.00000000000E+00  0.14004552836E+03  0.14004552836E+03  0.00000000000E+00 0.  1.
          3   -1    0    0  501    0  0.00000000000E+00 -0.00000000000E+00 -0.15559183088E+03  0.15559183088E+03  0.00000000000E+00 0. -1.
         23    2    1    2    0    0 -0.51465211769E+02  0.18087858253E+01  0.78121918800E+02  0.15621357715E+03  0.12509079806E+03 0.  0.
         23    2    1    2    0    0  0.51465211769E+02 -0.18087858253E+01 -0.93668221315E+02  0.13942378210E+03  0.89517124624E+02 0.  0.
          5    1    3    3  502    0 -0.53714226595E+02 -0.34433156140E+02  0.96141116890E+02  0.11546188608E+03  0.41800000000E+01 0. -1.
         -5    1    3    3    0  502  0.22490148260E+01  0.36241941966E+02 -0.18019198090E+02  0.40751691068E+02  0.41800000000E+01 0. -1.
        -11    1    4    4    0    0  0.22790182041E+02 -0.41392792922E+01  0.14611974651E+02  0.27386782099E+02  0.00000000000E+00 0.  1.
         11    1    4    4    0    0  0.28675029728E+02  0.23304934669E+01 -0.10828019597E+03  0.11203700000E+03  0.00000000000E+00 0. -1.
</event>
<event>
 8    1  0.5951278E-006  0.1043506E+03  0.7561462E-02  0.1271404E+00
         -2   -1    0    0    0  501 -0.00000000000E+00  0.00000000000E+00  0.12030414633E+03  0.12030414633E+03  0.00000000000E+00 0. -1.
          2   -1    0    0  501    0  0.00000000000E+00 -0.00000000000E+00 -0.12425239096E+03  0.12425239096E+03  0.00000000000E+00 0.  1.
         23    2    1    2    0    0 -0.22446773021E+02 -0.48443335629E+02  0.19425670333E+02  0.13739207674E+03  0.12509441113E+03 0.  0.
         23    2    1    2    0    0  0.22446773021E+02  0.48443335629E+02 -0.23373914962E+02  0.10716446056E+03  0.89929235067E+02 0.  0.
          5    1    3    3  502    0 -0.31079037405E+02 -0.78418525046E+02  0.46026877553E+02  0.96183769388E+02  0.41800000000E+01 0.  1.
         -5    1    3    3    0  502  0.86322643839E+01  0.29975189417E+02 -0.26601207220E+02  0.41208307349E+02  0.41800000000E+01 0.  1.
        -11    1    4    4    0    0 -0.25774980536E+02  0.20484906791E+01 -0.30366943009E+02  0.39883545020E+02  0.00000000000E+00 0.  1.
         11    1    4    4    0    0  0.48221753557E+02  0.46394844950E+02  0.69930280470E+01  0.67280915536E+02  0.00000000000E+00 0. -1.
</event>
<event>
 8    1  0.5951278E-006  0.8694941E+02  0.7561462E-02  0.1310412E+00
          2   -1    0    0  501    0  0.00000000000E+00  0.00000000000E+00  0.34989004117E+03  0.34989004117E+03  0.00000000000E+00 0. -1.
         -2   -1    0    0    0  501 -0.00000000000E+00 -0.00000000000E+00 -0.43821421190E+02  0.43821421190E+02  0.00000000000E+00 0.  1.
         23    2    1    2    0    0  0.35434756804E+02 -0.43237388707E+02  0.20645310028E+03  0.24778111830E+03  0.12508999241E+03 0.  0.
         23    2    1    2    0    0 -0.35434756804E+02  0.43237388707E+02  0.99615519708E+02  0.14593034406E+03  0.90814755299E+02 0.  0.
          5    1    3    3  502    0  0.44994683044E+02 -0.22143099785E+02  0.21644230274E+03  0.22221516867E+03  0.41800000000E+01 0.  1.
         -5    1    3    3    0  502 -0.95599262400E+01 -0.21094288921E+02 -0.99892024631E+01  0.25565949633E+02  0.41800000000E+01 0.  1.
        -11    1    4    4    0    0 -0.19915581169E+01  0.61774119375E+02  0.84777615198E+02  0.10491545247E+03  0.00000000000E+00 0. -1.
         11    1    4    4    0    0 -0.33443198687E+02 -0.18536730668E+02  0.14837904510E+02  0.41014891595E+02  0.00000000000E+00 0.  1.
</event>
<event>
 8    1  0.5951278E-006  0.2107513E+03  0.7561462E-02  0.1140972E+00
          1   -1    0    0  501    0  0.00000000000E+00  0.00000000000E+00  0.68871537584E+03  0.68871537584E+03  0.00000000000E+00 0. -1.
         -1   -1    0    0    0  501 -0.00000000000E+00 -0.00000000000E+00 -0.71841101665E+02  0.71841101665E+02  0.00000000000E+00 0.  1.
         23    2    1    2    0    0  0.15446578446E+03 -0.78012683588E+02  0.19722595965E+03  0.29067056203E+03  0.12508252917E+03 0.  0.
         23    2    1    2    0    0 -0.15446578446E+03  0.78012683588E+02  0.41964831453E+03  0.46988591547E+03  0.12141831946E+03 0.  0.
          5    1    3    3  502    0  0.74835759247E+02 -0.10267432329E+03  0.94996850945E+02  0.15869556268E+03  0.41800000000E+01 0.  1.
         -5    1    3    3    0  502  0.79630025217E+02  0.24661639699E+02  0.10222910870E+03  0.13197499935E+03  0.41800000000E+01 0.  1.
        -11    1    4    4    0    0 -0.13392183576E+03  0.38690806432E+01  0.25106525081E+03  0.28457650649E+03  0.00000000000E+00 0.  1.
         11    1    4    4    0    0 -0.20543948700E+02  0.74143602945E+02  0.16858306372E+03  0.18530940898E+03  0.00000000000E+00 0. -1.
</event>
<event>
 8    1  0.5951278E-006  0.1954468E+03  0.7561462E-02  0.1153638E+00
         -1   -1    0    0    0  501 -0.00000000000E+00  0.00000000000E+00  0.26493959957E+03  0.26493959957E+03  0.00000000000E+00 0.  1.
          1   -1    0    0  501    0  0.00000000000E+00 -0.00000000000E+00 -0.26529713123E+03  0.26529713123E+03  0.00000000000E+00 0. -1.
         23    2    1    2    0    0  0.15774540029E+03 -0.51250587888E+02  0.17571518478E+03  0.27209148206E+03  0.12509082452E+03 0.  0.
         23    2    1    2    0    0 -0.15774540029E+03  0.51250587888E+02 -0.17607271643E+03  0.25814524873E+03  0.90150617844E+02 0.  0.
          5    1    3    3  502    0  0.40851743720E+02  0.39859046572E+02  0.67729077518E+02  0.88669661666E+02  0.41800000000E+01 0. -1.
         -5    1    3    3    0  502  0.11689365657E+03 -0.91109634460E+02  0.10798610726E+03  0.18342182040E+03  0.41800000000E+01 0. -1.
        -11    1    4    4    0    0 -0.15999498507E+03  0.64098130571E+02 -0.17404391058E+03  0.24494539881E+03  0.00000000000E+00 0. -1.
         11    1    4    4    0    0  0.22495847773E+01 -0.12847542682E+02 -0.20288058539E+01  0.13199849917E+02  0.00000000000E+00 0.  1.
</event>
<event>
 8    1  0.5951278E-006  0.1867956E+03  0.7561462E-02  0.1161384E+00
          2   -1    0    0  501    0  0.00000000000E+00  0.00000000000E+00  0.72532210429E+03  0.72532210429E+03  0.00000000000E+00 0. -1.
         -2   -1    0    0    0  501 -0.00000000000E+00 -0.00000000000E+00 -0.70789397247E+02  0.70789397247E+02  0.00000000000E+00 0.  1.
         23    2    1    2    0    0 -0.12284942745E+03  0.99437656222E+02  0.12816450671E+03  0.23885852262E+03  0.12508966284E+03 0.  0.
         23    2    1    2    0    0  0.12284942745E+03 -0.99437656222E+02  0.52636820033E+03  0.55725297891E+03  0.92128013587E+02 0.  0.
          5    1    3    3  502    0 -0.14723887355E+03  0.85992843901E+02  0.94584289849E+02  0.19503260080E+03  0.41800000000E+01 0.  1.
         -5    1    3    3    0  502  0.24389446103E+02  0.13444812322E+02  0.33580216860E+02  0.43825921827E+02  0.41800000000E+01 0.  1.
        -11    1    4    4    0    0  0.11509693992E+03 -0.51132468586E+02  0.44335018274E+03  0.46089176545E+03  0.00000000000E+00 0. -1.
         11    1    4    4    0    0  0.77524875284E+01 -0.48305187636E+02  0.83018017588E+02  0.96361213461E+02  0.00000000000E+00 0.  1.
</event>
<event>
 8    1  0.5951278E-006  0.6701129E+02  0.7561462E-02  0.1370562E+00
         -1   -1    0    0    0  501 -0.00000000000E+00  0.00000000000E+00  0.38587389854E+03  0.38587389854E+03  0.00000000000E+00 0.  1.
          1   -1    0    0  501    0  0.00000000000E+00 -0.00000000000E+00 -0.32133809709E+02  0.32133809709E+02  0.00000000000E+00 0. -1.
         23    2    1    2    0    0  0.79358698670E+00 -0.20049310461E+02  0.23024088325E+03  0.26279591734E+03  0.12509286638E+03 0.  0.
         23    2    1    2    0    0 -0.79358698670E+00  0.20049310461E+02  0.12349920558E+03  0.15521179091E+03  0.91847926642E+02 0.  0.
          5    1    3    3  502    0 -0.27175334360E+02  0.21368841660E+02  0.90340702266E+01  0.35975172221E+02  0.41800000000E+01 0.  1.
         -5    1    3    3    0  502  0.27968921347E+02 -0.41418152121E+02  0.22120681302E+03  0.22682074512E+03  0.41800000000E+01 0.  1.
        -11    1    4    4    0    0  0.21869601431E+02  0.12334436073E+02 -0.40523044542E+01  0.25433028750E+02  0.00000000000E+00 0. -1.
         11    1    4    4    0    0 -0.22663188418E+02  0.77148743875E+01  0.12755151003E+03  0.12977876216E+03  0.00000000000E+00 0.  1.
</event>
<event>
 8    1  0.5951278E-006  0.7217700E+02  0.7561462E-02  0.1352843E+00
          2   -1    0    0  501    0  0.00000000000E+00  0.00000000000E+00  0.51287562932E+03  0.51287562932E+03  0.00000000000E+00 0. -1.
         -2   -1    0    0    0  501 -0.00000000000E+00 -0.00000000000E+00 -0.29087704606E+02  0.29087704606E+02  0.00000000000E+00 0.  1.
         23    2    1    2    0    0 -0.29411102503E+02  0.39427614618E+01  0.16510040770E+03  0.20922903381E+03  0.12505233164E+03 0.  0.
         23    2    1    2    0    0  0.29411102503E+02 -0.39427614618E+01  0.31868751702E+03  0.33273430012E+03  0.90938565267E+02 0.  0.
          5    1    3    3  502    0  0.95763625619E+00 -0.14543933374E+02 -0.17498537641E+02  0.23154141849E+02  0.41800000000E+01 0. -1.
         -5    1    3    3    0  502 -0.30368738759E+02  0.18486694836E+02  0.18259894534E+03  0.18607489196E+03  0.41800000000E+01 0. -1.
        -11    1    4    4    0    0  0.14282484487E+01  0.40689256565E+02  0.17558798692E+03  0.18024648858E+03  0.00000000000E+00 0. -1.
         11    1    4    4    0    0  0.27982854054E+02 -0.44632018027E+02  0.14309953010E+03  0.15248781154E+03  0.00000000000E+00 0.  1.
</event>
<event>
 8    1  0.5951278E-006  0.1591371E+03  0.7561462E-02  0.1189674E+00
          2   -1    0    0  501    0  0.00000000000E+00  0.00000000000E+00  0.78027315676E+03  0.78027315676E+03  0.00000000000E+00 0.  1.
         -2   -1    0    0    0  501 -0.00000000000E+00 -0.00000000000E+00 -0.64712643106E+02  0.64712643106E+02  0.00000000000E+00 0. -1.
         23    2    1    2    0    0  0.43431115570E+02 -0.11704976235E+03  0.76120198095E+02  0.18689274159E+03  0.11639460312E+03 0.  0.
         23    2    1    2    0    0 -0.43431115570E+02  0.11704976235E+03  0.63944031556E+03  0.65809305828E+03  0.92820512422E+02 0.  0.
          5    1    3    3  502    0 -0.36686909756E+02 -0.15571563500E+02  0.27935395651E+02  0.48849377350E+02  0.41800000000E+01 0.  1.
         -5    1    3    3    0  502  0.80118025326E+02 -0.10147819885E+03  0.48184802444E+02  0.13804336424E+03  0.41800000000E+01 0. -1.
        -11    1    4    4    0    0 -0.54069062407E+02  0.31386042158E+02  0.36753576528E+03  0.37281508273E+03  0.00000000000E+00 0.  1.
         11    1    4    4    0    0  0.10637946837E+02  0.85663720190E+02  0.27190455028E+03  0.28527797555E+03  0.00000000000E+00 0. -1.
</event>
<event>
 8    1  0.5951278E-006  0.1186198E+03  0.7561462E-02  0.1245391E+00
         -2   -1    0    0    0  501 -0.00000000000E+00  0.00000000000E+00  0.45801900726E+02  0.45801900726E+02  0.00000000000E+00 0.  1.
          2   -1    0    0  501    0  0.00000000000E+00 -0.00000000000E+00 -0.41937408637E+03  0.41937408637E+03  0.00000000000E+00 0. -1.
         23    2    1    2    0    0  0.68180787273E+02  0.28232947109E+02 -0.13628016205E+03  0.19920325980E+03  0.12515565146E+03 0.  0.
         23    2    1    2    0    0 -0.68180787273E+02 -0.28232947109E+02 -0.23729202360E+03  0.26597272729E+03  0.94806477346E+02 0.  0.
          5    1    3    3  502    0 -0.11659075043E+02 -0.27860047936E+02  0.12602473158E+01  0.30515191711E+02  0.41800000000E+01 0. -1.
         -5    1    3    3    0  502  0.79839862316E+02  0.56092995045E+02 -0.13754040936E+03  0.16868806809E+03  0.41800000000E+01 0. -1.
        -11    1    4    4    0    0  0.14734284527E+02 -0.21275901143E+02 -0.11621261512E+03  0.11905937604E+03  0.00000000000E+00 0. -1.
         11    1    4    4    0    0 -0.82915071800E+02 -0.69570459663E+01 -0.12107940848E+03  0.14691335126E+03  0.00000000000E+00 0.  1.
</event>
<event>
 8    1  0.5951278E-006  0.1450478E+03  0.7561462E-02  0.1206694E+00
          2   -1    0    0  501    0  0.00000000000E+00  0.00000000000E+00  0.59470053045E+03  0.59470053045E+03  0.00000000000E+00 0. -1.
         -2   -1    0    0    0  501 -0.00000000000E+00 -0.00000000000E+00 -0.47212981003E+02  0.47212981003E+02  0.00000000000E+00 0.  1.
         23    2    1    2    0    0 -0.22549416737E+02 -0.12374759309E+03  0.25290597317E+03  0.30892065864E+03  0.12509436072E+03 0.  0.
         23    2    1    2    0    0  0.22549416737E+02  0.12374759309E+03  0.29458157628E+03  0.33299285281E+03  0.91016437788E+02 0.  0.
          5    1    3    3  502    0  0.21945909163E+01  0.18048457069E+02  0.90361775519E+00  0.18677578990E+02  0.41800000000E+01 0.  1.
         -5    1    3    3    0  502 -0.24744007653E+02 -0.14179605016E+03  0.25200235541E+03  0.29024307965E+03  0.41800000000E+01 0.  1.
        -11    1    4    4    0    0  0.55624388923E+01  0.84394160953E+02  0.27137782166E+03  0.28425206634E+03  0.00000000000E+00 0. -1.
         11    1    4    4    0    0  0.16986977844E+02  0.39353432133E+02  0.23203754618E+02  0.48740786466E+02  0.00000000000E+00 0.  1.
</event>
<event>
 8    1  0.5951278E-006  0.9538626E+02  0.7561462E-02  0.1290308E+00
          1   -1    0    0  501    0  0.00000000000E+00  0.00000000000E+00  0.32619950810E+02  0.32619950810E+02  0.00000000000E+00 0. -1.
         -1   -1    0    0    0  501 -0.00000000000E+00 -0.00000000000E+00 -0.36838446602E+03  0.36838446602E+03  0.00000000000E+00 0.  1.
         23    2    1    2    0    0 -0.47835674904E+01  0.14173197228E+02 -0.19349737806E+03  0.23089565386E+03  0.12509118921E+03 0.  0.
         23    2    1    2    0    0  0.47835674904E+01 -0.14173197228E+02 -0.14226713715E+03  0.17010876297E+03  0.92050480111E+02 0.  0.
          5    1    3    3  502    0 -0.37086571096E+02  0.42595957110E+02 -0.34924706551E+02  0.66535981585E+02  0.41800000000E+01 0. -1.
         -5    1    3    3    0  502  0.32303003606E+02 -0.28422759882E+02 -0.15857267150E+03  0.16435967227E+03  0.41800000000E+01 0. -1.
        -11    1    4    4    0    0  0.46868268294E+02 -0.12477425791E+01 -0.92217795702E+02  0.10345198538E+03  0.00000000000E+00 0.  1.
         11    1    4    4    0    0 -0.42084700803E+02 -0.12925454649E+02 -0.50049341448E+02  0.66656777592E+02  0.00000000000E+00 0. -1.
</event>
<event>
 8    1  0.5951278E-006  0.1022632E+03  0.7561462E-02  0.1275607E+00
         -1   -1    0    0    0  501 -0.00000000000E+00  0.00000000000E+00  0.28482542488E+03  0.28482542488E+03  0.00000000000E+00 0.  1.
          1   -1    0    0  501    0  0.00000000000E+00 -0.00000000000E+00 -0.74589314644E+02  0.74589314644E+02  0.00000000000E+00 0. -1.
         23    2    1    2    0    0 -0.22806342787E+02 -0.51008299226E+02  0.20965743657E+03  0.25048431971E+03  0.12515661329E+03 0.  0.
         23    2    1    2    0    0  0.22806342787E+02  0.51008299226E+02  0.57867365974E+00  0.10893041981E+03  0.93506821328E+02 0.  0.
          5    1    3    3  502    0 -0.34735148127E+02 -0.78954738193E+02  0.20076265086E+03  0.21854861147E+03  0.41800000000E+01 0. -1.
         -5    1    3    3    0  502  0.11928805340E+02  0.27946438967E+02  0.88947857174E+01  0.31935708239E+02  0.41800000000E+01 0. -1.
        -11    1    4    4    0    0  0.46596192700E+02  0.39417679321E+02  0.31128796776E+02  0.68512485037E+02  0.00000000000E+00 0.  1.
         11    1    4    4    0    0 -0.23789849913E+02  0.11590619905E+02 -0.30550123116E+02  0.40417934770E+02  0.00000000000E+00 0. -1.
</event>
<event>
 8    1  0.5951278E-006  0.1777316E+03  0.7561462E-02  0.1170017E+00
          1   -1    0    0  501    0  0.00000000000E+00  0.00000000000E+00  0.39781165478E+02  0.39781165478E+02  0.00000000000E+00 0. -1.
         -1   -1    0    0    0  501 -0.00000000000E+00 -0.00000000000E+00 -0.86507201748E+03  0.86507201748E+03  0.00000000000E+00 0.  1.
         23    2    1    2    0    0  0.70917837210E+02  0.13370026940E+03 -0.50482521636E+03  0.53992946291E+03  0.11734659848E+03 0.  0.
         23    2    1    2    0    0 -0.70917837210E+02 -0.13370026940E+03 -0.32046563565E+03  0.36492372005E+03  0.86982734798E+02 0.  0.
          5    1    3    3  502    0  0.48997503914E+02  0.22746108085E+01 -0.73410251561E+02  0.88388159153E+02  0.41800000000E+01 0. -1.
         -5    1    3    3    0  502  0.21920333297E+02  0.13142565859E+03 -0.43141496480E+03  0.45154130376E+03  0.41800000000E+01 0.  1.
        -11    1    4    4    0    0  0.34831625305E+01  0.10283793608E+02 -0.10294092001E+02  0.14961856913E+02  0.00000000000E+00 0.  1.
         11    1    4    4    0    0 -0.74400999741E+02 -0.14398406301E+03 -0.31017154365E+03  0.34996186314E+03  0.00000000000E+00 0. -1.
</event>
<event>
 8    1  0.5951278E-006  0.7612152E+02  0.7561462E-02  0.1340433E+00
          2   -1    0    0  501    0  0.00000000000E+00  0.00000000000E+00  0.28104460895E+03  0.28104460895E+03  0.00000000000E+00 0. -1.
         -2   -1    0    0    0  501 -0.00000000000E+00 -0.00000000000E+00 -0.59101264106E+02  0.59101264106E+02  0.00000000000E+00 0.  1.
         23    2    1    2    0    0 -0.50742831464E+01 -0.70014436178E+02  0.13848090220E+03  0.19938468078E+03  0.12509804568E+03 0.  0.
         23    2    1    2    0    0  0.50742831464E+01  0.70014436178E+02  0.83462442645E+02  0.14076119228E+03  0.88994181249E+02 0.  0.
          5    1    3    3  502    0 -0.19988774252E+02 -0.24536673324E+02  0.14714376086E+03  0.15056678981E+03  0.41800000000E+01 0.  1.
         -5    1    3    3    0  502  0.14914491105E+02 -0.45477762854E+02 -0.86628586540E+01  0.48817890974E+02  0.41800000000E+01 0.  1.
        -11    1    4    4    0    0  0.76912132203E+01  0.12322776227E+02  0.81702124221E+02  0.82983387958E+02  0.00000000000E+00 0. -1.
         11    1    4    4    0    0 -0.26169300739E+01  0.57691659951E+02  0.17603184232E+01  0.57777804319E+02  0.00000000000E+00 0.  1.
</event>
<event>
 8    1  0.5951278E-006  0.2151027E+03  0.7561462E-02  0.1137588E+00
          2   -1    0    0  501    0  0.00000000000E+00  0.00000000000E+00  0.96435753910E+03  0.96435753910E+03  0.00000000000E+00 0. -1.
         -2   -1    0    0    0  501 -0.00000000000E+00 -0.00000000000E+00 -0.55435531559E+02  0.55435531559E+02  0.00000000000E+00 0.  1.
         23    2    1    2    0    0  0.14212615423E+02 -0.20159914060E+03  0.53248603722E+03  0.58312604037E+03  0.12510150759E+03 0.  0.
         23    2    1    2    0    0 -0.14212615423E+02  0.20159914060E+03  0.37643597033E+03  0.43666703029E+03  0.90165645675E+02 0.  0.
          5    1    3    3  502    0 -0.44478817841E+02 -0.64095765867E+02  0.26937624872E+03  0.28047757168E+03  0.41800000000E+01 0. -1.
         -5    1    3    3    0  502  0.58691433264E+02 -0.13750337473E+03  0.26310978849E+03  0.30264846869E+03  0.41800000000E+01 0. -1.
        -11    1    4    4    0    0 -0.31693091408E+01  0.13240376051E+03  0.32122940028E+03  0.34746097324E+03  0.00000000000E+00 0. -1.
         11    1    4    4    0    0 -0.11043306283E+02  0.69195380084E+02  0.55206570046E+02  0.89206057052E+02  0.00000000000E+00 0.  1.
</event>
<event>
 8    1  0.5951278E-006  0.1107214E+03  0.7561462E-02  0.1259240E+00
          2   -1    0    0  501    0  0.00000000000E+00  0.00000000000E+00  0.48499520925E+03  0.48499520925E+03  0.00000000000E+00 0. -1.
         -2   -1    0    0    0  501 -0.00000000000E+00 -0.00000000000E+00 -0.28395925125E+02  0.28395925125E+02  0.00000000000E+00 0.  1.
         23    2    1    2    0    0  0.19199583424E+02  0.39069705226E+02  0.24976112920E+03  0.28270705959E+03  0.12509034340E+03 0.  0.
         23    2    1    2    0    0 -0.19199583424E+02 -0.39069705226E+02  0.20683815493E+03  0.23068407479E+03  0.92401591741E+02 0.  0.
          5    1    3    3  502    0 -0.47680224598E+02  0.23513383794E+02  0.16578862768E+03  0.17415402523E+03  0.41800000000E+01 0. -1.
         -5    1    3    3    0  502  0.66879808022E+02  0.15556321432E+02  0.83972501518E+02  0.10855303436E+03  0.41800000000E+01 0. -1.
        -11    1    4    4    0    0  0.38281763866E+01 -0.64731509514E+02  0.10762141855E+03  0.12564709702E+03  0.00000000000E+00 0.  1.
         11    1    4    4    0    0 -0.23027759811E+02  0.25661804288E+02  0.99216736381E+02  0.10503697777E+03  0.00000000000E+00 0. -1.
</event>
<event>
 8    1  0.5951278E-006  0.2487888E+03  0.7561462E-02  0.1114073E+00
         -2   -1    0    0    0  501 -0.00000000000E+00  0.00000000000E+00  0.17936185646E+03  0.17936185646E+03  0.00000000000E+00 0. -1.
          2   -1    0    0  501    0  0.00000000000E+00 -0.00000000000E+00 -0.60101083862E+03  0.60101083862E+03  0.00000000000E+00 0.  1.
         23    2    1    2    0    0 -0.16274127247E+03  0.17298334391E+03  0.21178029302E+02  0.26926704101E+03  0.12509305101E+03 0.  0.
         23    2    1    2    0    0  0.16274127247E+03 -0.17298334391E+03 -0.44282701146E+03  0.51110565408E+03  0.93409145782E+02 0.  0.
          5    1    3    3  502    0 -0.54938730362E+02  0.23115777249E+02 -0.43173501104E+02  0.73715852089E+02  0.41800000000E+01 0. -1.
         -5    1    3    3    0  502 -0.10780254211E+03  0.14986756666E+03  0.64351530406E+02  0.19555118892E+03  0.41800000000E+01 0. -1.
        -11    1    4    4    0    0  0.12003145896E+03 -0.63811724528E+02 -0.26970889797E+03  0.30203042391E+03  0.00000000000E+00 0.  1.
         11    1    4    4    0    0  0.42709813509E+02 -0.10917161938E+03 -0.17311811349E+03  0.20907523016E+03  0.00000000000E+00 0. -1.
</event>
<event>
 8    1  0.5951278E-006  0.9344904E+02  0.7561462E-02  0.1294708E+00
         -2   -1    0    0    0  501 -0.00000000000E+00  0.00000000000E+00  0.27512363034E+02  0.27512363034E+02  0.00000000000E+00 0.  1.
          2   -1    0    0  501    0  0.00000000000E+00 -0.00000000000E+00 -0.42777780797E+03  0.42777780797E+03  0.00000000000E+00 0. -1.
         23    2    1    2    0    0 -0.79485993068E+01  0.61754197706E+00 -0.19262769674E+03  0.22981859891E+03  0.12509035640E+03 0.  0.
         23    2    1    2    0    0  0.79485993068E+01 -0.61754197706E+00 -0.20763774819E+03  0.22547157209E+03  0.87523903924E+02 0.  0.
          5    1    3    3  502    0 -0.60912097355E+02 -0.25333391214E+02 -0.96771271699E+02  0.11719307036E+03  0.41800000000E+01 0. -1.
         -5    1    3    3    0  502  0.52963498049E+02  0.25950933191E+02 -0.95856425045E+02  0.11262552855E+03  0.41800000000E+01 0. -1.
        -11    1    4    4    0    0 -0.57839461191E+01 -0.29301228372E+02 -0.21911328107E+02  0.37042169432E+02  0.00000000000E+00 0.  1.
         11    1    4    4    0    0  0.13732545426E+02  0.28683686395E+02 -0.18572642008E+03  0.18842940266E+03  0.00000000000E+00 0. -1.
</event>
<event>
 8    1  0.5951278E-006  0.1093449E+03  0.7561462E-02  0.1261788E+00
         -2   -1    0    0    0  501 -0.00000000000E+00  0.00000000000E+00  0.76028283194E+03  0.76028283194E+03  0.00000000000E+00 0.  1.
          2   -1    0    0  501    0  0.00000000000E+00 -0.00000000000E+00 -0.17171722012E+02  0.17171722012E+02  0.00000000000E+00 0. -1.
         23    2    1    2    0    0  0.22082295321E+02 -0.27265101981E+02  0.47075038699E+03  0.48834727305E+03  0.12508444625E+03 0.  0.
         23    2    1    2    0    0 -0.22082295321E+02  0.27265101981E+02  0.27236072294E+03  0.28910728090E+03  0.90397139988E+02 0.  0.
          5    1    3    3  502    0  0.54101714975E+01  0.46535065535E+02  0.26380405169E+03  0.26796423711E+03  0.41800000000E+01 0.  1.
         -5    1    3    3    0  502  0.16672123824E+02 -0.73800167515E+02  0.20694633530E+03  0.22038303595E+03  0.41800000000E+01 0.  1.
        -11    1    4    4    0    0  0.25832948661E+02  0.38783813673E+02  0.11087908967E+03  0.12027343001E+03  0.00000000000E+00 0. -1.
         11    1    4    4    0    0 -0.47915243982E+02 -0.11518711692E+02  0.16148163327E+03  0.16883385090E+03  0.00000000000E+00 0.  1.
</event>
<event>
 8    1  0.5951278E-006  0.8266526E+02  0.7561462E-02  0.1321654E+00
          2   -1    0    0  501    0  0.00000000000E+00  0.00000000000E+00  0.25899098763E+03  0.25899098763E+03  0.00000000000E+00 0. -1.
         -2   -1    0    0    0  501 -0.00000000000E+00 -0.00000000000E+00 -0.62978722403E+02  0.62978722403E+02  0.00000000000E+00 0.  1.
         23    2    1    2    0    0  0.34011144218E+02 -0.30614065570E+02  0.46234155840E+02  0.14098919319E+03  0.12508547673E+03 0.  0.
         23    2    1    2    0    0 -0.34011144218E+02  0.30614065570E+02  0.14977810939E+03  0.18098051684E+03  0.90699980613E+02 0.  0.
          5    1    3    3  502    0  0.44730641886E+02 -0.39972188660E+02  0.82337399889E+02  0.10195845237E+03  0.41800000000E+01 0. -1.
         -5    1    3    3    0  502 -0.10719497667E+02  0.93581230900E+01 -0.36103244049E+02  0.39030740819E+02  0.41800000000E+01 0. -1.
        -11    1    4    4    0    0 -0.23754846372E+02  0.57164247351E+02  0.57776546804E+02  0.84676875603E+02  0.00000000000E+00 0.  1.
         11    1    4    4    0    0 -0.10256297846E+02 -0.26550181781E+02  0.92001562582E+02  0.96303641238E+02  0.00000000000E+00 0. -1.
</event>
<event>
 8    1  0.5951278E-006  0.1288604E+03  0.7561462E-02  0.1229157E+00
          2   -1    0    0  501    0  0.00000000000E+00  0.00000000000E+00  0.29822792444E+03  0.29822792444E+03  0.00000000000E+00 0. -1.
         -2   -1    0    0    0  501 -0.00000000000E+00 -0.00000000000E+00 -0.10566654148E+03  0.10566654148E+03  0.00000000000E+00 0.  1.
         23    2    1    2    0    0  0.10683914090E+03  0.45559909921E+02  0.16768705053E+02  0.17152052894E+03  0.12509114661E+03 0.  0.
         23    2    1    2    0    0 -0.10683914090E+03 -0.45559909921E+02  0.17579267790E+03  0.23237393698E+03  0.98001395724E+02 0.  0.
          5    1    3    3  502    0  0.87296903181E+02  0.62527450978E+02 -0.35394568336E+02  0.11314008705E+03  0.41800000000E+01 0. -1.
         -5    1    3    3    0  502  0.19542237716E+02 -0.16967541057E+02  0.52163273389E+02  0.58380441889E+02  0.41800000000E+01 0. -1.
        -11    1    4    4    0    0 -0.43559929660E+02 -0.42241134446E+02  0.19515607360E+02  0.63738840921E+02  0.00000000000E+00 0.  1.
         11    1    4    4    0    0 -0.63279211237E+02 -0.33187754752E+01  0.15627707054E+03  0.16863509606E+03  0.00000000000E+00 0. -1.
</event>
<event>
 8    1  0.5951278E-006  0.9600481E+02  0.7561462E-02  0.1288929E+00
          2   -1    0    0  501    0  0.00000000000E+00  0.00000000000E+00  0.48559324986E+03  0.48559324986E+03  0.00000000000E+00 0. -1.
         -2   -1    0    0    0  501 -0.00000000000E+00 -0.00000000000E+00 -0.27490429600E+02  0.27490429600E+02  0.00000000000E+00 0.  1.
         23    2    1    2    0    0 -0.62423936570E+02 -0.13333534209E+02  0.26049697371E+03  0.29594004609E+03  0.12508919450E+03 0.  0.
         23    2    1    2    0    0  0.62423936570E+02  0.13333534209E+02  0.19760584655E+03  0.21714363337E+03  0.63472481666E+02 0.  0.
          5    1    3    3  502    0  0.23572121287E+02  0.17523942056E+02  0.13580094346E+02  0.32628588838E+02  0.41800000000E+01 0. -1.
         -5    1    3    3    0  502 -0.85996057856E+02 -0.30857476265E+02  0.24691687936E+03  0.26331145726E+03  0.41800000000E+01 0. -1.
        -11    1    4    4    0    0  0.35566326135E+02  0.22979209806E+02  0.44600128642E+02  0.61499423680E+02  0.00000000000E+00 0.  1.
         11    1    4    4    0    0  0.26857610435E+02 -0.96456755970E+01  0.15300571791E+03  0.15564420969E+03  0.00000000000E+00 0. -1.
</event>
<event>
 8    1  0.5951278E-006  0.1652677E+03  0.7561462E-02  0.1182875E+00
          1   -1    0    0  501    0  0.00000000000E+00  0.00000000000E+00  0.16724251595E+03  0.16724251595E+03  0.00000000000E+00 0. -1.
         -1   -1    0    0    0  501 -0.00000000000E+00 -0.00000000000E+00 -0.23630979057E+03  0.23630979057E+03  0.00000000000E+00 0.  1.
         23    2    1    2    0    0 -0.11940798319E+03 -0.67907781052E+02 -0.13019561225E+03  0.22686617357E+03  0.12509048759E+03 0.  0.
         23    2    1    2    0    0  0.11940798319E+03  0.67907781052E+02  0.61128337636E+02  0.17668613295E+03  0.92798613875E+02 0.  0.
          5    1    3    3  502    0  0.17511139664E+02 -0.41784914999E+01 -0.55165965351E+02  0.58179514750E+02  0.41800000000E+01 0. -1.
         -5    1    3    3    0  502 -0.13691912286E+03 -0.63729289552E+02 -0.75029646898E+02  0.16868665882E+03  0.41800000000E+01 0. -1.
        -11    1    4    4    0    0  0.17283089422E+02  0.55460541354E+02  0.22190441103E+01  0.58133475588E+02  0.00000000000E+00 0.  1.
         11    1    4    4    0    0  0.10212489377E+03  0.12447239698E+02  0.58909293525E+02  0.11855265736E+03  0.00000000000E+00 0. -1.
</event>
<event>
 8    1  0.5951278E-006  0.1423364E+03  0.7561462E-02  0.1210219E+00
         -2   -1    0    0    0  501 -0.00000000000E+00  0.00000000000E+00  0.27097030872E+03  0.27097030872E+03  0.00000000000E+00 0.  1.
          2   -1    0    0  501    0  0.00000000000E+00 -0.00000000000E+00 -0.87889082285E+02  0.87889082285E+02  0.00000000000E+00 0. -1.
         23    2    1    2    0    0  0.55710543432E+02 -0.90971985954E+02  0.67607986995E+02  0.17775692942E+03  0.12508844540E+03 0.  0.
         23    2    1    2    0    0 -0.55710543432E+02  0.90971985954E+02  0.11547323944E+03  0.18110246158E+03  0.89913656844E+02 0.  0.
          5    1    3    3  502    0  0.17110486445E+01  0.21497354359E+02  0.46128011836E+02  0.51091386826E+02  0.41800000000E+01 0. -1.
         -5    1    3    3    0  502  0.53999494787E+02 -0.11246934031E+03  0.21479975160E+02  0.12666554259E+03  0.41800000000E+01 0. -1.
        -11    1    4    4    0    0  0.97422388734E+01  0.67716422878E+02  0.43471327686E+02  0.81056655966E+02  0.00000000000E+00 0. -1.
         11    1    4    4    0    0 -0.65452782305E+02  0.23255563076E+02  0.72001911750E+02  0.10004580561E+03  0.00000000000E+00 0.  1.
</event>
<event>
 8    1  0.5951278E-006  0.1201235E+03  0.7561462E-02  0.1242893E+00
          2   -1    0    0  501    0  0.00000000000E+00  0.00000000000E+00  0.54945935520E+03  0.54945935520E+03  0.00000000000E+00 0. -1.
         -2   -1    0    0    0  501 -0.00000000000E+00 -0.00000000000E+00 -0.37897515531E+02  0.37897515531E+02  0.00000000000E+00 0.  1.
         23    2    1    2    0    0  0.18339737319E+02 -0.82767478565E+02  0.19115127403E+03  0.24366662896E+03  0.12509122683E+03 0.  0.
         23    2    1    2    0    0 -0.18339737319E+02  0.82767478565E+02  0.32041056564E+03  0.34369024177E+03  0.90957408963E+02 0.  0.
          5    1    3    3  502    0  0.39201936914E+02  0.13458850930E+02  0.10428278218E+03  0.11229560804E+03  0.41800000000E+01 0.  1.
         -5    1    3    3    0  502 -0.20862199595E+02 -0.96226329495E+02  0.86868491850E+02  0.13137102092E+03  0.41800000000E+01 0.  1.
        -11    1    4    4    0    0 -0.34062805231E+02  0.31433039097E+02  0.50722748690E+02  0.68710318598E+02  0.00000000000E+00 0.  1.
         11    1    4    4    0    0  0.15723067912E+02  0.51334439468E+02  0.26968781695E+03  0.27497992318E+03  0.00000000000E+00 0. -1.
</event>
<event>
 8    1  0.5951278E-006  0.1021560E+03  0.7561462E-02  0.1275827E+00
          1   -1    0    0  501    0  0.00000000000E+00  0.00000000000E+00  0.16836522351E+03  0.16836522351E+03  0.00000000000E+00 0. -1.
         -1   -1    0    0    0  501 -0.00000000000E+00 -0.00000000000E+00 -0.11206060240E+03  0.11206060240E+03  0.00000000000E+00 0.  1.
         23    2    1    2    0    0 -0.58851688176E+01 -0.72733391404E+02 -0.13296626345E+02  0.14543033462E+03  0.12509356706E+03 0.  0.
         23    2    1    2    0    0  0.58851688176E+01  0.72733391404E+02  0.69601247459E+02  0.13499549129E+03  0.89747799876E+02 0.  0.
          5    1    3    3  502    0 -0.51526055921E+02 -0.41696885898E+02  0.32172233145E+02  0.73797626777E+02  0.41800000000E+01 0.  1.
         -5    1    3    3    0  502  0.45640887104E+02 -0.31036505506E+02 -0.45468859491E+02  0.71632707844E+02  0.41800000000E+01 0.  1.
        -11    1    4    4    0    0 -0.16364988646E+02  0.36883194417E+02 -0.12873272089E+02  0.42354504105E+02  0.00000000000E+00 0.  1.
         11    1    4    4    0    0  0.22250157463E+02  0.35850196987E+02  0.82474519548E+02  0.92640987181E+02  0.00000000000E+00 0. -1.
</event>
<event>
 8    1  0.5951278E-006  0.9460737E+02  0.7561462E-02  0.1292063E+00
          1   -1    0    0  501    0  0.00000000000E+00  0.00000000000E+00  0.11388428013E+03  0.11388428013E+03  0.00000000000E+00 0. -1.
         -1   -1    0    0    0  501 -0.00000000000E+00 -0.00000000000E+00 -0.13077224664E+03  0.13077224664E+03  0.00000000000E+00 0.  1.
         23    2    1    2    0    0  0.33394661840E+02 -0.43489330037E+02 -0.81063446367E+01  0.13682123303E+03  0.12509121360E+03 0.  0.
         23    2    1    2    0    0 -0.33394661840E+02  0.43489330037E+02 -0.87816218683E+01  0.10783529374E+03  0.92438132969E+02 0.  0.
          5    1    3    3  502    0 -0.19272466543E+02 -0.20525540217E+02 -0.55401765982E+02  0.62286064588E+02  0.41800000000E+01 0.  1.
         -5    1    3    3    0  502  0.52667128383E+02 -0.22963789820E+02  0.47295421346E+02  0.74535168446E+02  0.41800000000E+01 0.  1.
        -11    1    4    4    0    0 -0.29049431395E+02 -0.22665656229E+02 -0.17812719935E+02  0.40925474073E+02  0.00000000000E+00 0.  1.
         11    1    4    4    0    0 -0.43452304452E+01  0.66154986266E+02  0.90310980665E+01  0.66909819667E+02  0.00000000000E+00 0. -1.
</event>
<event>
 8    1  0.5951278E-006  0.7496351E+02  0.7561462E-02  0.1343984E+00
         -1   -1    0    0    0  501 -0.00000000000E+00  0.00000000000E+00  0.25182603241E+02  0.25182603241E+02  0.00000000000E+00 0.  1.
          1   -1    0    0  501    0  0.00000000000E+00 -0.00000000000E+00 -0.58246584124E+03  0.58246584124E+03  0.00000000000E+00 0. -1.
         23    2    1    2    0    0 -0.52925720089E+02  0.77140864134E+01 -0.28232919439E+03  0.31339495554E+03  0.12508391256E+03 0.  0.
         23    2    1    2    0    0  0.52925720089E+02 -0.77140864134E+01 -0.27495404362E+03  0.29425348894E+03  0.90137398888E+02 0.  0.
          5    1    3    3  502    0 -0.58096378330E+02  0.87997643626E+01 -0.40534083950E+02  0.71506009465E+02  0.41800000000E+01 0. -1.
         -5    1    3    3    0  502  0.51706582413E+01 -0.10856779493E+01 -0.24179511044E+03  0.24188894608E+03  0.41800000000E+01 0. -1.
        -11    1    4    4    0    0 -0.12825156983E+02  0.99132063864E+01 -0.67731124660E+01  0.17567907245E+02  0.00000000000E+00 0.  1.
         11    1    4    4    0    0  0.65750877072E+02 -0.17627292800E+02 -0.26818093115E+03  0.27668558170E+03  0.00000000000E+00 0. -1.
</event>
<event>
 8    1  0.5951278E-006  0.1178815E+03  0.7561462E-02  0.1246633E+00
         -2   -1    0    0    0  501 -0.00000000000E+00  0.00000000000E+00  0.81811453470E+02  0.81811453470E+02  0.00000000000E+00 0.  1.
          2   -1    0    0  501    0  0.00000000000E+00 -0.00000000000E+00 -0.20651452098E+03  0.20651452098E+03  0.00000000000E+00 0. -1.
         23    2    1    2    0    0 -0.75441596458E+01  0.68867178666E+02 -0.49383658406E+02  0.15127760737E+03  0.12508623478E+03 0.  0.
         23    2    1    2    0    0  0.75441596458E+01 -0.68867178666E+02 -0.75319409102E+02  0.13704836708E+03  0.91157220720E+02 0.  0.
          5    1    3    3  502    0 -0.27173946103E+02 -0.23526243633E+02 -0.43448539761E+02  0.56543394784E+02  0.41800000000E+01 0.  1.
         -5    1    3    3    0  502  0.19629786458E+02  0.92393422300E+02 -0.59351186451E+01  0.94734212584E+02  0.41800000000E+01 0.  1.
        -11    1    4    4    0    0  0.36522402439E+02 -0.76714905900E+01 -0.21862554682E+01  0.37383383484E+02  0.00000000000E+00 0.  1.
         11    1    4    4    0    0 -0.28978242793E+02 -0.61195688076E+02 -0.73133153634E+02  0.99664983595E+02  0.00000000000E+00 0. -1.
</event>
<event>
 8    1  0.5951278E-006  0.1394740E+03  0.7561462E-02  0.1214039E+00
          1   -1    0    0  501    0  0.00000000000E+00  0.00000000000E+00  0.31696074246E+02  0.31696074246E+02  0.00000000000E+00 0. -1.
         -1   -1    0    0    0  501 -0.00000000000E+00 -0.00000000000E+00 -0.65349085074E+03  0.65349085074E+03  0.00000000000E+00 0.  1.
         23    2    1    2    0    0  0.95880533666E+01 -0.93835853678E+02 -0.33055027261E+03  0.36579909297E+03  0.12509354697E+03 0.  0.
         23    2    1    2    0    0 -0.95880533666E+01  0.93835853678E+02 -0.29124450389E+03  0.31938783202E+03  0.91039156370E+02 0.  0.
          5    1    3    3  502    0 -0.69403916648E+01 -0.12205444813E+03 -0.23882560784E+03  0.26832927664E+03  0.41800000000E+01 0. -1.
         -5    1    3    3    0  502  0.16528445031E+02  0.28218594451E+02 -0.91724664767E+02  0.97469816325E+02  0.41800000000E+01 0. -1.
        -11    1    4    4    0    0 -0.41829425501E+02  0.27960719939E+02 -0.69296358026E+02  0.85635786520E+02  0.00000000000E+00 0.  1.
         11    1    4    4    0    0  0.32241372134E+02  0.65875133739E+02 -0.22194814587E+03  0.23375204550E+03  0.00000000000E+00 0. -1.
</event>
<event>
 8    1  0.5951278E-006  0.1049050E+03  0.7561462E-02  0.1270307E+00
          2   -1    0    0  501    0  0.00000000000E+00  0.00000000000E+00  0.60027238382E+03  0.60027238382E+03  0.00000000000E+00 0. -1.
         -2   -1    0    0    0  501 -0.00000000000E+00 -0.00000000000E+00 -0.27728908803E+02  0.27728908803E+02  0.00000000000E+00 0.  1.
         23    2    1    2    0    0 -0.57477426429E+02  0.24249910253E+02  0.24597779060E+03  0.28291968509E+03  0.12508701791E+03 0.  0.
         23    2    1    2    0    0  0.57477426429E+02 -0.24249910253E+02  0.32656568442E+03  0.34508160753E+03  0.92436231647E+02 0.  0.
          5    1    3    3  502    0 -0.62667650342E+02  0.47458367582E+02  0.70151250002E+02  0.10544288184E+03  0.41800000000E+01 0. -1.
         -5    1    3    3    0  502  0.51902239131E+01 -0.23208457329E+02  0.17582654060E+03  0.17747680326E+03  0.41800000000E+01 0. -1.
        -11    1    4    4    0    0 -0.21069275054E+02  0.72977602684E+01  0.35184425800E+02  0.41654717321E+02  0.00000000000E+00 0.  1.
         11    1    4    4    0    0  0.78546701483E+02 -0.31547670521E+02  0.29138125862E+03  0.30342689021E+03  0.00000000000E+00 0. -1.
</event>
<event>
 7    1  0.5951278E-006  0.2185628E+03  0.7561462E-02  0.1134959E+00
         -1   -1    0    0    0  501 -0.00000000000E+00  0.00000000000E+00  0.76147830134E+02  0.76147830134E+02  0.00000000000E+00 0.  1.
          1   -1    0    0  501    0  0.00000000000E+00 -0.00000000000E+00 -0.70121571372E+03  0.70121571372E+03  0.00000000000E+00 0. -1.
         23    2    1    2    0    0 -0.18654960451E+03  0.59727021891E+02 -0.36944674476E+03  0.42788762108E+03  0.90712992307E+02 0.  0.
          5    1    1    2  502    0 -0.18553846211E+02 -0.18961864397E+02 -0.46563609178E+02  0.53753507888E+02  0.41800000000E+01 0. -1.
         -5    1    1    2    0  502  0.20510345072E+03 -0.40765157494E+02 -0.20905752964E+03  0.29572241488E+03  0.41800000000E+01 0.  1.
        -11    1    3    3    0    0 -0.11145709473E+03  0.11919431347E+02 -0.12583398743E+03  0.16851987777E+03  0.00000000000E+00 0.  1.
         11    1    3    3    0    0 -0.75092509778E+02  0.47807590544E+02 -0.24361275733E+03  0.25936774332E+03  0.00000000000E+00 0. -1.
</event>
<event>
 8    1  0.5951278E-006  0.1486174E+03  0.7561462E-02  0.1202182E+00
         -2   -1    0    0    0  501 -0.00000000000E+00  0.00000000000E+00  0.46091817407E+02  0.46091817407E+02  0.00000000000E+00 0.  1.
          2   -1    0    0  501    0  0.00000000000E+00 -0.00000000000E+00 -0.60318421069E+03  0.60318421069E+03  0.00000000000E+00 0. -1.
         23    2    1    2    0    0  0.11598842939E+03 -0.51907221379E+02 -0.29633285694E+03  0.34584420657E+03  0.12508947890E+03 0.  0.
         23    2    1    2    0    0 -0.11598842939E+03  0.51907221379E+02 -0.26075953635E+03  0.30343182153E+03  0.89037403036E+02 0.  0.
          5    1    3    3  502    0  0.63376908997E+02 -0.63366616626E+02 -0.71811790181E+02  0.11491895538E+03  0.41800000000E+01 0.  1.
         -5    1    3    3    0  502  0.52611520394E+02  0.11459395247E+02 -0.22452106676E+03  0.23092525119E+03  0.41800000000E+01 0.  1.
        -11    1    4    4    0    0 -0.22971563998E+02 -0.24168596344E+02 -0.39896226945E+02  0.51995410626E+02  0.00000000000E+00 0.  1.
         11    1    4    4    0    0 -0.93016865393E+02  0.76075817723E+02 -0.22086330940E+03  0.25143641091E+03  0.00000000000E+00 0. -1.
</event>
<event>
 8    1  0.5951278E-006  0.9398014E+02  0.7561462E-02  0.1293490E+00
          2   -1    0    0  501    0  0.00000000000E+00  0.00000000000E+00  0.61277435219E+03  0.61277435219E+03  0.00000000000E+00 0. -1.
         -2   -1    0    0    0  501 -0.00000000000E+00 -0.00000000000E+00 -0.26295847831E+02  0.26295847831E+02  0.00000000000E+00 0.  1.
         23    2    1    2    0    0  0.60837420858E+02  0.20289401950E+02  0.31040686452E+03  0.34075388669E+03  0.12509171894E+03 0.  0.
         23    2    1    2    0    0 -0.60837420858E+02 -0.20289401950E+02  0.27607163984E+03  0.29831631333E+03  0.93081796636E+02 0.  0.
          5    1    3    3  502    0  0.73149946849E+02  0.14658216463E+02  0.31659405555E+03  0.32529224774E+03  0.41800000000E+01 0. -1.
         -5    1    3    3    0  502 -0.12312525990E+02  0.56311854872E+01 -0.61871910277E+01  0.15461638952E+02  0.41800000000E+01 0. -1.
        -11    1    4    4    0    0 -0.32390584864E+02  0.28137580222E+02  0.19516993587E+03  0.19983037126E+03  0.00000000000E+00 0. -1.
         11    1    4    4    0    0 -0.28446835994E+02 -0.48426982172E+02  0.80901703965E+02  0.98485942067E+02  0.00000000000E+00 0.  1.
</event>
<event>
 8    1  0.5951278E-006  0.1050706E+03  0.7561462E-02  0.1269981E+00
         -1   -1    0    0    0  501 -0.00000000000E+00  0.00000000000E+00  0.26336671452E+03  0.26336671452E+03  0.00000000000E+00 0.  1.
          1   -1    0    0  501    0  0.00000000000E+00 -0.00000000000E+00 -0.21981493136E+03  0.21981493136E+03  0.00000000000E+00 0. -1.
         23    2    1    2    0    0  0.28564633087E+02 -0.43949451879E+02  0.23436981646E+03  0.26507029222E+03  0.11218536609E+03 0.  0.
         23    2    1    2    0    0 -0.28564633087E+02  0.43949451879E+02 -0.19081803330E+03  0.21811135367E+03  0.91725395512E+02 0.  0.
          5    1    3    3  502    0 -0.37555640069E+02 -0.77709680130E+01  0.35775769285E+02  0.52613611479E+02  0.41800000000E+01 0. -1.
         -5    1    3    3    0  502  0.66120273157E+02 -0.36178483866E+02  0.19859404718E+03  0.21245668074E+03  0.41800000000E+01 0.  1.
        -11    1    4    4    0    0 -0.12457124931E+02 -0.23571413627E+02 -0.18820212410E+02  0.32634213597E+02  0.00000000000E+00 0.  1.
         11    1    4    4    0    0 -0.16107508156E+02  0.67520865505E+02 -0.17199782089E+03  0.18547714007E+03  0.00000000000E+00 0. -1.
</event>
<event>
 8    1  0.5951278E-006  0.1651165E+03  0.7561462E-02  0.1183038E+00
          1   -1    0    0  501    0  0.00000000000E+00  0.00000000000E+00  0.16699886221E+03  0.16699886221E+03  0.00000000000E+00 0. -1.
         -1   -1    0    0    0  501 -0.00000000000E+00 -0.00000000000E+00 -0.18296768389E+03  0.18296768389E+03  0.00000000000E+00 0.  1.
         23    2    1    2    0    0 -0.12981320623E+03 -0.33161869861E+02 -0.35953756436E+02  0.18679034489E+03  0.12508709854E+03 0.  0.
         23    2    1    2    0    0  0.12981320623E+03  0.33161869861E+02  0.19984934759E+02  0.16317620121E+03  0.90971956672E+02 0.  0.
          5    1    3    3  502    0  0.14124439159E+02  0.10330583567E+02 -0.31530259319E+02  0.36302209177E+02  0.41800000000E+01 0. -1.
         -5    1    3    3    0  502 -0.14393764539E+03 -0.43492453428E+02 -0.44234971168E+01  0.15048813572E+03  0.41800000000E+01 0. -1.
        -11    1    4    4    0    0 -0.30329323377E+01  0.28739175825E+02  0.60771013895E+01  0.29530832480E+02  0.00000000000E+00 0.  1.
         11    1    4    4    0    0  0.13284613857E+03  0.44226940360E+01  0.13907833370E+02  0.13364536873E+03  0.00000000000E+00 0. -1.
</event>
<event>
 7    1  0.5951278E-006  0.2080757E+03  0.7561462E-02  0.1143099E+00
          1   -1    0    0  501    0  0.00000000000E+00  0.00000000000E+00  0.15924009892E+03  0.15924009892E+03  0.00000000000E+00 0. -1.
         -1   -1    0    0    0  501 -0.00000000000E+00 -0.00000000000E+00 -0.42640160614E+03  0.42640160614E+03  0.00000000000E+00 0.  1.
         23    2    1    2    0    0  0.17514453385E+03  0.47489442331E+02  0.21432531472E+02  0.20418904174E+03  0.91120560196E+02 0.  0.
          5    1    1    2  502    0 -0.69202968908E+01  0.39484148693E+02 -0.52802617105E+01  0.40647780638E+02  0.41800000000E+01 0. -1.
         -5    1    1    2    0  502 -0.16822423696E+03 -0.86973591023E+02 -0.28331377698E+03  0.34080488268E+03  0.41800000000E+01 0.  1.
        -11    1    3    3    0    0  0.10986456474E+03  0.80580102727E+01 -0.27545723465E+02  0.11355140244E+03  0.00000000000E+00 0. -1.
         11    1    3    3    0    0  0.65279969118E+02  0.39431432058E+02  0.48978254937E+02  0.90637639306E+02  0.00000000000E+00 0.  1.
</event>
<event>
 8    1  0.5951278E-006  0.9627511E+02  0.7561462E-02  0.1288330E+00
          3   -1    0    0  501    0  0.00000000000E+00  0.00000000000E+00  0.34247610154E+02  0.34247610154E+02  0.00000000000E+00 0. -1.
         -3   -1    0    0    0  501 -0.00000000000E+00 -0.00000000000E+00 -0.59214017346E+03  0.59214017346E+03  0.00000000000E+00 0.  1.
         23    2    1    2    0    0 -0.65191329016E+02 -0.41983606199E+02 -0.43150329201E+03  0.45342059200E+03  0.11568322985E+03 0.  0.
         23    2    1    2    0    0  0.65191329016E+02  0.41983606199E+02 -0.12638927130E+03  0.17296719161E+03  0.89055426038E+02 0.  0.
          5    1    3    3  502    0 -0.14689511971E+02 -0.31392292642E+02 -0.23355085692E+02  0.42002264546E+02  0.41800000000E+01 0. -1.
         -5    1    3    3    0  502 -0.50501817044E+02 -0.10591313556E+02 -0.40814820632E+03  0.41141832746E+03  0.41800000000E+01 0.  1.
        -11    1    4    4    0    0  0.79197512966E+02  0.45623666210E+02 -0.12916494304E+03  0.15823194206E+03  0.00000000000E+00 0. -1.
         11    1    4    4    0    0 -0.14006183950E+02 -0.36400600115E+01  0.27756717402E+01  0.14735249551E+02  0.00000000000E+00 0.  1.
</event>
<event>
 8    1  0.6860327E-006  0.8717699E+02  0.7561462E-02  0.1309836E+00
         -3   -1    0    0    0  501 -0.00000000000E+00  0.00000000000E+00  0.10902224291E+03  0.10902224291E+03  0.00000000000E+00 0.  1.
          3   -1    0    0  501    0  0.00000000000E+00 -0.00000000000E+00 -0.10147951147E+03  0.10147951147E+03  0.00000000000E+00 0. -1.
         23    2    1    2    0    0 -0.24779691346E+02  0.20382226921E+02  0.28888363305E+02  0.13232998927E+03  0.12508884941E+03 0.  0.
         23    2    1    2    0    0  0.24779691346E+02 -0.20382226921E+02 -0.21345631864E+02  0.78171765114E+02  0.68012650176E+02 0.  0.
          5    1    3    3  502    0 -0.44179715967E+02 -0.43082007320E+02  0.21248583998E+02  0.65397869840E+02  0.41800000000E+01 0. -1.
         -5    1    3    3    0  502  0.19400024621E+02  0.63464234242E+02  0.76397793066E+01  0.66932119427E+02  0.41800000000E+01 0. -1.
        -11    1    4    4    0    0 -0.69721481908E+01 -0.10779004654E+02  0.20857877458E+02  0.24491811770E+02  0.00000000000E+00 0.  1.
         11    1    4    4    0    0  0.31751839537E+02 -0.96032222673E+01 -0.42203509322E+02  0.53679953344E+02  0.00000000000E+00 0. -1.
</event>
<event>
 8    1  0.5951278E-006  0.1235947E+03  0.7561462E-02  0.1237282E+00
         -3   -1    0    0    0  501 -0.00000000000E+00  0.00000000000E+00  0.14091396506E+03  0.14091396506E+03  0.00000000000E+00 0.  1.
          3   -1    0    0  501    0  0.00000000000E+00 -0.00000000000E+00 -0.13779311447E+03  0.13779311447E+03  0.00000000000E+00 0. -1.
         23    2    1    2    0    0 -0.88794526912E+02 -0.23003440171E+02  0.20954748349E+02  0.15652757647E+03  0.12509258351E+03 0.  0.
         23    2    1    2    0    0  0.88794526912E+02  0.23003440171E+02 -0.17833897755E+02  0.12217950306E+03  0.78715670546E+02 0.  0.
          5    1    3    3  502    0 -0.70949656798E+01 -0.57917349970E+02  0.32360690325E+02  0.66853905225E+02  0.41800000000E+01 0.  1.
         -5    1    3    3    0  502 -0.81699561232E+02  0.34913909799E+02 -0.11405941976E+02  0.89673671249E+02  0.41800000000E+01 0.  1.
        -11    1    4    4    0    0  0.79580428885E+02  0.32997924609E+02  0.14262495304E+02  0.87323115280E+02  0.00000000000E+00 0.  1.
         11    1    4    4    0    0  0.92140980276E+01 -0.99944844381E+01 -0.32096393059E+02  0.34856387779E+02  0.00000000000E+00 0. -1.
</event>
<event>
 8    1  0.5951278E-006  0.1170698E+03  0.7561462E-02  0.1248011E+00
         -2   -1    0    0    0  501 -0.00000000000E+00  0.00000000000E+00  0.13767866300E+02  0.13767866300E+02  0.00000000000E+00 0.  1.
          2   -1    0    0  501    0  0.00000000000E+00 -0.00000000000E+00 -0.10943014924E+04  0.10943014924E+04  0.00000000000E+00 0. -1.
         23    2    1    2    0    0 -0.86223478001E+01  0.54281458709E+02 -0.52559819465E+03  0.54306722270E+03  0.12509086500E+03 0.  0.
         23    2    1    2    0    0  0.86223478001E+01 -0.54281458709E+02 -0.55493543148E+03  0.56500213604E+03  0.90847448888E+02 0.  0.
          5    1    3    3  502    0 -0.59724136120E+02  0.10616579228E+02 -0.15692156118E+03  0.16829002630E+03  0.41800000000E+01 0.  1.
         -5    1    3    3    0  502  0.51101788320E+02  0.43664879481E+02 -0.36867663347E+03  0.37477719640E+03  0.41800000000E+01 0.  1.
        -11    1    4    4    0    0 -0.32905843162E+02  0.53340660262E+01 -0.15920772248E+03  0.16266021539E+03  0.00000000000E+00 0.  1.
         11    1    4    4    0    0  0.41528190962E+02 -0.59615524735E+02 -0.39572770900E+03  0.40234192064E+03  0.00000000000E+00 0. -1.
</event>
<event>
 8    1  0.5951278E-006  0.1080969E+03  0.7561462E-02  0.1264135E+00
         -2   -1    0    0    0  501 -0.00000000000E+00  0.00000000000E+00  0.34390225938E+02  0.34390225938E+02  0.00000000000E+00 0.  1.
          2   -1    0    0  501    0  0.00000000000E+00 -0.00000000000E+00 -0.36392235433E+03  0.36392235433E+03  0.00000000000E+00 0. -1.
         23    2    1    2    0    0  0.28138791832E+01  0.21775255437E+02 -0.17186141519E+03  0.21369554187E+03  0.12508940370E+03 0.  0.
         23    2    1    2    0    0 -0.28138791832E+01 -0.21775255437E+02 -0.15767071321E+03  0.18461703840E+03  0.93495012704E+02 0.  0.
          5    1    3    3  502    0  0.62710551303E+02  0.31751668280E+01 -0.10072059232E+03  0.11876365205E+03  0.41800000000E+01 0.  1.
         -5    1    3    3    0  502 -0.59896672120E+02  0.18600088609E+02 -0.71140822863E+02  0.94931889821E+02  0.41800000000E+01 0.  1.
        -11    1    4    4    0    0  0.28927061034E+02 -0.43287051585E+02 -0.58610313287E+02  0.78394594958E+02  0.00000000000E+00 0.  1.
         11    1    4    4    0    0 -0.31740940217E+02  0.21511796149E+02 -0.99060399919E+02  0.10622244345E+03  0.00000000000E+00 0. -1.
</event>
<event>
 8    1  0.5951278E-006  0.1637783E+03  0.7561462E-02  0.1184496E+00
         -1   -1    0    0    0  501 -0.00000000000E+00  0.00000000000E+00  0.93343333197E+03  0.93343333197E+03  0.00000000000E+00 0.  1.
          1   -1    0    0  501    0  0.00000000000E+00 -0.00000000000E+00 -0.55531357261E+02  0.55531357261E+02  0.00000000000E+00 0. -1.
         23    2    1    2    0    0  0.12897460322E+03  0.49723522623E+02  0.77362867784E+03  0.79434057921E+03  0.11562330056E+03 0.  0.
         23    2    1    2    0    0 -0.12897460322E+03 -0.49723522623E+02  0.10427329687E+03  0.19462411002E+03  0.88874893996E+02 0.  0.
          5    1    3    3  502    0  0.13965708676E+03  0.66237843262E+02  0.73144038155E+03  0.74760554969E+03  0.41800000000E+01 0. -1.
         -5    1    3    3    0  502 -0.10682483545E+02 -0.16514320639E+02  0.42188296284E+02  0.46735029520E+02  0.41800000000E+01 0.  1.
        -11    1    4    4    0    0 -0.81731653426E+02  0.33109528796E+01  0.91016506582E+02  0.12237250529E+03  0.00000000000E+00 0.  1.
         11    1    4    4    0    0 -0.47242949792E+02 -0.53034475503E+02  0.13256790288E+02  0.72251604727E+02  0.00000000000E+00 0. -1.
</event>
<event>
 8    1  0.5951278E-006  0.1494647E+03  0.7561462E-02  0.1201132E+00
          2   -1    0    0  501    0  0.00000000000E+00  0.00000000000E+00  0.31537287284E+03  0.31537287284E+03  0.00000000000E+00 0. -1.
         -2   -1    0    0    0  501 -0.00000000000E+00 -0.00000000000E+00 -0.10040376083E+03  0.10040376083E+03  0.00000000000E+00 0.  1.
         23    2    1    2    0    0 -0.91399482852E+02  0.10643164393E+03  0.12221099056E+03  0.22420039510E+03  0.12509488660E+03 0.  0.
         23    2    1    2    0    0  0.91399482852E+02 -0.10643164393E+03  0.92758121451E+02  0.19157623857E+03  0.91737810057E+02 0.  0.
          5    1    3    3  502    0 -0.35456627370E+02  0.32482531911E+02 -0.21724872715E+02  0.52931368755E+02  0.41800000000E+01 0.  1.
         -5    1    3    3    0  502 -0.55942855482E+02  0.73949112016E+02  0.14393586327E+03  0.17126902634E+03  0.41800000000E+01 0.  1.
        -11    1    4    4    0    0  0.82014458965E+02 -0.40910028504E+02  0.21145062429E+02  0.94059106824E+02  0.00000000000E+00 0.  1.
         11    1    4    4    0    0  0.93850238874E+01 -0.65521615423E+02  0.71613059021E+02  0.97517131743E+02  0.00000000000E+00 0. -1.
</event>
<event>
 8    1  0.5951278E-006  0.1124337E+03  0.7561462E-02  0.1256128E+00
          2   -1    0    0  501    0  0.00000000000E+00  0.00000000000E+00  0.43635411238E+03  0.43635411238E+03  0.00000000000E+00 0. -1.
         -2   -1    0    0    0  501 -0.00000000000E+00 -0.00000000000E+00 -0.47669070338E+02  0.47669070338E+02  0.00000000000E+00 0.  1.
         23    2    1    2    0    0  0.11653537540E+02  0.88124808408E+02  0.26678696389E+03  0.30777115382E+03  0.12508402069E+03 0.  0.
         23    2    1    2    0    0 -0.11653537540E+02 -0.88124808408E+02  0.12189807816E+03  0.17625202890E+03  0.91125459880E+02 0.  0.
          5    1    3    3  502    0 -0.23795106731E+02  0.91416944881E+02  0.10181497116E+03  0.13894972353E+03  0.41800000000E+01 0. -1.
         -5    1    3    3    0  502  0.35448644271E+02 -0.32921364732E+01  0.16497199273E+03  0.16882143030E+03  0.41800000000E+01 0. -1.
        -11    1    4    4    0    0  0.57663212694E+01 -0.66259979988E+02  0.18348206467E+02  0.68994870024E+02  0.00000000000E+00 0.  1.
         11    1    4    4    0    0 -0.17419858809E+02 -0.21864828419E+02  0.10354987169E+03  0.10725715888E+03  0.00000000000E+00 0. -1.
</event>
<event>
 8    1  0.5951278E-006  0.1071583E+03  0.7561462E-02  0.1265925E+00
          1   -1    0    0  501    0  0.00000000000E+00  0.00000000000E+00  0.25810882254E+03  0.25810882254E+03  0.00000000000E+00 0. -1.
         -1   -1    0    0    0  501 -0.00000000000E+00 -0.00000000000E+00 -0.58774992680E+02  0.58774992680E+02  0.00000000000E+00 0.  1.
         23    2    1    2    0    0  0.89673317699E+01  0.24234351750E+02  0.42692446387E+02  0.13470476866E+03  0.12511999392E+03 0.  0.
         23    2    1    2    0    0 -0.89673317699E+01 -0.24234351750E+02  0.15664138348E+03  0.18217904656E+03  0.89358632183E+02 0.  0.
          5    1    3    3  502    0  0.43302834286E+02 -0.36386081712E+02  0.28537094066E+02  0.63489530926E+02  0.41800000000E+01 0.  1.
         -5    1    3    3    0  502 -0.34335502516E+02  0.60620433461E+02  0.14155352321E+02  0.71215237733E+02  0.41800000000E+01 0.  1.
        -11    1    4    4    0    0 -0.41464726904E+02  0.77816325576E+01  0.45551653547E+02  0.62087281494E+02  0.00000000000E+00 0.  1.
         11    1    4    4    0    0  0.32497395134E+02 -0.32015984307E+02  0.11108972993E+03  0.12009176507E+03  0.00000000000E+00 0. -1.
</event>
<event>
 8    1  0.5951278E-006  0.9164432E+02  0.7561462E-02  0.1298918E+00
          2   -1    0    0  501    0  0.00000000000E+00  0.00000000000E+00  0.13186087176E+03  0.13186087176E+03  0.00000000000E+00 0. -1.
         -2   -1    0    0    0  501 -0.00000000000E+00 -0.00000000000E+00 -0.10968656878E+03  0.10968656878E+03  0.00000000000E+00 0.  1.
         23    2    1    2    0    0  0.39364690683E+02 -0.14652844387E+02 -0.12646715379E+02  0.13255729683E+03  0.12508881970E+03 0.  0.
         23    2    1    2    0    0 -0.39364690683E+02  0.14652844387E+02  0.34821018352E+02  0.10899014370E+03  0.94350746602E+02 0.  0.
          5    1    3    3  502    0  0.67005639815E+02  0.30322848438E+01 -0.49176852670E+02  0.83275361043E+02  0.41800000000E+01 0.  1.
         -5    1    3    3    0  502 -0.27640949132E+02 -0.17685129231E+02  0.36530137291E+02  0.49281935791E+02  0.41800000000E+01 0.  1.
        -11    1    4    4    0    0 -0.27341784179E+02 -0.27734176513E+02 -0.15668865060E+02  0.41979412112E+02  0.00000000000E+00 0.  1.
         11    1    4    4    0    0 -0.12022906504E+02  0.42387020900E+02  0.50489883412E+02  0.67010731593E+02  0.00000000000E+00 0. -1.
</event>
<event>
 8    1  0.5951278E-006  0.1008010E+03  0.7561462E-02  0.1278621E+00
         -3   -1    0    0    0  501 -0.00000000000E+00  0.00000000000E+00  0.10056062845E+04  0.10056062845E+04  0.00000000000E+00 0.  1.
          3   -1    0    0  501    0  0.00000000000E+00 -0.00000000000E+00 -0.17272241299E+02  0.17272241299E+02  0.00000000000E+00 0. -1.
         23    2    1    2    0    0  0.23267144850E+02  0.68420339353E+02  0.60369586112E+03  0.62073953996E+03  0.12508469482E+03 0.  0.
         23    2    1    2    0    0 -0.23267144850E+02 -0.68420339353E+02  0.38463818211E+03  0.40213898586E+03  0.92447444240E+02 0.  0.
          5    1    3    3  502    0  0.44417282770E+02  0.78177113916E+02  0.58106648975E+03  0.58799684868E+03  0.41800000000E+01 0.  1.
         -5    1    3    3    0  502 -0.21150137920E+02 -0.97567745625E+01  0.22629371365E+02  0.32742691280E+02  0.41800000000E+01 0.  1.
        -11    1    4    4    0    0  0.72042083309E+00 -0.63418904840E+02  0.36572978413E+03  0.37118829655E+03  0.00000000000E+00 0.  1.
         11    1    4    4    0    0 -0.23987565684E+02 -0.50014345132E+01  0.18908397981E+02  0.30950689311E+02  0.00000000000E+00 0. -1.
</event>
<event>
 8    1  0.5951278E-006  0.7419010E+02  0.7561462E-02  0.1346398E+00
         -2   -1    0    0    0  501 -0.00000000000E+00  0.00000000000E+00  0.78545341247E+02  0.78545341247E+02  0.00000000000E+00 0.  1.
          2   -1    0    0  501    0  0.00000000000E+00 -0.00000000000E+00 -0.18132236582E+03  0.18132236582E+03  0.00000000000E+00 0. -1.
         23    2    1    2    0    0 -0.25731812916E+02  0.43074601265E+02 -0.64036532396E+02  0.14921755102E+03  0.12509057751E+03 0.  0.
         23    2    1    2    0    0  0.25731812916E+02 -0.43074601265E+02 -0.38740492173E+02  0.11065015604E+03  0.90692247892E+02 0.  0.
          5    1    3    3  502    0 -0.35091045917E+02 -0.11672993729E+02 -0.82526133944E+02  0.90529970009E+02  0.41800000000E+01 0. -1.
         -5    1    3    3    0  502  0.93592330006E+01  0.54747594994E+02  0.18489601547E+02  0.58687581015E+02  0.41800000000E+01 0. -1.
        -11    1    4    4    0    0  0.11060957302E+02 -0.38559040003E+02  0.23536534930E+02  0.46509276697E+02  0.00000000000E+00 0.  1.
         11    1    4    4    0    0  0.14670855614E+02 -0.45155612626E+01 -0.62277027104E+02  0.64140879343E+02  0.00000000000E+00 0. -1.
</event>
<event>
 8    1  0.5951278E-006  0.1243787E+03  0.7561462E-02  0.1236043E+00
         -2   -1    0    0    0  501 -0.00000000000E+00  0.00000000000E+00  0.18745847925E+02  0.18745847925E+02  0.00000000000E+00 0.  1.
          2   -1    0    0  501    0  0.00000000000E+00 -0.00000000000E+00 -0.94034674299E+03  0.94034674299E+03  0.00000000000E+00 0. -1.
         23    2    1    2    0    0  0.71320758616E+02 -0.26480523673E+02 -0.47608189039E+03  0.49808468004E+03  0.12508602395E+03 0.  0.
         23    2    1    2    0    0 -0.71320758616E+02  0.26480523673E+02 -0.44551900467E+03  0.46100791087E+03  0.90847353411E+02 0.  0.
          5    1    3    3  502    0 -0.28691638200E+02 -0.36489867053E+00 -0.21990311754E+03  0.22180666527E+03  0.41800000000E+01 0. -1.
         -5    1    3    3    0  502  0.10001239682E+03 -0.26115625003E+02 -0.25617877285E+03  0.27627801477E+03  0.41800000000E+01 0. -1.
        -11    1    4    4    0    0 -0.31743862993E+02 -0.32403810634E+02 -0.13252380510E+03  0.14007226242E+03  0.00000000000E+00 0.  1.
         11    1    4    4    0    0 -0.39576895622E+02  0.58884334307E+02 -0.31299519957E+03  0.32093564846E+03  0.00000000000E+00 0. -1.
</event>
<event>
 8    1  0.5951278E-006  0.1382163E+03  0.7561462E-02  0.1215749E+00
          1   -1    0    0  501    0  0.00000000000E+00  0.00000000000E+00  0.47314817154E+03  0.47314817154E+03  0.00000000000E+00 0. -1.
         -1   -1    0    0    0  501 -0.00000000000E+00 -0.00000000000E+00 -0.47136356549E+02  0.47136356549E+02  0.00000000000E+00 0.  1.
         23    2    1    2    0    0 -0.57853928431E+02 -0.77662198837E+02  0.17530597905E+03  0.23613195524E+03  0.12509044660E+03 0.  0.
         23    2    1    2    0    0  0.57853928431E+02  0.77662198837E+02  0.25070583595E+03  0.28415257285E+03  0.92253858016E+02 0.  0.
          5    1    3    3  502    0 -0.71940246030E+02 -0.98039324155E+02  0.17215558319E+03  0.21081301028E+03  0.41800000000E+01 0. -1.
         -5    1    3    3    0  502  0.14086317599E+02  0.20377125318E+02  0.31503958570E+01  0.25318944958E+02  0.41800000000E+01 0. -1.
        -11    1    4    4    0    0  0.12684921211E+02 -0.19055252853E+02  0.76424590046E+02  0.79779244488E+02  0.00000000000E+00 0. -1.
         11    1    4    4    0    0  0.45169007220E+02  0.96717451690E+02  0.17428124590E+03  0.20437332837E+03  0.00000000000E+00 0.  1.
</event>
<event>
 7    1  0.5951278E-006  0.1818842E+03  0.7561462E-02  0.1165992E+00
         -3   -1    0    0    0  501 -0.00000000000E+00  0.00000000000E+00  0.84849965863E+02  0.84849965863E+02  0.00000000000E+00 0.  1.
          3   -1    0    0  501    0  0.00000000000E+00 -0.00000000000E+00 -0.71330644133E+03  0.71330644133E+03  0.00000000000E+00 0. -1.
         23    2    1    2    0    0 -0.15675645258E+03  0.47838026852E+02 -0.41977021311E+03  0.45941281311E+03  0.89398203555E+02 0.  0.
          5    1    1    2  502    0  0.10293099696E+03  0.28210106084E+01  0.14066620238E+02  0.10401004971E+03  0.41800000000E+01 0. -1.
         -5    1    1    2    0  502  0.53825455627E+02 -0.50659037460E+02 -0.22275288260E+03  0.23473354438E+03  0.41800000000E+01 0.  1.
        -11    1    3    3    0    0  0.11340806482E+02 -0.16250471766E+01 -0.24657368973E+02  0.27188977816E+02  0.00000000000E+00 0. -1.
         11    1    3    3    0    0 -0.16809725906E+03  0.49463074028E+02 -0.39511284414E+03  0.43222383530E+03  0.00000000000E+00 0.  1.
</event>
<event>
 7    1  0.5981581E-006  0.7632869E+02  0.7561462E-02  0.1339805E+00
         -2   -1    0    0    0  501 -0.00000000000E+00  0.00000000000E+00  0.40373102334E+02  0.40373102334E+02  0.00000000000E+00 0.  1.
          2   -1    0    0  501    0  0.00000000000E+00 -0.00000000000E+00 -0.18327976602E+03  0.18327976602E+03  0.00000000000E+00 0. -1.
         23    2    1    2    0    0 -0.25016371390E+02  0.19075066682E+02 -0.60229437668E+02  0.13492985260E+03  0.11657102108E+03 0.  0.
          5    1    3    3  502    0 -0.69370202779E+02  0.28557554196E+02 -0.39522293997E+02  0.84895483142E+02  0.41800000000E+01 0. -1.
         -5    1    3    3    0  502  0.44353831389E+02 -0.94824875138E+01 -0.20707143671E+02  0.50034369461E+02  0.41800000000E+01 0.  1.
        -11    1    1    2    0    0  0.12399283561E+02 -0.58973494815E+01 -0.40667428717E+02  0.42922729669E+02  0.00000000000E+00 0.  1.
         11    1    1    2    0    0  0.12617087828E+02 -0.13177717201E+02 -0.42009797303E+02  0.45800286084E+02  0.00000000000E+00 0. -1.
</event>
<event>
 7    1  0.5951278E-006  0.1605346E+03  0.7561462E-02  0.1188094E+00
         -1   -1    0    0    0  501 -0.00000000000E+00  0.00000000000E+00  0.37959016999E+03  0.37959016999E+03  0.00000000000E+00 0.  1.
          1   -1    0    0  501    0  0.00000000000E+00 -0.00000000000E+00 -0.12201665054E+03  0.12201665054E+03  0.00000000000E+00 0. -1.
         23    2    1    2    0    0 -0.92606541478E+02 -0.76042759436E+02 -0.39376808695E+02  0.15563016437E+03  0.91168756782E+02 0.  0.
          5    1    1    2  502    0 -0.57548337118E+01  0.74403326863E+02  0.16676750783E+03  0.18275077900E+03  0.41800000000E+01 0. -1.
         -5    1    1    2    0  502  0.98361375190E+02  0.16394325733E+01  0.13018282031E+03  0.16322587715E+03  0.41800000000E+01 0.  1.
        -11    1    3    3    0    0 -0.91177065016E+02 -0.93354312136E+02 -0.43902604394E+02  0.13767978592E+03  0.00000000000E+00 0. -1.
         11    1    3    3    0    0 -0.14294764622E+01  0.17311552700E+02  0.45257956984E+01  0.17950378452E+02  0.00000000000E+00 0.  1.
</event>
<event>
 8    1  0.5951278E-006  0.1404756E+03  0.7561462E-02  0.1212690E+00
         -1   -1    0    0    0  501 -0.00000000000E+00  0.00000000000E+00  0.19333957927E+03  0.19333957927E+03  0.00000000000E+00 0.  1.
          1   -1    0    0  501    0  0.00000000000E+00 -0.00000000000E+00 -0.11898791398E+03  0.11898791398E+03  0.00000000000E+00 0. -1.
         23    2    1    2    0    0 -0.42782415988E+02  0.94874945419E+02  0.54708790966E+02  0.17167674140E+03  0.12509301077E+03 0.  0.
         23    2    1    2    0    0  0.42782415988E+02 -0.94874945419E+02  0.19642874318E+02  0.14065075184E+03  0.92548371659E+02 0.  0.
          5    1    3    3  502    0 -0.72696192276E+02  0.11141498960E+02  0.26850480047E+02  0.78404655788E+02  0.41800000000E+01 0.  1.
         -5    1    3    3    0  502  0.29913776288E+02  0.83733446459E+02  0.27858310919E+02  0.93272085615E+02  0.41800000000E+01 0.  1.
        -11    1    4    4    0    0 -0.13853494387E+02 -0.21614485503E+02  0.38379323433E+02  0.46174427527E+02  0.00000000000E+00 0.  1.
         11    1    4    4    0    0  0.56635910375E+02 -0.73260459916E+02 -0.18736449115E+02  0.94476324318E+02  0.00000000000E+00 0. -1.
</event>
<event>
 8    1  0.5951278E-006  0.5816942E+02  0.7561462E-02  0.1405678E+00
         -2   -1    0    0    0  501 -0.00000000000E+00  0.00000000000E+00  0.38077244621E+02  0.38077244621E+02  0.00000000000E+00 0.  1.
          2   -1    0    0  501    0  0.00000000000E+00 -0.00000000000E+00 -0.32754715704E+03  0.32754715704E+03  0.00000000000E+00 0. -1.
         23    2    1    2    0    0 -0.12944512222E+02  0.19419147956E+02 -0.16759963299E+03  0.21043213256E+03  0.12508949490E+03 0.  0.
         23    2    1    2    0    0  0.12944512222E+02 -0.19419147956E+02 -0.12187027943E+03  0.15519226910E+03  0.93207358480E+02 0.  0.
          5    1    3    3  502    0 -0.23998195667E+02 -0.54816633348E+01 -0.17890641079E+03  0.18064035610E+03  0.41800000000E+01 0. -1.
         -5    1    3    3    0  502  0.11053683444E+02  0.24900811291E+02  0.11306777806E+02  0.29791776466E+02  0.41800000000E+01 0. -1.
        -11    1    4    4    0    0  0.33177436973E+02  0.33516069555E+01 -0.12014010087E+03  0.12468207341E+03  0.00000000000E+00 0. -1.
         11    1    4    4    0    0 -0.20232924750E+02 -0.22770754912E+02 -0.17301785672E+01  0.30510195691E+02  0.00000000000E+00 0.  1.
</event>
<event>
 8    1  0.5951278E-006  0.1070400E+03  0.7561462E-02  0.1266152E+00
          2   -1    0    0  501    0  0.00000000000E+00  0.00000000000E+00  0.18320888040E+03  0.18320888040E+03  0.00000000000E+00 0. -1.
         -2   -1    0    0    0  501 -0.00000000000E+00 -0.00000000000E+00 -0.86003797487E+02  0.86003797487E+02  0.00000000000E+00 0.  1.
         23    2    1    2    0    0 -0.52521302716E+02  0.20229676432E+02  0.23514861201E+02  0.13917287332E+03  0.12509361664E+03 0.  0.
         23    2    1    2    0    0  0.52521302716E+02 -0.20229676432E+02  0.73690221713E+02  0.13003980456E+03  0.91172226842E+02 0.  0.
          5    1    3    3  502    0  0.19739520288E+02 -0.21960846430E+02  0.43783744537E+02  0.52975618192E+02  0.41800000000E+01 0.  1.
         -5    1    3    3    0  502 -0.72260823004E+02  0.42190522861E+02 -0.20268883336E+02  0.86197255132E+02  0.41800000000E+01 0.  1.
        -11    1    4    4    0    0  0.17544664565E+02  0.32656486953E+02  0.50239672494E+02  0.62436256191E+02  0.00000000000E+00 0.  1.
         11    1    4    4    0    0  0.34976638151E+02 -0.52886163385E+02  0.23450549218E+02  0.67603548373E+02  0.00000000000E+00 0. -1.
</event>
<event>
 8    1  0.5951278E-006  0.1237226E+03  0.7561462E-02  0.1237079E+00
         -2   -1    0    0    0  501 -0.00000000000E+00  0.00000000000E+00  0.31231114827E+02  0.31231114827E+02  0.00000000000E+00 0. -1.
          2   -1    0    0  501    0  0.00000000000E+00 -0.00000000000E+00 -0.67234945834E+03  0.67234945834E+03  0.00000000000E+00 0.  1.
         23    2    1    2    0    0  0.73381713562E+02 -0.43077727283E+02 -0.35417565328E+03  0.38513399757E+03  0.12508891332E+03 0.  0.
         23    2    1    2    0    0 -0.73381713562E+02  0.43077727283E+02 -0.28694269023E+03  0.31844657559E+03  0.10877291738E+03 0.  0.
          5    1    3    3  502    0  0.93917022801E+02 -0.31313770078E+02 -0.34574792456E+03  0.35966659437E+03  0.41800000000E+01 0. -1.
         -5    1    3    3    0  502 -0.20535309239E+02 -0.11763957205E+02 -0.84277287256E+01  0.25467403207E+02  0.41800000000E+01 0. -1.
        -11    1    4    4    0    0  0.10587529554E+02 -0.17729632208E+02 -0.10425159923E+02  0.23132652241E+02  0.00000000000E+00 0. -1.
         11    1    4    4    0    0 -0.83969243116E+02  0.60807359491E+02 -0.27651753031E+03  0.29531392335E+03  0.00000000000E+00 0.  1.
</event>
<event>
 8    1  0.5951278E-006  0.7985455E+02  0.7561462E-02  0.1329465E+00
         -1   -1    0    0    0  501 -0.00000000000E+00  0.00000000000E+00  0.98584523386E+02  0.98584523386E+02  0.00000000000E+00 0.  1.
          1   -1    0    0  501    0  0.00000000000E+00 -0.00000000000E+00 -0.17119606488E+03  0.17119606488E+03  0.00000000000E+00 0. -1.
         23    2    1    2    0    0 -0.48791163263E+01 -0.55876340249E+02  0.33793745126E+01  0.13713330662E+03  0.12509257547E+03 0.  0.
         23    2    1    2    0    0  0.48791163263E+01  0.55876340249E+02 -0.75990916004E+02  0.13264728164E+03  0.93138127721E+02 0.  0.
          5    1    3    3  502    0 -0.14560306663E+01  0.52747436931E+01  0.55912520058E+02  0.56334938054E+02  0.41800000000E+01 0.  1.
         -5    1    3    3    0  502 -0.34230856600E+01 -0.61151083942E+02 -0.52533145545E+02  0.80798368570E+02  0.41800000000E+01 0.  1.
        -11    1    4    4    0    0 -0.32502488212E+02  0.14258073861E+02 -0.67230375170E+02  0.76023863068E+02  0.00000000000E+00 0. -1.
         11    1    4    4    0    0  0.37381604538E+02  0.41618266388E+02 -0.87605408337E+01  0.56623418571E+02  0.00000000000E+00 0.  1.
</event>
<event>
 8    1  0.5951278E-006  0.1286009E+03  0.7561462E-02  0.1229547E+00
          1   -1    0    0  501    0  0.00000000000E+00  0.00000000000E+00  0.60194682601E+03  0.60194682601E+03  0.00000000000E+00 0. -1.
         -1   -1    0    0    0  501 -0.00000000000E+00 -0.00000000000E+00 -0.48812439281E+02  0.48812439281E+02  0.00000000000E+00 0.  1.
         23    2    1    2    0    0  0.35446114145E+02  0.12326587497E+03  0.23236262546E+03  0.29340494857E+03  0.12507266366E+03 0.  0.
         23    2    1    2    0    0 -0.35446114145E+02 -0.12326587497E+03  0.32077176127E+03  0.35735431671E+03  0.91414888870E+02 0.  0.
          5    1    3    3  502    0  0.77013400992E+01  0.18374118281E+02 -0.13641212389E+02  0.24504569724E+02  0.41800000000E+01 0.  1.
         -5    1    3    3    0  502  0.27744774046E+02  0.10489175669E+03  0.24600383785E+03  0.26890037885E+03  0.41800000000E+01 0.  1.
        -11    1    4    4    0    0 -0.19299536234E+02 -0.65150835650E+02  0.27028992254E+03  0.27870009995E+03  0.00000000000E+00 0. -1.
         11    1    4    4    0    0 -0.16146577911E+02 -0.58115039325E+02  0.50481838729E+02  0.78654216768E+02  0.00000000000E+00 0.  1.
</event>
<event>
 8    1  0.5951278E-006  0.1417955E+03  0.7561462E-02  0.1210933E+00
         -2   -1    0    0    0  501 -0.00000000000E+00  0.00000000000E+00  0.39319700091E+02  0.39319700091E+02  0.00000000000E+00 0.  1.
          2   -1    0    0  501    0  0.00000000000E+00 -0.00000000000E+00 -0.67984984261E+03  0.67984984261E+03  0.00000000000E+00 0. -1.
         23    2    1    2    0    0 -0.16304750490E+02  0.11837932913E+03 -0.39946350793E+03  0.43531479370E+03  0.12509342507E+03 0.  0.
         23    2    1    2    0    0  0.16304750490E+02 -0.11837932913E+03 -0.24106663459E+03  0.28385474900E+03  0.90448249097E+02 0.  0.
          5    1    3    3  502    0 -0.35640445874E+02  0.10208275564E+03 -0.39467676691E+03  0.40924119186E+03  0.41800000000E+01 0.  1.
         -5    1    3    3    0  502  0.19335695384E+02  0.16296573486E+02 -0.47867410275E+01  0.26073601843E+02  0.41800000000E+01 0.  1.
        -11    1    4    4    0    0 -0.12681698795E+02 -0.12005155651E+03 -0.19858985445E+03  0.23240295178E+03  0.00000000000E+00 0.  1.
         11    1    4    4    0    0  0.28986449285E+02  0.16722273801E+01 -0.42476780141E+02  0.51451797225E+02  0.00000000000E+00 0. -1.
</event>
<event>
 8    1  0.5951278E-006  0.1202003E+03  0.7561462E-02  0.1242767E+00
          2   -1    0    0  501    0  0.00000000000E+00  0.00000000000E+00  0.91373278704E+03  0.91373278704E+03  0.00000000000E+00 0.  1.
         -2   -1    0    0    0  501 -0.00000000000E+00 -0.00000000000E+00 -0.25296787720E+02  0.25296787720E+02  0.00000000000E+00 0. -1.
         23    2    1    2    0    0  0.10684923383E+03 -0.97309480480E+00  0.45612165971E+03  0.48488359244E+03  0.12508966417E+03 0.  0.
         23    2    1    2    0    0 -0.10684923383E+03  0.97309480480E+00  0.43231433961E+03  0.45414598232E+03  0.89079623582E+02 0.  0.
          5    1    3    3  502    0  0.60984511558E+02 -0.41259844369E+01  0.58895309261E+02  0.84983905832E+02  0.41800000000E+01 0. -1.
         -5    1    3    3    0  502  0.45864722267E+02  0.31528896321E+01  0.39722635045E+03  0.39989968661E+03  0.41800000000E+01 0. -1.
        -11    1    4    4    0    0 -0.70934736072E+02  0.38765083932E+02  0.32408166457E+03  0.33401106842E+03  0.00000000000E+00 0. -1.
         11    1    4    4    0    0 -0.35914497754E+02 -0.37791989127E+02  0.10823267504E+03  0.12013491390E+03  0.00000000000E+00 0.  1.
</event>
<event>
 8    1  0.5951278E-006  0.8339426E+02  0.7561462E-02  0.1319686E+00
         -1   -1    0    0    0  501 -0.00000000000E+00  0.00000000000E+00  0.86680742087E+02  0.86680742087E+02  0.00000000000E+00 0.  1.
          1   -1    0    0  501    0  0.00000000000E+00 -0.00000000000E+00 -0.14408986458E+03  0.14408986458E+03  0.00000000000E+00 0. -1.
         23    2    1    2    0    0 -0.15850850645E+02  0.21111543916E+02 -0.24806983054E+02  0.13023674580E+03  0.12509706949E+03 0.  0.
         23    2    1    2    0    0  0.15850850645E+02 -0.21111543916E+02 -0.32602139440E+02  0.10053386087E+03  0.91363072044E+02 0.  0.
          5    1    3    3  502    0 -0.14588079601E+02  0.45559346985E+02 -0.66309549681E+02  0.81871209488E+02  0.41800000000E+01 0.  1.
         -5    1    3    3    0  502 -0.12627710449E+01 -0.24447803070E+02  0.41502566627E+02  0.48365536307E+02  0.41800000000E+01 0.  1.
        -11    1    4    4    0    0 -0.42092058675E+01  0.34530444933E+02 -0.19765688979E+02  0.40009392674E+02  0.00000000000E+00 0. -1.
         11    1    4    4    0    0  0.20060056513E+02 -0.55641988849E+02 -0.12836450461E+02  0.60524468199E+02  0.00000000000E+00 0.  1.
</event>
<event>
 7    1  0.5951278E-006  0.1393608E+03  0.7561462E-02  0.1214192E+00
          1   -1    0    0  501    0  0.00000000000E+00  0.00000000000E+00  0.12774780608E+03  0.12774780608E+03  0.00000000000E+00 0. -1.
         -1   -1    0    0    0  501 -0.00000000000E+00 -0.00000000000E+00 -0.17085081350E+03  0.17085081350E+03  0.00000000000E+00 0.  1.
         23    2    1    2    0    0 -0.29019491684E+02 -0.59122762751E+02 -0.27164072189E+02  0.11581789610E+03  0.91314107701E+02 0.  0.
          5    1    1    2  502    0  0.96614764452E+02  0.58939970151E+02 -0.19977093333E+00  0.11325124768E+03  0.41800000000E+01 0. -1.
         -5    1    1    2    0  502 -0.67595272768E+02  0.18279260016E+00 -0.15739164300E+02  0.69529475812E+02  0.41800000000E+01 0.  1.
        -11    1    3    3    0    0  0.19675649884E+02 -0.41556794025E+02  0.15723480934E+02  0.48593478787E+02  0.00000000000E+00 0.  1.
         11    1    3    3    0    0 -0.48695141568E+02 -0.17565968726E+02 -0.42887553123E+02  0.67224417309E+02  0.00000000000E+00 0. -1.
</event>
<event>
 8    1  0.5951278E-006  0.1476331E+03  0.7561462E-02  0.1203412E+00
          1   -1    0    0  501    0  0.00000000000E+00  0.00000000000E+00  0.26401197880E+03  0.26401197880E+03  0.00000000000E+00 0.  1.
         -1   -1    0    0    0  501 -0.00000000000E+00 -0.00000000000E+00 -0.85103756226E+02  0.85103756226E+02  0.00000000000E+00 0. -1.
         23    2    1    2    0    0  0.42244856746E+02 -0.92097363052E+02  0.12248471894E+03  0.20227789123E+03  0.12508911505E+03 0.  0.
         23    2    1    2    0    0 -0.42244856746E+02  0.92097363052E+02  0.56423503640E+02  0.14683784380E+03  0.90062136365E+02 0.  0.
          5    1    3    3  502    0  0.38753849418E+02 -0.12301281203E+03  0.10488079120E+03  0.16628729816E+03  0.41800000000E+01 0.  1.
         -5    1    3    3    0  502  0.34910073280E+01  0.30915448974E+02  0.17603927735E+02  0.35990593065E+02  0.41800000000E+01 0.  1.
        -11    1    4    4    0    0  0.27196640863E+02  0.38388101858E+02  0.12519732437E+02  0.48683131973E+02  0.00000000000E+00 0.  1.
         11    1    4    4    0    0 -0.69441497609E+02  0.53709261195E+02  0.43903771203E+02  0.98154711828E+02  0.00000000000E+00 0. -1.
</event>
<event>
 8    1  0.5951278E-006  0.1330031E+03  0.7561462E-02  0.1223067E+00
         -3   -1    0    0    0  501 -0.00000000000E+00  0.00000000000E+00  0.33218187591E+02  0.33218187591E+02  0.00000000000E+00 0.  1.
          3   -1    0    0  501    0  0.00000000000E+00 -0.00000000000E+00 -0.69342907219E+03  0.69342907219E+03  0.00000000000E+00 0. -1.
         23    2    1    2    0    0  0.75980111587E+02 -0.12464388298E+02 -0.18398277796E+03  0.23541377092E+03  0.12506655276E+03 0.  0.
         23    2    1    2    0    0 -0.75980111587E+02  0.12464388298E+02 -0.47622810663E+03  0.49123348886E+03  0.92675739526E+02 0.  0.
          5    1    3    3  502    0  0.20729900291E+02  0.54884024691E+02 -0.61985304463E+02  0.85449606797E+02  0.41800000000E+01 0. -1.
         -5    1    3    3    0  502  0.55250211296E+02 -0.67348412989E+02 -0.12199747350E+03  0.14996416412E+03  0.41800000000E+01 0. -1.
        -11    1    4    4    0    0 -0.65965129667E+02 -0.32763771391E+02 -0.26991714576E+03  0.27978586209E+03  0.00000000000E+00 0. -1.
         11    1    4    4    0    0 -0.10014981919E+02  0.45228159689E+02 -0.20631096087E+03  0.21144762677E+03  0.00000000000E+00 0.  1.
</event>
<event>
 8    1  0.5951278E-006  0.1232382E+03  0.7561462E-02  0.1237849E+00
         -2   -1    0    0    0  501 -0.00000000000E+00  0.00000000000E+00  0.17943147584E+03  0.17943147584E+03  0.00000000000E+00 0.  1.
          2   -1    0    0  501    0  0.00000000000E+00 -0.00000000000E+00 -0.10395299725E+03  0.10395299725E+03  0.00000000000E+00 0. -1.
         23    2    1    2    0    0  0.24556441465E+02  0.82419138899E+02  0.35048946417E+02  0.15579175965E+03  0.12508681168E+03 0.  0.
         23    2    1    2    0    0 -0.24556441465E+02 -0.82419138899E+02  0.40429532169E+02  0.12759271344E+03  0.85143526920E+02 0.  0.
          5    1    3    3  502    0 -0.43507742251E+02  0.63692762274E+02  0.87960558930E+00  0.77252428492E+02  0.41800000000E+01 0. -1.
         -5    1    3    3    0  502  0.68064183717E+02  0.18726376625E+02  0.34169340828E+02  0.78539331160E+02  0.41800000000E+01 0. -1.
        -11    1    4    4    0    0  0.10104148024E+02 -0.50142317416E+02  0.57766210218E+02  0.77157506739E+02  0.00000000000E+00 0.  1.
         11    1    4    4    0    0 -0.34660589490E+02 -0.32276821484E+02 -0.17336678049E+02  0.50435206698E+02  0.00000000000E+00 0. -1.
</event>
<event>
 8    1  0.5951278E-006  0.1259898E+03  0.7561462E-02  0.1233531E+00
         -1   -1    0    0    0  501 -0.00000000000E+00  0.00000000000E+00  0.53911945621E+02  0.53911945621E+02  0.00000000000E+00 0.  1.
          1   -1    0    0  501    0  0.00000000000E+00 -0.00000000000E+00 -0.31516579792E+03  0.31516579792E+03  0.00000000000E+00 0. -1.
         23    2    1    2    0    0  0.63122143059E+02 -0.34097587790E+02 -0.14429377315E+03  0.20399742149E+03  0.12508878675E+03 0.  0.
         23    2    1    2    0    0 -0.63122143059E+02  0.34097587790E+02 -0.11696007915E+03  0.16508032204E+03  0.91786721122E+02 0.  0.
          5    1    3    3  502    0 -0.10499936714E+01 -0.68136630515E+02 -0.91203416948E+02  0.11392646123E+03  0.41800000000E+01 0.  1.
         -5    1    3    3    0  502  0.64172136730E+02  0.34039042724E+02 -0.53090356200E+02  0.90070960268E+02  0.41800000000E+01 0.  1.
        -11    1    4    4    0    0 -0.68872418988E+02  0.55708638458E+02 -0.69420850274E+02  0.11254384456E+03  0.00000000000E+00 0.  1.
         11    1    4    4    0    0  0.57502759294E+01 -0.21611050668E+02 -0.47539228872E+02  0.52536477480E+02  0.00000000000E+00 0. -1.
</event>
<event>
 8    1  0.5951278E-006  0.1252479E+03  0.7561462E-02  0.1234682E+00
          2   -1    0    0  501    0  0.00000000000E+00  0.00000000000E+00  0.43467338351E+02  0.43467338351E+02  0.00000000000E+00 0. -1.
         -2   -1    0    0    0  501 -0.00000000000E+00 -0.00000000000E+00 -0.55273445003E+03  0.55273445003E+03  0.00000000000E+00 0.  1.
         23    2    1    2    0    0 -0.67549360331E+00 -0.72554250605E+02 -0.43933026262E+03  0.46251815576E+03  0.12508952465E+03 0.  0.
         23    2    1    2    0    0  0.67549360331E+00  0.72554250605E+02 -0.69936849056E+02  0.13368363262E+03  0.87838346993E+02 0.  0.
          5    1    3    3  502    0  0.58752170357E+02 -0.15545797261E+02 -0.21705515992E+03  0.22544157598E+03  0.41800000000E+01 0.  1.
         -5    1    3    3    0  502 -0.59427663960E+02 -0.57008453345E+02 -0.22227510270E+03  0.23707657977E+03  0.41800000000E+01 0.  1.
        -11    1    4    4    0    0 -0.38978145523E+02  0.32372446704E+02 -0.10567289966E+02  0.51758465503E+02  0.00000000000E+00 0. -1.
         11    1    4    4    0    0  0.39653639126E+02  0.40181803902E+02 -0.59369559090E+02  0.81925167118E+02  0.00000000000E+00 0.  1.
</event>
<event>
 8    1  0.5951278E-006  0.2594227E+03  0.7561462E-02  0.1107491E+00
          2   -1    0    0  501    0  0.00000000000E+00  0.00000000000E+00  0.14035146773E+04  0.14035146773E+04  0.00000000000E+00 0. -1.
         -2   -1    0    0    0  501 -0.00000000000E+00 -0.00000000000E+00 -0.53292271064E+02  0.53292271064E+02  0.00000000000E+00 0.  1.
         23    2    1    2    0    0 -0.13041175935E+03 -0.20586003273E+03  0.84708707776E+03  0.89027411625E+03  0.12508359085E+03 0.  0.
         23    2    1    2    0    0  0.13041175935E+03  0.20586003273E+03  0.50313532846E+03  0.56653283210E+03  0.91808011894E+02 0.  0.
          5    1    3    3  502    0 -0.15494412834E+02  0.12294562916E+02  0.13922542554E+03  0.14068555229E+03  0.41800000000E+01 0.  1.
         -5    1    3    3    0  502 -0.11491734652E+03 -0.21815459565E+03  0.70786165222E+03  0.74958856396E+03  0.41800000000E+01 0.  1.
        -11    1    4    4    0    0  0.90496155547E+02  0.82832917037E+02  0.17404408877E+03  0.21293705913E+03  0.00000000000E+00 0. -1.
         11    1    4    4    0    0  0.39915603804E+02  0.12302711570E+03  0.32909123969E+03  0.35359577297E+03  0.00000000000E+00 0.  1.
</event>
<event>
 8    1  0.5951278E-006  0.1101112E+03  0.7561462E-02  0.1260364E+00
         -2   -1    0    0    0  501 -0.00000000000E+00  0.00000000000E+00  0.10937934707E+03  0.10937934707E+03  0.00000000000E+00 0. -1.
          2   -1    0    0  501    0  0.00000000000E+00 -0.00000000000E+00 -0.19074634512E+03  0.19074634512E+03  0.00000000000E+00 0.  1.
         23    2    1    2    0    0 -0.16841458410E+02 -0.90045937888E+02 -0.15658490098E+02  0.15583427402E+03  0.12508887639E+03 0.  0.
         23    2    1    2    0    0  0.16841458410E+02  0.90045937888E+02 -0.65708507959E+02  0.14429141817E+03  0.90058312715E+02 0.  0.
          5    1    3    3  502    0 -0.11372461301E+01 -0.48185834892E+02  0.54286228203E+02  0.72716126034E+02  0.41800000000E+01 0.  1.
         -5    1    3    3    0  502 -0.15704212280E+02 -0.41860102996E+02 -0.69944718301E+02  0.83118147984E+02  0.41800000000E+01 0.  1.
        -11    1    4    4    0    0 -0.29704618479E+02  0.70410935453E+02 -0.50250368253E+02  0.91461268851E+02  0.00000000000E+00 0.  1.
         11    1    4    4    0    0  0.46546076889E+02  0.19635002435E+02 -0.15458139706E+02  0.52830149323E+02  0.00000000000E+00 0. -1.
</event>
<event>
 8    1  0.5951278E-006  0.7724563E+02  0.7561462E-02  0.1337055E+00
         -2   -1    0    0    0  501 -0.00000000000E+00  0.00000000000E+00  0.43676320571E+03  0.43676320571E+03  0.00000000000E+00 0.  1.
          2   -1    0    0  501    0  0.00000000000E+00 -0.00000000000E+00 -0.37001841260E+02  0.37001841260E+02  0.00000000000E+00 0. -1.
         23    2    1    2    0    0  0.26200391280E+02  0.54661558951E+02  0.29095543275E+03  0.32241396145E+03  0.12498540780E+03 0.  0.
         23    2    1    2    0    0 -0.26200391280E+02 -0.54661558951E+02  0.10880593170E+03  0.15135108552E+03  0.85988800343E+02 0.  0.
          5    1    3    3  502    0 -0.21630769076E+01 -0.13612343153E+02  0.21795887556E+03  0.21843424324E+03  0.41800000000E+01 0.  1.
         -5    1    3    3    0  502  0.28363468187E+02  0.68273902104E+02  0.72996557188E+02  0.10397971820E+03  0.41800000000E+01 0.  1.
        -11    1    4    4    0    0 -0.14391200263E+02 -0.51971650044E+02  0.12203245763E+03  0.13341693958E+03  0.00000000000E+00 0.  1.
         11    1    4    4    0    0 -0.11809191017E+02 -0.26899089070E+01 -0.13226525925E+02  0.17934145936E+02  0.00000000000E+00 0. -1.
</event>
<event>
 8    1  0.5951278E-006  0.1426634E+03  0.7561462E-02  0.1209789E+00
         -1   -1    0    0    0  501 -0.00000000000E+00  0.00000000000E+00  0.36211630973E+02  0.36211630973E+02  0.00000000000E+00 0.  1.
          1   -1    0    0  501    0  0.00000000000E+00 -0.00000000000E+00 -0.72344914838E+03  0.72344914838E+03  0.00000000000E+00 0. -1.
         23    2    1    2    0    0  0.40090586325E+02 -0.87226458318E+02 -0.19568178535E+03  0.25130594268E+03  0.12509038958E+03 0.  0.
         23    2    1    2    0    0 -0.40090586325E+02  0.87226458318E+02 -0.49155573206E+03  0.50835483668E+03  0.87074061056E+02 0.  0.
          5    1    3    3  502    0 -0.13252429970E+02 -0.99955856857E+02 -0.14394412463E+03  0.17579585785E+03  0.41800000000E+01 0. -1.
         -5    1    3    3    0  502  0.53343016295E+02  0.12729398539E+02 -0.51737660715E+02  0.75510084829E+02  0.41800000000E+01 0. -1.
        -11    1    4    4    0    0  0.27570601222E+02  0.20276520077E+02 -0.14267530637E+03  0.14672258983E+03  0.00000000000E+00 0.  1.
         11    1    4    4    0    0 -0.67661187547E+02  0.66949938241E+02 -0.34888042570E+03  0.36163224685E+03  0.00000000000E+00 0. -1.
</event>
<event>
 8    1  0.5951278E-006  0.9669226E+02  0.7561462E-02  0.1287410E+00
          2   -1    0    0  501    0  0.00000000000E+00  0.00000000000E+00  0.62230197694E+03  0.62230197694E+03  0.00000000000E+00 0. -1.
         -2   -1    0    0    0  501 -0.00000000000E+00 -0.00000000000E+00 -0.18855613463E+02  0.18855613463E+02  0.00000000000E+00 0.  1.
         23    2    1    2    0    0  0.81512969134E+01 -0.25541277004E+02  0.32633743424E+03  0.35051622659E+03  0.12508678446E+03 0.  0.
         23    2    1    2    0    0 -0.81512969134E+01  0.25541277004E+02  0.27710892924E+03  0.29064136381E+03  0.83452041449E+02 0.  0.
          5    1    3    3  502    0 -0.23254255527E+02 -0.66153438142E+02  0.23911953850E+03  0.24922412378E+03  0.41800000000E+01 0.  1.
         -5    1    3    3    0  502  0.31405552440E+02  0.40612161138E+02  0.87217895734E+02  0.10129210281E+03  0.41800000000E+01 0.  1.
        -11    1    4    4    0    0  0.15571794935E+02 -0.16917543577E+02  0.25337174481E+02  0.34214857721E+02  0.00000000000E+00 0.  1.
         11    1    4    4    0    0 -0.23723091848E+02  0.42458820582E+02  0.25177175476E+03  0.25642650609E+03  0.00000000000E+00 0. -1.
</event>
<event>
 8    1  0.5951278E-006  0.1004320E+03  0.7561462E-02  0.1279390E+00
         -2   -1    0    0    0  501 -0.00000000000E+00  0.00000000000E+00  0.58786921748E+03  0.58786921748E+03  0.00000000000E+00 0.  1.
          2   -1    0    0  501    0  0.00000000000E+00 -0.00000000000E+00 -0.23418837350E+02  0.23418837350E+02  0.00000000000E+00 0. -1.
         23    2    1    2    0    0  0.35016073629E+02 -0.19049732222E+02  0.38641692474E+03  0.40811070032E+03  0.12508911338E+03 0.  0.
         23    2    1    2    0    0 -0.35016073629E+02  0.19049732222E+02  0.17803345540E+03  0.20317735451E+03  0.89420961941E+02 0.  0.
          5    1    3    3  502    0  0.81282162393E+02 -0.17083803756E+02  0.21574195224E+03  0.23121571882E+03  0.41800000000E+01 0.  1.
         -5    1    3    3    0  502 -0.46266088763E+02 -0.19659284659E+01  0.17067497250E+03  0.17689498150E+03  0.41800000000E+01 0.  1.
        -11    1    4    4    0    0  0.14107674573E+02  0.16926854918E+02  0.40817084876E+01  0.22409936266E+02  0.00000000000E+00 0. -1.
         11    1    4    4    0    0 -0.49123748202E+02  0.21228773043E+01  0.17395174691E+03  0.18076741825E+03  0.00000000000E+00 0.  1.
</event>
<event>
 8    1  0.5951278E-006  0.7839613E+02  0.7561462E-02  0.1333666E+00
          2   -1    0    0  501    0  0.00000000000E+00  0.00000000000E+00  0.86252481312E+02  0.86252481312E+02  0.00000000000E+00 0. -1.
         -2   -1    0    0    0  501 -0.00000000000E+00 -0.00000000000E+00 -0.17313168296E+03  0.17313168296E+03  0.00000000000E+00 0.  1.
         23    2    1    2    0    0 -0.47001024207E+02 -0.23333169553E+02 -0.53167758603E+02  0.14570564295E+03  0.12509912372E+03 0.  0.
         23    2    1    2    0    0  0.47001024207E+02  0.23333169553E+02 -0.33711443041E+02  0.11367852132E+03  0.95041105520E+02 0.  0.
          5    1    3    3  502    0 -0.27360048589E+02 -0.55063340977E+02 -0.78950404875E+02  0.10015579169E+03  0.41800000000E+01 0.  1.
         -5    1    3    3    0  502 -0.19640975618E+02  0.31730171424E+02  0.25782646271E+02  0.45549851269E+02  0.41800000000E+01 0.  1.
        -11    1    4    4    0    0  0.19747199499E+02  0.23058259045E+02  0.31044150707E+02  0.43420899247E+02  0.00000000000E+00 0. -1.
         11    1    4    4    0    0  0.27253824708E+02  0.27491050758E+00 -0.64755593748E+02  0.70257622068E+02  0.00000000000E+00 0.  1.
</event>
<event>
 7    1  0.5951278E-006  0.1468017E+03  0.7561462E-02  0.1204459E+00
          1   -1    0    0  501    0  0.00000000000E+00  0.00000000000E+00  0.33807394983E+03  0.33807394983E+03  0.00000000000E+00 0. -1.
         -1   -1    0    0    0  501 -0.00000000000E+00 -0.00000000000E+00 -0.82260546119E+02  0.82260546119E+02  0.00000000000E+00 0.  1.
         23    2    1    2    0    0  0.77737758900E+02 -0.32657753990E+02  0.18766233332E+03  0.22662279544E+03  0.95031847359E+02 0.  0.
          5    1    1    2  502    0  0.10454433140E+01 -0.57986574772E+02  0.39132799644E+02  0.70088402846E+02  0.41800000000E+01 0. -1.
         -5    1    1    2    0  502 -0.78783202214E+02  0.90644328761E+02  0.29018270747E+02  0.12362329766E+03  0.41800000000E+01 0.  1.
        -11    1    3    3    0    0  0.20338251502E+02 -0.51099656836E+02  0.13785344051E+03  0.14841964312E+03  0.00000000000E+00 0. -1.
         11    1    3    3    0    0  0.57399507398E+02  0.18441902846E+02  0.49808892803E+02  0.78203152318E+02  0.00000000000E+00 0.  1.
</event>
<event>
 8    1  0.5951278E-006  0.9285398E+02  0.7561462E-02  0.1296084E+00
          1   -1    0    0  501    0  0.00000000000E+00  0.00000000000E+00  0.30234128499E+03  0.30234128499E+03  0.00000000000E+00 0. -1.
         -1   -1    0    0    0  501 -0.00000000000E+00 -0.00000000000E+00 -0.43328576770E+02  0.43328576770E+02  0.00000000000E+00 0.  1.
         23    2    1    2    0    0  0.35618079774E+02 -0.19673070632E+02  0.12168886875E+03  0.17919800452E+03  0.12509223290E+03 0.  0.
         23    2    1    2    0    0 -0.35618079774E+02  0.19673070632E+02  0.13732383947E+03  0.16647185724E+03  0.84849072190E+02 0.  0.
          5    1    3    3  502    0  0.34679709804E+02  0.29557188328E+02 -0.22066940546E+01  0.45811041820E+02  0.41800000000E+01 0. -1.
         -5    1    3    3    0  502  0.93836996965E+00 -0.49230258960E+02  0.12389556280E+03  0.13338696270E+03  0.41800000000E+01 0. -1.
        -11    1    4    4    0    0 -0.44960094332E+02 -0.20410414348E+02  0.51816590827E+02  0.71574815271E+02  0.00000000000E+00 0. -1.
         11    1    4    4    0    0  0.93420145576E+01  0.40083484980E+02  0.85507248645E+02  0.94897041972E+02  0.00000000000E+00 0.  1.
</event>
<event>
 8    1  0.5951278E-006  0.9454408E+02  0.7561462E-02  0.1292206E+00
         -1   -1    0    0    0  501 -0.00000000000E+00  0.00000000000E+00  0.79296078815E+02  0.79296078815E+02  0.00000000000E+00 0.  1.
          1   -1    0    0  501    0  0.00000000000E+00 -0.00000000000E+00 -0.20762893418E+03  0.20762893418E+03  0.00000000000E+00 0. -1.
         23    2    1    2    0    0  0.12294419163E+02  0.27873650700E+02 -0.15954926345E+01  0.12874961854E+03  0.12508327439E+03 0.  0.
         23    2    1    2    0    0 -0.12294419163E+02 -0.27873650700E+02 -0.12673736273E+03  0.15817539446E+03  0.89604704974E+02 0.  0.
          5    1    3    3  502    0 -0.30679306003E+02  0.57730468222E+02  0.24732822031E+02  0.70022936696E+02  0.41800000000E+01 0. -1.
         -5    1    3    3    0  502  0.42973725166E+02 -0.29856817523E+02 -0.26328314665E+02  0.58726681843E+02  0.41800000000E+01 0. -1.
        -11    1    4    4    0    0  0.24972736156E+02 -0.22149493449E+02 -0.90347768421E+01  0.34581278226E+02  0.00000000000E+00 0.  1.
         11    1    4    4    0    0 -0.37267155319E+02 -0.57241572502E+01 -0.11770258589E+03  0.12359411623E+03  0.00000000000E+00 0. -1.
</event>
<event>
 8    1  0.5951278E-006  0.1458956E+03  0.7561462E-02  0.1205609E+00
          4   -1    0    0  501    0  0.00000000000E+00  0.00000000000E+00  0.16652077200E+03  0.16652077200E+03  0.00000000000E+00 0. -1.
         -4   -1    0    0    0  501 -0.00000000000E+00 -0.00000000000E+00 -0.22840520887E+03  0.22840520887E+03  0.00000000000E+00 0.  1.
         23    2    1    2    0    0  0.13185715219E+03 -0.46712413905E+02 -0.11544104832E+03  0.22032310906E+03  0.12508908246E+03 0.  0.
         23    2    1    2    0    0 -0.13185715219E+03  0.46712413905E+02  0.53556611450E+02  0.17460287182E+03  0.89718972470E+02 0.  0.
          5    1    3    3  502    0  0.12809044381E+03 -0.46570316945E+02 -0.36468458873E+02  0.14115019344E+03  0.41800000000E+01 0.  1.
         -5    1    3    3    0  502  0.37667083788E+01 -0.14209696046E+00 -0.78972589445E+02  0.79172915617E+02  0.41800000000E+01 0.  1.
        -11    1    4    4    0    0 -0.31525172388E+02 -0.11795653081E+02 -0.18013943408E+02  0.38176905097E+02  0.00000000000E+00 0.  1.
         11    1    4    4    0    0 -0.10033197980E+03  0.58508066986E+02  0.71570554857E+02  0.13642596672E+03  0.00000000000E+00 0. -1.
</event>
<event>
 8    1  0.5951278E-006  0.1560339E+03  0.7561462E-02  0.1193249E+00
         -1   -1    0    0    0  501 -0.00000000000E+00  0.00000000000E+00  0.26193813879E+02  0.26193813879E+02  0.00000000000E+00 0.  1.
          1   -1    0    0  501    0  0.00000000000E+00 -0.00000000000E+00 -0.10738444316E+04  0.10738444316E+04  0.00000000000E+00 0. -1.
         23    2    1    2    0    0  0.72511737502E+02  0.10207302092E+03 -0.46606948994E+03  0.49854127443E+03  0.12508308911E+03 0.  0.
         23    2    1    2    0    0 -0.72511737502E+02 -0.10207302092E+03 -0.58158112775E+03  0.60149697102E+03  0.88798335077E+02 0.  0.
          5    1    3    3  502    0 -0.23419984560E+01 -0.23275166202E+02 -0.12926298382E+03  0.13142910524E+03  0.41800000000E+01 0.  1.
         -5    1    3    3    0  502  0.74853735958E+02  0.12534818712E+03 -0.33680650612E+03  0.36711216919E+03  0.41800000000E+01 0.  1.
        -11    1    4    4    0    0 -0.59808277883E+02 -0.26160669867E+02 -0.15757589073E+03  0.17056251666E+03  0.00000000000E+00 0.  1.
         11    1    4    4    0    0 -0.12703459620E+02 -0.75912351054E+02 -0.42400523702E+03  0.43093445435E+03  0.00000000000E+00 0. -1.
</event>
<event>
 7    1  0.5951278E-006  0.7138776E+03  0.7561462E-02  0.9693790E-01
         -1   -1    0    0    0  501 -0.00000000000E+00  0.00000000000E+00  0.33694944117E+03  0.33694944117E+03  0.00000000000E+00 0.  1.
          1   -1    0    0  501    0  0.00000000000E+00 -0.00000000000E+00 -0.16639350298E+04  0.16639350298E+04  0.00000000000E+00 0. -1.
         23    2    1    2    0    0  0.60197871035E+03  0.84879284305E+02 -0.87222317430E+03  0.10670678157E+04  0.90981299276E+02 0.  0.
          5    1    1    2  502    0 -0.12695534261E+03 -0.27388451150E+03 -0.20401923921E+03  0.36437852163E+03  0.41800000000E+01 0. -1.
         -5    1    1    2    0  502 -0.47502336774E+03  0.18900522719E+03 -0.25074317508E+03  0.56943813365E+03  0.41800000000E+01 0.  1.
        -11    1    3    3    0    0  0.59603287251E+03  0.94300755692E+02 -0.85902746814E+03  0.10497980799E+04  0.00000000000E+00 0. -1.
         11    1    3    3    0    0  0.59458378436E+01 -0.94214713872E+01 -0.13195706156E+02  0.17269735716E+02  0.00000000000E+00 0.  1.
</event>
<event>
 8    1  0.5951278E-006  0.1114577E+03  0.7561462E-02  0.1257894E+00
          2   -1    0    0  501    0  0.00000000000E+00  0.00000000000E+00  0.68067133719E+02  0.68067133719E+02  0.00000000000E+00 0.  1.
         -2   -1    0    0    0  501 -0.00000000000E+00 -0.00000000000E+00 -0.22373984531E+03  0.22373984531E+03  0.00000000000E+00 0. -1.
         23    2    1    2    0    0 -0.31683653374E+01 -0.57904665684E+02 -0.76789847949E+02  0.15782130231E+03  0.12509154196E+03 0.  0.
         23    2    1    2    0    0  0.31683653374E+01  0.57904665684E+02 -0.78882863641E+02  0.13398567672E+03  0.91469484213E+02 0.  0.
          5    1    3    3  502    0 -0.35500535668E+02 -0.81231046406E+02 -0.77357568300E+02  0.11773035592E+03  0.41800000000E+01 0.  1.
         -5    1    3    3    0  502  0.32332170330E+02  0.23326380722E+02  0.56772035092E+00  0.40090946388E+02  0.41800000000E+01 0.  1.
        -11    1    4    4    0    0 -0.29244504985E+02  0.54029824305E+02 -0.80543102774E+02  0.10129982424E+03  0.00000000000E+00 0. -1.
         11    1    4    4    0    0  0.32412870323E+02  0.38748413785E+01  0.16602391323E+01  0.32685852479E+02  0.00000000000E+00 0.  1.
</event>
<event>
 7    1  0.5951278E-006  0.1904407E+03  0.7561462E-02  0.1158064E+00
          1   -1    0    0  501    0  0.00000000000E+00  0.00000000000E+00  0.22111770381E+03  0.22111770381E+03  0.00000000000E+00 0. -1.
         -1   -1    0    0    0  501 -0.00000000000E+00 -0.00000000000E+00 -0.31496245329E+03  0.31496245329E+03  0.00000000000E+00 0.  1.
         23    2    1    2    0    0  0.46012672722E+02  0.16289967691E+03  0.11404703709E+03  0.22456994351E+03  0.93656084013E+02 0.  0.
          5    1    1    2  502    0 -0.61207346016E+02 -0.17897994374E+02 -0.85063796222E+01  0.64470988074E+02  0.41800000000E+01 0. -1.
         -5    1    1    2    0  502  0.15194673294E+02 -0.14500168253E+03 -0.19938540695E+03  0.24703922551E+03  0.41800000000E+01 0.  1.
        -11    1    3    3    0    0  0.10539219204E+02  0.83404320742E+02  0.38745754788E+01  0.84156807181E+02  0.00000000000E+00 0.  1.
         11    1    3    3    0    0  0.35473453519E+02  0.79495356165E+02  0.11017246162E+03  0.14041313633E+03  0.00000000000E+00 0. -1.
</event>
<event>
 8    1  0.5951278E-006  0.7295506E+02  0.7561462E-02  0.1350323E+00
          2   -1    0    0  501    0  0.00000000000E+00  0.00000000000E+00  0.14657195561E+03  0.14657195561E+03  0.00000000000E+00 0. -1.
         -2   -1    0    0    0  501 -0.00000000000E+00 -0.00000000000E+00 -0.95123740810E+02  0.95123740810E+02  0.00000000000E+00 0.  1.
         23    2    1    2    0    0  0.42662242839E+02  0.14166759127E+02  0.12539814216E+02  0.13351358055E+03  0.12509142746E+03 0.  0.
         23    2    1    2    0    0 -0.42662242839E+02 -0.14166759127E+02  0.38908400584E+02  0.10818211587E+03  0.90381096087E+02 0.  0.
          5    1    3    3  502    0  0.35487195422E+02 -0.11204869130E+02  0.64792690031E+02  0.74836189191E+02  0.41800000000E+01 0.  1.
         -5    1    3    3    0  502  0.71750474167E+01  0.25371628257E+02 -0.52252875815E+02  0.58677391360E+02  0.41800000000E+01 0.  1.
        -11    1    4    4    0    0  0.12618200565E+02 -0.22562966410E+02 -0.15518610694E+02  0.30151844331E+02  0.00000000000E+00 0.  1.
         11    1    4    4    0    0 -0.55280443403E+02  0.83962072830E+01  0.54427011278E+02  0.78030271538E+02  0.00000000000E+00 0. -1.
</event>
<event>
 8    1  0.5951278E-006  0.1636438E+03  0.7561462E-02  0.1184643E+00
         -1   -1    0    0    0  501 -0.00000000000E+00  0.00000000000E+00  0.49584643217E+02  0.49584643217E+02  0.00000000000E+00 0.  1.
          1   -1    0    0  501    0  0.00000000000E+00 -0.00000000000E+00 -0.82816476630E+03  0.82816476630E+03  0.00000000000E+00 0. -1.
         23    2    1    2    0    0 -0.14049764950E+03  0.37588029713E+02 -0.21668898926E+03  0.28940542965E+03  0.12509570398E+03 0.  0.
         23    2    1    2    0    0  0.14049764950E+03 -0.37588029713E+02 -0.56189113382E+03  0.58834397986E+03  0.96304428133E+02 0.  0.
          5    1    3    3  502    0 -0.12764267409E+03 -0.14026470859E+02 -0.19099259363E+03  0.23018478958E+03  0.41800000000E+01 0.  1.
         -5    1    3    3    0  502 -0.12854975405E+02  0.51614500572E+02 -0.25696395633E+02  0.59220640072E+02  0.41800000000E+01 0.  1.
        -11    1    4    4    0    0  0.91716805028E+02 -0.23525978354E+02 -0.49707414197E+03  0.50601200243E+03  0.00000000000E+00 0. -1.
         11    1    4    4    0    0  0.48780844472E+02 -0.14062051359E+02 -0.64816991850E+02  0.82331977435E+02  0.00000000000E+00 0.  1.
</event>
<event>
 8    1  0.5951278E-006  0.1036094E+03  0.7561462E-02  0.1272884E+00
         -1   -1    0    0    0  501 -0.00000000000E+00  0.00000000000E+00  0.87974193577E+02  0.87974193577E+02  0.00000000000E+00 0.  1.
          1   -1    0    0  501    0  0.00000000000E+00 -0.00000000000E+00 -0.34695850585E+03  0.34695850585E+03  0.00000000000E+00 0. -1.
         23    2    1    2    0    0 -0.80513389688E+02  0.31201252604E+02 -0.36462711139E-01  0.14749117334E+03  0.11957307724E+03 0.  0.
         23    2    1    2    0    0  0.80513389688E+02 -0.31201252604E+02 -0.25894784957E+03  0.28744152609E+03  0.90070628072E+02 0.  0.
          5    1    3    3  502    0 -0.35267516446E+02  0.34624952917E+02 -0.56337588060E+02  0.75060517646E+02  0.41800000000E+01 0. -1.
         -5    1    3    3    0  502 -0.45245873242E+02 -0.34237003127E+01  0.56301125349E+02  0.72430655698E+02  0.41800000000E+01 0.  1.
        -11    1    4    4    0    0  0.14418430036E+01  0.18565937707E+02 -0.11036712658E+03  0.11192709942E+03  0.00000000000E+00 0.  1.
         11    1    4    4    0    0  0.79071546685E+02 -0.49767190312E+02 -0.14858072298E+03  0.17551442667E+03  0.00000000000E+00 0. -1.
</event>
<event>
 8    1  0.5951278E-006  0.1802313E+03  0.7561462E-02  0.1167579E+00
         -1   -1    0    0    0  501 -0.00000000000E+00  0.00000000000E+00  0.14719927025E+03  0.14719927025E+03  0.00000000000E+00 0.  1.
          1   -1    0    0  501    0  0.00000000000E+00 -0.00000000000E+00 -0.35888112027E+03  0.35888112027E+03  0.00000000000E+00 0. -1.
         23    2    1    2    0    0 -0.15472870972E+03  0.12421657078E+02  0.32891895534E+02  0.20206086742E+03  0.12510573998E+03 0.  0.
         23    2    1    2    0    0  0.15472870972E+03 -0.12421657078E+02 -0.24457374556E+03  0.30401952309E+03  0.92283705120E+02 0.  0.
          5    1    3    3  502    0  0.18370865305E+02 -0.13605650281E+02 -0.26648324146E+01  0.23391796498E+02  0.41800000000E+01 0. -1.
         -5    1    3    3    0  502 -0.17309957502E+03  0.26027307358E+02  0.35556727948E+02  0.17866907092E+03  0.41800000000E+01 0. -1.
        -11    1    4    4    0    0  0.12128759477E+03 -0.29142150986E+02 -0.23398900312E+03  0.26516183585E+03  0.00000000000E+00 0. -1.
         11    1    4    4    0    0  0.33441114950E+02  0.16720493908E+02 -0.10584742436E+02  0.38857687245E+02  0.00000000000E+00 0.  1.
</event>
<event>
 8    1  0.5951278E-006  0.1134020E+03  0.7561462E-02  0.1254397E+00
          1   -1    0    0  501    0  0.00000000000E+00  0.00000000000E+00  0.36873308083E+03  0.36873308083E+03  0.00000000000E+00 0. -1.
         -1   -1    0    0    0  501 -0.00000000000E+00 -0.00000000000E+00 -0.59748467190E+02  0.59748467190E+02  0.00000000000E+00 0.  1.
         23    2    1    2    0    0 -0.67079938936E+02  0.89351743921E+01  0.58531317659E+02  0.15379242056E+03  0.12508652176E+03 0.  0.
         23    2    1    2    0    0  0.67079938936E+02 -0.89351743921E+01  0.25045329598E+03  0.27468912746E+03  0.90264653817E+02 0.  0.
          5    1    3    3  502    0  0.24192890107E+02 -0.10351439758E+02  0.54100174431E+02  0.60305468328E+02  0.41800000000E+01 0.  1.
         -5    1    3    3    0  502 -0.91272829043E+02  0.19286614151E+02  0.44311432287E+01  0.93486952230E+02  0.41800000000E+01 0.  1.
        -11    1    4    4    0    0  0.70728465933E+02 -0.36072564566E+02  0.14053821824E+03  0.16141479670E+03  0.00000000000E+00 0.  1.
         11    1    4    4    0    0 -0.36485269963E+01  0.27137390174E+02  0.10991507774E+03  0.11327433076E+03  0.00000000000E+00 0. -1.
</event>
<event>
 8    1  0.5951278E-006  0.1013387E+03  0.7561462E-02  0.1277506E+00
         -1   -1    0    0    0  501 -0.00000000000E+00  0.00000000000E+00  0.20939656411E+03  0.20939656411E+03  0.00000000000E+00 0.  1.
          1   -1    0    0  501    0  0.00000000000E+00 -0.00000000000E+00 -0.79932561160E+02  0.79932561160E+02  0.00000000000E+00 0. -1.
         23    2    1    2    0    0  0.88049009759E+01 -0.57199355290E+01  0.14932609436E+03  0.19507778186E+03  0.12508722786E+03 0.  0.
         23    2    1    2    0    0 -0.88049009759E+01  0.57199355290E+01 -0.19862091407E+02  0.94251343413E+02  0.91534524178E+02 0.  0.
          5    1    3    3  502    0 -0.65106682280E+01 -0.60141647333E+02  0.42199750729E+02  0.73876233704E+02  0.41800000000E+01 0.  1.
         -5    1    3    3    0  502  0.15315569204E+02  0.54421711804E+02  0.10712634363E+03  0.12120154815E+03  0.41800000000E+01 0.  1.
        -11    1    4    4    0    0  0.22155805455E+02 -0.30501920045E+02 -0.26582742948E+02  0.46129047946E+02  0.00000000000E+00 0. -1.
         11    1    4    4    0    0 -0.30960706431E+02  0.36221855574E+02  0.67206515412E+01  0.48122295467E+02  0.00000000000E+00 0.  1.
</event>
<event>
 8    1  0.5951278E-006  0.1362076E+03  0.7561462E-02  0.1218525E+00
         -2   -1    0    0    0  501 -0.00000000000E+00  0.00000000000E+00  0.28853530916E+02  0.28853530916E+02  0.00000000000E+00 0.  1.
          2   -1    0    0  501    0  0.00000000000E+00 -0.00000000000E+00 -0.80031704947E+03  0.80031704947E+03  0.00000000000E+00 0. -1.
         23    2    1    2    0    0 -0.43143822109E+02  0.94429605720E+02 -0.45589181642E+03  0.48400935012E+03  0.12509741366E+03 0.  0.
         23    2    1    2    0    0  0.43143822109E+02 -0.94429605720E+02 -0.31557170214E+03  0.34516123027E+03  0.93661282645E+02 0.  0.
          5    1    3    3  502    0 -0.14043026529E+02 -0.30465306032E+02 -0.11047810149E+03  0.11553451767E+03  0.41800000000E+01 0.  1.
         -5    1    3    3    0  502 -0.29100795580E+02  0.12489491175E+03 -0.34541371493E+03  0.36847483245E+03  0.41800000000E+01 0.  1.
        -11    1    4    4    0    0 -0.10423873865E+01 -0.40799985224E+02 -0.28450094374E+02  0.49750710906E+02  0.00000000000E+00 0.  1.
         11    1    4    4    0    0  0.44186209496E+02 -0.53629620495E+02 -0.28712160777E+03  0.29541051936E+03  0.00000000000E+00 0. -1.
</event>
<event>
 8    1  0.5951278E-006  0.1318579E+03  0.7561462E-02  0.1224725E+00
          2   -1    0    0  501    0  0.00000000000E+00  0.00000000000E+00  0.19583136194E+03  0.19583136194E+03  0.00000000000E+00 0. -1.
         -2   -1    0    0    0  501 -0.00000000000E+00 -0.00000000000E+00 -0.12640240943E+03  0.12640240943E+03  0.00000000000E+00 0.  1.
         23    2    1    2    0    0 -0.10266559755E+03 -0.37744296749E+02  0.24302366674E+02  0.16793643589E+03  0.12508870700E+03 0.  0.
         23    2    1    2    0    0  0.10266559755E+03  0.37744296749E+02  0.45126585833E+02  0.15429733547E+03  0.99027279722E+02 0.  0.
          5    1    3    3  502    0 -0.12225702573E+03 -0.27665606128E+02 -0.11229835021E+02  0.12591960807E+03  0.41800000000E+01 0. -1.
         -5    1    3    3    0  502  0.19591428182E+02 -0.10078690621E+02  0.35532201695E+02  0.42016827821E+02  0.41800000000E+01 0. -1.
        -11    1    4    4    0    0  0.94958979530E+02  0.45184440386E+02 -0.27899480624E+01  0.10519802877E+03  0.00000000000E+00 0.  1.
         11    1    4    4    0    0  0.77066180158E+01 -0.74401436371E+01  0.47916533895E+02  0.49099306707E+02  0.00000000000E+00 0. -1.
</event>
<event>
 8    1  0.5951278E-006  0.1234643E+03  0.7561462E-02  0.1237489E+00
          2   -1    0    0  501    0  0.00000000000E+00  0.00000000000E+00  0.16057175374E+03  0.16057175374E+03  0.00000000000E+00 0. -1.
         -2   -1    0    0    0  501 -0.00000000000E+00 -0.00000000000E+00 -0.14632705564E+03  0.14632705564E+03  0.00000000000E+00 0.  1.
         23    2    1    2    0    0 -0.17646986512E+02 -0.97332229687E+02 -0.36023721291E+02  0.16349358416E+03  0.12508982571E+03 0.  0.
         23    2    1    2    0    0  0.17646986512E+02  0.97332229687E+02  0.50268419392E+02  0.14340522522E+03  0.90846934805E+02 0.  0.
          5    1    3    3  502    0 -0.55811762574E+02 -0.18245494528E+02 -0.46420265518E+02  0.74967755488E+02  0.41800000000E+01 0.  1.
         -5    1    3    3    0  502  0.38164776062E+02 -0.79086735159E+02  0.10396544227E+02  0.88525828671E+02  0.41800000000E+01 0.  1.
        -11    1    4    4    0    0  0.13296863147E+02  0.31749807141E+02 -0.25694733823E+02  0.42954349830E+02  0.00000000000E+00 0.  1.
         11    1    4    4    0    0  0.43501233651E+01  0.65582422546E+02  0.75963153215E+02  0.10045087539E+03  0.00000000000E+00 0. -1.
</event>
<event>
 8    1  0.5951278E-006  0.1051710E+03  0.7561462E-02  0.1269783E+00
         -1   -1    0    0    0  501 -0.00000000000E+00  0.00000000000E+00  0.18465886497E+03  0.18465886497E+03  0.00000000000E+00 0.  1.
          1   -1    0    0  501    0  0.00000000000E+00 -0.00000000000E+00 -0.19273929886E+03  0.19273929886E+03  0.00000000000E+00 0. -1.
         23    2    1    2    0    0  0.83665516673E+01 -0.62491727729E+02  0.13632676415E+03  0.19546716768E+03  0.12508881562E+03 0.  0.
         23    2    1    2    0    0 -0.83665516673E+01  0.62491727729E+02 -0.14440719805E+03  0.18193099615E+03  0.90940823022E+02 0.  0.
          5    1    3    3  502    0  0.32722729015E+02 -0.66927310523E+02  0.21107068365E+02  0.77543682032E+02  0.41800000000E+01 0.  1.
         -5    1    3    3    0  502 -0.24356177348E+02  0.44355827935E+01  0.11521969579E+03  0.11792348565E+03  0.41800000000E+01 0.  1.
        -11    1    4    4    0    0 -0.37868871588E+02  0.70519499906E+02 -0.10665943681E+03  0.13335399043E+03  0.00000000000E+00 0.  1.
         11    1    4    4    0    0  0.29502319921E+02 -0.80277721767E+01 -0.37747761237E+02  0.48577005725E+02  0.00000000000E+00 0. -1.
</event>
<event>
 8    1  0.5951278E-006  0.8627386E+02  0.7561462E-02  0.1312134E+00
         -4   -1    0    0    0  501 -0.00000000000E+00  0.00000000000E+00  0.21087262449E+03  0.21087262449E+03  0.00000000000E+00 0.  1.
          4   -1    0    0  501    0  0.00000000000E+00 -0.00000000000E+00 -0.78431443361E+02  0.78431443361E+02  0.00000000000E+00 0. -1.
         23    2    1    2    0    0  0.33017647482E+02  0.57578284867E+02  0.10749689502E+03  0.17779280305E+03  0.12509706010E+03 0.  0.
         23    2    1    2    0    0 -0.33017647482E+02 -0.57578284867E+02  0.24944286112E+02  0.11151126480E+03  0.86064631723E+02 0.  0.
          5    1    3    3  502    0 -0.12537523237E+02  0.16515671102E+02  0.11402879675E+03  0.11597411681E+03  0.41800000000E+01 0. -1.
         -5    1    3    3    0  502  0.45555170719E+02  0.41062613765E+02 -0.65319017372E+01  0.61818686242E+02  0.41800000000E+01 0. -1.
        -11    1    4    4    0    0  0.31476712983E+01 -0.53427135123E+02 -0.16827897559E+02  0.56102983329E+02  0.00000000000E+00 0. -1.
         11    1    4    4    0    0 -0.36165318781E+02 -0.41511497434E+01  0.41772183672E+02  0.55408281469E+02  0.00000000000E+00 0.  1.
</event>
<event>
 8    1  0.5951278E-006  0.9874538E+02  0.7561462E-02  0.1282957E+00
         -1   -1    0    0    0  501 -0.00000000000E+00  0.00000000000E+00  0.24748797930E+02  0.24748797930E+02  0.00000000000E+00 0.  1.
          1   -1    0    0  501    0  0.00000000000E+00 -0.00000000000E+00 -0.48933765870E+03  0.48933765870E+03  0.00000000000E+00 0. -1.
         23    2    1    2    0    0 -0.18099513125E+02 -0.16024468545E+02 -0.23154873662E+03  0.26428514351E+03  0.12508974251E+03 0.  0.
         23    2    1    2    0    0  0.18099513125E+02  0.16024468545E+02 -0.23304012415E+03  0.24980131312E+03  0.86652297173E+02 0.  0.
          5    1    3    3  502    0 -0.94995673474E+01  0.45616639108E+02 -0.17125669290E+03  0.17753153750E+03  0.41800000000E+01 0.  1.
         -5    1    3    3    0  502 -0.85999457774E+01 -0.61641107654E+02 -0.60292043719E+02  0.86753606011E+02  0.41800000000E+01 0.  1.
        -11    1    4    4    0    0  0.22337747722E+02 -0.32601325452E+02 -0.81155799903E+02  0.90266744997E+02  0.00000000000E+00 0. -1.
         11    1    4    4    0    0 -0.42382345968E+01  0.48625793997E+02 -0.15188432425E+03  0.15953456813E+03  0.00000000000E+00 0.  1.
</event>
<event>
 8    1  0.5951278E-006  0.2913369E+03  0.7561462E-02  0.1089653E+00
          2   -1    0    0  501    0  0.00000000000E+00  0.00000000000E+00  0.13733347462E+04  0.13733347462E+04  0.00000000000E+00 0. -1.
         -2   -1    0    0    0  501 -0.00000000000E+00 -0.00000000000E+00 -0.70929084450E+02  0.70929084450E+02  0.00000000000E+00 0.  1.
         23    2    1    2    0    0  0.27446388005E+03  0.79275035842E+01  0.43156198580E+03  0.52657997035E+03  0.12508977104E+03 0.  0.
         23    2    1    2    0    0 -0.27446388005E+03 -0.79275035842E+01  0.87084367591E+03  0.91768386026E+03  0.91551585152E+02 0.  0.
          5    1    3    3  502    0  0.21076395733E+03  0.50455981833E+02  0.36740263488E+03  0.42657873872E+03  0.41800000000E+01 0. -1.
         -5    1    3    3    0  502  0.63699922724E+02 -0.42528478249E+02  0.64159350928E+02  0.10000123164E+03  0.41800000000E+01 0. -1.
        -11    1    4    4    0    0 -0.10247461578E+03  0.41034810203E+02  0.35035488018E+03  0.36733287982E+03  0.00000000000E+00 0. -1.
         11    1    4    4    0    0 -0.17198926427E+03 -0.48962313788E+02  0.52048879573E+03  0.55035098044E+03  0.00000000000E+00 0.  1.
</event>
<event>
 6    1  0.5951278E-006  0.1004762E+03  0.7561462E-02  0.1279298E+00
          2   -1    0    0  501    0  0.00000000000E+00  0.00000000000E+00  0.45759538741E+02  0.45759538741E+02  0.00000000000E+00 0. -1.
         -2   -1    0    0    0  501 -0.00000000000E+00 -0.00000000000E+00 -0.42030654654E+03  0.42030654654E+03  0.00000000000E+00 0.  1.
          5    1    1    2  502    0  0.43103206398E+02  0.29142349284E+01 -0.11077362003E+02  0.44794637134E+02  0.41800000000E+01 0. -1.
         -5    1    1    2    0  502 -0.24061923360E+02  0.73925259645E+02 -0.32045013381E+03  0.32977216503E+03  0.41800000000E+01 0.  1.
        -11    1    1    2    0    0 -0.34900357149E+01 -0.32883344550E+02 -0.25234085357E+02  0.41596319091E+02  0.00000000000E+00 0.  1.
         11    1    1    2    0    0 -0.15551247323E+02 -0.43956150023E+02 -0.17785426629E+02  0.49902964026E+02  0.00000000000E+00 0. -1.
</event>
<event>
 8    1  0.5951278E-006  0.1183580E+03  0.7561462E-02  0.1245831E+00
          2   -1    0    0  501    0  0.00000000000E+00  0.00000000000E+00  0.19144552057E+03  0.19144552057E+03  0.00000000000E+00 0. -1.
         -2   -1    0    0    0  501 -0.00000000000E+00 -0.00000000000E+00 -0.13845476999E+03  0.13845476999E+03  0.00000000000E+00 0.  1.
         23    2    1    2    0    0  0.15101054064E+02 -0.45018911221E+02 -0.84134366537E+02  0.15805263604E+03  0.12508916790E+03 0.  0.
         23    2    1    2    0    0 -0.15101054064E+02  0.45018911221E+02  0.13712511712E+03  0.17184765452E+03  0.92052020162E+02 0.  0.
          5    1    3    3  502    0 -0.33558246311E+02 -0.70402912464E+02 -0.41598891076E+02  0.88491051060E+02  0.41800000000E+01 0.  1.
         -5    1    3    3    0  502  0.48659300375E+02  0.25384001243E+02 -0.42535475461E+02  0.69561584979E+02  0.41800000000E+01 0.  1.
        -11    1    4    4    0    0  0.27431079220E+02  0.53572727080E+02  0.78725858013E+02  0.99097234643E+02  0.00000000000E+00 0. -1.
         11    1    4    4    0    0 -0.42532133284E+02 -0.85538158593E+01  0.58399259109E+02  0.72750419874E+02  0.00000000000E+00 0.  1.
</event>
<event>
 8    1  0.5951278E-006  0.1216678E+03  0.7561462E-02  0.1240371E+00
          1   -1    0    0  501    0  0.00000000000E+00  0.00000000000E+00  0.17081501332E+03  0.17081501332E+03  0.00000000000E+00 0. -1.
         -1   -1    0    0    0  501 -0.00000000000E+00 -0.00000000000E+00 -0.11769566002E+03  0.11769566002E+03  0.00000000000E+00 0.  1.
         23    2    1    2    0    0 -0.71905949059E+02 -0.11867180641E+02 -0.27807154814E+02  0.14741686552E+03  0.12508876406E+03 0.  0.
         23    2    1    2    0    0  0.71905949059E+02  0.11867180641E+02  0.80926508115E+02  0.14109380783E+03  0.89705448021E+02 0.  0.
          5    1    3    3  502    0  0.22965380850E+02 -0.22803700547E+02  0.22265762035E+02  0.39505114039E+02  0.41800000000E+01 0.  1.
         -5    1    3    3    0  502 -0.94871329909E+02  0.10936519905E+02 -0.50072916848E+02  0.10791175148E+03  0.41800000000E+01 0.  1.
        -11    1    4    4    0    0  0.89892504839E+01 -0.35332887931E+02  0.19855616851E+02  0.41514637350E+02  0.00000000000E+00 0. -1.
         11    1    4    4    0    0  0.62916698575E+02  0.47200068572E+02  0.61070891264E+02  0.99579170475E+02  0.00000000000E+00 0.  1.
</event>
<event>
 8    1  0.5951278E-006  0.1096297E+03  0.7561462E-02  0.1261257E+00
          1   -1    0    0  501    0  0.00000000000E+00  0.00000000000E+00  0.49918533352E+02  0.49918533352E+02  0.00000000000E+00 0. -1.
         -1   -1    0    0    0  501 -0.00000000000E+00 -0.00000000000E+00 -0.31827379943E+03  0.31827379943E+03  0.00000000000E+00 0.  1.
         23    2    1    2    0    0  0.50878356435E+02  0.24054380079E+02 -0.19701748946E+03  0.24006411212E+03  0.12509063282E+03 0.  0.
         23    2    1    2    0    0 -0.50878356435E+02 -0.24054380079E+02 -0.71337776613E+02  0.12812822066E+03  0.90335719414E+02 0.  0.
          5    1    3    3  502    0  0.93983799723E+01 -0.43277819113E+02 -0.12625200674E+03  0.13385940676E+03  0.41800000000E+01 0. -1.
         -5    1    3    3    0  502  0.41479976463E+02  0.67332199192E+02 -0.70765482726E+02  0.10620470536E+03  0.41800000000E+01 0. -1.
        -11    1    4    4    0    0  0.23301036673E+01 -0.39974935265E+02 -0.31248247133E+01  0.40164528654E+02  0.00000000000E+00 0. -1.
         11    1    4    4    0    0 -0.53208460102E+02  0.15920555186E+02 -0.68212951899E+02  0.87963692002E+02  0.00000000000E+00 0.  1.
</event>
<event>
 8    1  0.5951278E-006  0.1795499E+03  0.7561462E-02  0.1168239E+00
          2   -1    0    0  501    0  0.00000000000E+00  0.00000000000E+00  0.91046282369E+03  0.91046282369E+03  0.00000000000E+00 0. -1.
         -2   -1    0    0    0  501 -0.00000000000E+00 -0.00000000000E+00 -0.36686081602E+02  0.36686081602E+02  0.00000000000E+00 0.  1.
         23    2    1    2    0    0  0.34508702276E+02  0.14199462833E+03  0.43262688385E+03  0.47346399699E+03  0.12509520700E+03 0.  0.
         23    2    1    2    0    0 -0.34508702276E+02 -0.14199462833E+03  0.44114985824E+03  0.47368490830E+03  0.91710794993E+02 0.  0.
          5    1    3    3  502    0 -0.42026148395E+02  0.31354081696E+02  0.17585880608E+03  0.18355671511E+03  0.41800000000E+01 0. -1.
         -5    1    3    3    0  502  0.76534850671E+02  0.11064054663E+03  0.25676807777E+03  0.28990728188E+03  0.41800000000E+01 0. -1.
        -11    1    4    4    0    0  0.16037742377E+02 -0.11196741018E+03  0.30881553910E+03  0.32887831688E+03  0.00000000000E+00 0.  1.
         11    1    4    4    0    0 -0.50546444653E+02 -0.30027218149E+02  0.13233431914E+03  0.14480659142E+03  0.00000000000E+00 0. -1.
</event>
<event>
 8    1  0.5951278E-006  0.9962949E+02  0.7561462E-02  0.1281077E+00
          1   -1    0    0  501    0  0.00000000000E+00  0.00000000000E+00  0.31890749098E+03  0.31890749098E+03  0.00000000000E+00 0. -1.
         -1   -1    0    0    0  501 -0.00000000000E+00 -0.00000000000E+00 -0.48530404704E+02  0.48530404704E+02  0.00000000000E+00 0.  1.
         23    2    1    2    0    0 -0.41118013196E+02  0.12025651499E+02  0.85970745499E+02  0.15771596654E+03  0.12509216489E+03 0.  0.
         23    2    1    2    0    0  0.41118013196E+02 -0.12025651499E+02  0.18440634077E+03  0.20972192914E+03  0.90234592818E+02 0.  0.
          5    1    3    3  502    0  0.27530339088E+02 -0.72776659269E+01 -0.16217564641E+02  0.33035825925E+02  0.41800000000E+01 0.  1.
         -5    1    3    3    0  502 -0.68648352285E+02  0.19303317426E+02  0.10218831014E+03  0.12468014062E+03  0.41800000000E+01 0.  1.
        -11    1    4    4    0    0  0.69346740409E+02 -0.14004495896E+02  0.11874810262E+03  0.13822520822E+03  0.00000000000E+00 0. -1.
         11    1    4    4    0    0 -0.28228727213E+02  0.19788443966E+01  0.65658238155E+02  0.71496720924E+02  0.00000000000E+00 0.  1.
</event>
<event>
 8    1  0.5951278E-006  0.1187838E+03  0.7561462E-02  0.1245117E+00
          1   -1    0    0  501    0  0.00000000000E+00  0.00000000000E+00  0.32072505657E+03  0.32072505657E+03  0.00000000000E+00 0. -1.
         -1   -1    0    0    0  501 -0.00000000000E+00 -0.00000000000E+00 -0.84545269884E+02  0.84545269884E+02  0.00000000000E+00 0.  1.
         23    2    1    2    0    0 -0.73193613325E+02  0.52076996448E+02  0.21213081215E+02  0.15545539334E+03  0.12508823252E+03 0.  0.
         23    2    1    2    0    0  0.73193613325E+02 -0.52076996448E+02  0.21496670547E+03  0.24981493311E+03  0.90152635867E+02 0.  0.
          5    1    3    3  502    0  0.21062133362E+02  0.27722850653E+01  0.41757269820E+02  0.47036592235E+02  0.41800000000E+01 0.  1.
         -5    1    3    3    0  502 -0.94255746687E+02  0.49304711382E+02 -0.20544188605E+02  0.10841880111E+03  0.41800000000E+01 0.  1.
        -11    1    4    4    0    0  0.53058909370E+02 -0.66221133649E+02  0.20737470910E+03  0.22406417915E+03  0.00000000000E+00 0. -1.
         11    1    4    4    0    0  0.20134703955E+02  0.14144137201E+02  0.75919963717E+01  0.25750753959E+02  0.00000000000E+00 0.  1.
</event>
<event>
 8    1  0.5951278E-006  0.1959985E+03  0.7561462E-02  0.1153160E+00
          1   -1    0    0  501    0  0.00000000000E+00  0.00000000000E+00  0.55226968140E+03  0.55226968140E+03  0.00000000000E+00 0. -1.
         -1   -1    0    0    0  501 -0.00000000000E+00 -0.00000000000E+00 -0.80571283050E+02  0.80571283050E+02  0.00000000000E+00 0.  1.
         23    2    1    2    0    0  0.17820413511E+03 -0.17457367520E+01  0.19985968630E+03  0.29555304165E+03  0.12509174574E+03 0.  0.
         23    2    1    2    0    0 -0.17820413511E+03  0.17457367520E+01  0.27183871205E+03  0.33728792280E+03  0.90039414319E+02 0.  0.
          5    1    3    3  502    0  0.59190666667E+00 -0.24024564681E+02  0.70664326356E+02  0.74755932748E+02  0.41800000000E+01 0. -1.
         -5    1    3    3    0  502  0.17761222845E+03  0.22278827929E+02  0.12919535994E+03  0.22079710890E+03  0.41800000000E+01 0. -1.
        -11    1    4    4    0    0 -0.43440001061E+02 -0.26464303688E+02  0.13007336269E+03  0.13966557466E+03  0.00000000000E+00 0.  1.
         11    1    4    4    0    0 -0.13476413405E+03  0.28210040440E+02  0.14176534936E+03  0.19762234815E+03  0.00000000000E+00 0. -1.
</event>
<event>
 8    1  0.5951278E-006  0.1083983E+03  0.7561462E-02  0.1263565E+00
         -2   -1    0    0    0  501 -0.00000000000E+00  0.00000000000E+00  0.12974065700E+03  0.12974065700E+03  0.00000000000E+00 0.  1.
          2   -1    0    0  501    0  0.00000000000E+00 -0.00000000000E+00 -0.10950296141E+03  0.10950296141E+03  0.00000000000E+00 0. -1.
         23    2    1    2    0    0  0.32664476749E+01 -0.49877958649E+02  0.10537905483E+02  0.13511773649E+03  0.12508906755E+03 0.  0.
         23    2    1    2    0    0 -0.32664476749E+01  0.49877958649E+02  0.96997901030E+01  0.10412588192E+03  0.90827489885E+02 0.  0.
          5    1    3    3  502    0 -0.47014095862E+02 -0.85637304493E+01 -0.31631186081E+02  0.57460134196E+02  0.41800000000E+01 0. -1.
         -5    1    3    3    0  502  0.50280543537E+02 -0.41314228200E+02  0.42169091564E+02  0.77657602290E+02  0.41800000000E+01 0. -1.
        -11    1    4    4    0    0 -0.46563825456E+02  0.18321369660E+02  0.29498268923E+01  0.50125481603E+02  0.00000000000E+00 0.  1.
         11    1    4    4    0    0  0.43297377781E+02  0.31556588989E+02  0.67499632106E+01  0.54000400320E+02  0.00000000000E+00 0. -1.
</event>
<event>
 8    1  0.5951278E-006  0.1230411E+03  0.7561462E-02  0.1238163E+00
          2   -1    0    0  501    0  0.00000000000E+00  0.00000000000E+00  0.34065063782E+03  0.34065063782E+03  0.00000000000E+00 0. -1.
         -2   -1    0    0    0  501 -0.00000000000E+00 -0.00000000000E+00 -0.67270439775E+02  0.67270439775E+02  0.00000000000E+00 0.  1.
         23    2    1    2    0    0  0.50492796006E+02 -0.62178883796E+02  0.55599852219E+02  0.15862188560E+03  0.12511523882E+03 0.  0.
         23    2    1    2    0    0 -0.50492796006E+02  0.62178883796E+02  0.21778034582E+03  0.24929919199E+03  0.91137654480E+02 0.  0.
          5    1    3    3  502    0  0.29041054433E+02  0.28809103564E+02 -0.12399371323E+02  0.42948388793E+02  0.41800000000E+01 0.  1.
         -5    1    3    3    0  502  0.21451741573E+02 -0.90987987360E+02  0.67999223542E+02  0.11567349680E+03  0.41800000000E+01 0.  1.
        -11    1    4    4    0    0 -0.72055300408E+01  0.67401407857E+02  0.80379193362E+02  0.10514601357E+03  0.00000000000E+00 0. -1.
         11    1    4    4    0    0 -0.43287265965E+02 -0.52225240613E+01  0.13740115246E+03  0.14415317842E+03  0.00000000000E+00 0.  1.
</event>
<event>
 8    1  0.5951278E-006  0.9849802E+02  0.7561462E-02  0.1283486E+00
          1   -1    0    0  501    0  0.00000000000E+00  0.00000000000E+00  0.87860653507E+02  0.87860653507E+02  0.00000000000E+00 0. -1.
         -1   -1    0    0    0  501 -0.00000000000E+00 -0.00000000000E+00 -0.15908713058E+03  0.15908713058E+03  0.00000000000E+00 0.  1.
         23    2    1    2    0    0 -0.13007525346E+02  0.37393918610E+01 -0.92036928528E+02  0.15589128719E+03  0.12509243959E+03 0.  0.
         23    2    1    2    0    0  0.13007525346E+02 -0.37393918610E+01  0.20810451452E+02  0.91056496902E+02  0.87607259809E+02 0.  0.
          5    1    3    3  502    0 -0.58311214756E+02 -0.16312027801E+02 -0.12306401118E+02  0.61928990996E+02  0.41800000000E+01 0. -1.
         -5    1    3    3    0  502  0.45303689410E+02  0.20051419662E+02 -0.79730527411E+02  0.93962296193E+02  0.41800000000E+01 0. -1.
        -11    1    4    4    0    0  0.43614448472E+01 -0.44602660599E+02  0.99487294609E+00  0.44826435346E+02  0.00000000000E+00 0.  1.
         11    1    4    4    0    0  0.86460804993E+01  0.40863268738E+02  0.19815578506E+02  0.46230061556E+02  0.00000000000E+00 0. -1.
</event>
<event>
 8    1  0.5951278E-006  0.1080117E+03  0.7561462E-02  0.1264297E+00
          1   -1    0    0  501    0  0.00000000000E+00  0.00000000000E+00  0.10195343149E+03  0.10195343149E+03  0.00000000000E+00 0. -1.
         -1   -1    0    0    0  501 -0.00000000000E+00 -0.00000000000E+00 -0.16826429466E+03  0.16826429466E+03  0.00000000000E+00 0.  1.
         23    2    1    2    0    0  0.56408326992E+02  0.48349496207E+02 -0.37324299486E+02  0.15019821070E+03  0.12508727364E+03 0.  0.
         23    2    1    2    0    0 -0.56408326992E+02 -0.48349496207E+02 -0.28986563684E+02  0.12001951545E+03  0.89693311213E+02 0.  0.
          5    1    3    3  502    0 -0.35024315811E+02 -0.27415663865E+01  0.75477682195E+01  0.36175407246E+02  0.41800000000E+01 0.  1.
         -5    1    3    3    0  502  0.91432642803E+02  0.51091062594E+02 -0.44872067705E+02  0.11402280345E+03  0.41800000000E+01 0.  1.
        -11    1    4    4    0    0 -0.19513935329E+02 -0.78413145195E+01  0.31837127628E+02  0.38156029419E+02  0.00000000000E+00 0. -1.
         11    1    4    4    0    0 -0.36894391663E+02 -0.40508181688E+02 -0.60823691312E+02  0.81863486028E+02  0.00000000000E+00 0.  1.
</event>
<event>
 8    1  0.5951278E-006  0.1107601E+03  0.7561462E-02  0.1259169E+00
          2   -1    0    0  501    0  0.00000000000E+00  0.00000000000E+00  0.28667565189E+03  0.28667565189E+03  0.00000000000E+00 0. -1.
         -2   -1    0    0    0  501 -0.00000000000E+00 -0.00000000000E+00 -0.66912929843E+02  0.66912929843E+02  0.00000000000E+00 0.  1.
         23    2    1    2    0    0 -0.86645009483E+02  0.11944574557E+02  0.11733025313E+03  0.19251564078E+03  0.12508338464E+03 0.  0.
         23    2    1    2    0    0  0.86645009483E+02 -0.11944574557E+02  0.10243246891E+03  0.16107294096E+03  0.88329219915E+02 0.  0.
          5    1    3    3  502    0 -0.56024660097E+02 -0.12857771013E+02  0.13674134004E+03  0.14839053639E+03  0.41800000000E+01 0.  1.
         -5    1    3    3    0  502 -0.30620349386E+02  0.24802345570E+02 -0.19411086906E+02  0.44125104387E+02  0.41800000000E+01 0.  1.
        -11    1    4    4    0    0  0.21514258410E+02  0.36992752663E+02  0.33220467588E+02  0.54174962217E+02  0.00000000000E+00 0.  1.
         11    1    4    4    0    0  0.65130751073E+02 -0.48937327221E+02  0.69212001326E+02  0.10689797874E+03  0.00000000000E+00 0. -1.
</event>
<event>
 8    1  0.5951278E-006  0.1827012E+03  0.7561462E-02  0.1165214E+00
          2   -1    0    0  501    0  0.00000000000E+00  0.00000000000E+00  0.16460103286E+03  0.16460103286E+03  0.00000000000E+00 0. -1.
         -2   -1    0    0    0  501 -0.00000000000E+00 -0.00000000000E+00 -0.21802792393E+03  0.21802792393E+03  0.00000000000E+00 0.  1.
         23    2    1    2    0    0 -0.90261178456E+02 -0.11871710241E+03 -0.86067975958E+00  0.19465139629E+03  0.12509034563E+03 0.  0.
         23    2    1    2    0    0  0.90261178456E+02  0.11871710241E+03 -0.52566211315E+02  0.18797756050E+03  0.10164411413E+03 0.  0.
          5    1    3    3  502    0 -0.79310732028E+02 -0.13211267361E+02  0.26969385650E+02  0.84909068788E+02  0.41800000000E+01 0. -1.
         -5    1    3    3    0  502 -0.10950446428E+02 -0.10550583505E+03 -0.27830065410E+02  0.10974232751E+03  0.41800000000E+01 0. -1.
        -11    1    4    4    0    0  0.38714017891E+02 -0.10081079698E+02 -0.22952535244E+02  0.46121819383E+02  0.00000000000E+00 0. -1.
         11    1    4    4    0    0  0.51547160565E+02  0.12879818211E+03 -0.29613676071E+02  0.14185574111E+03  0.00000000000E+00 0.  1.
</event>
<event>
 8    1  0.5951278E-006  0.1187705E+03  0.7561462E-02  0.1245139E+00
         -4   -1    0    0    0  501 -0.00000000000E+00  0.00000000000E+00  0.83367956457E+02  0.83367956457E+02  0.00000000000E+00 0.  1.
          4   -1    0    0  501    0  0.00000000000E+00 -0.00000000000E+00 -0.22719646522E+03  0.22719646522E+03  0.00000000000E+00 0. -1.
         23    2    1    2    0    0 -0.68972548065E+02  0.28532912128E+02 -0.37151487366E+02  0.15033325744E+03  0.12509402791E+03 0.  0.
         23    2    1    2    0    0  0.68972548065E+02 -0.28532912128E+02 -0.10667702140E+03  0.16023116423E+03  0.93395394090E+02 0.  0.
          5    1    3    3  502    0 -0.15112172376E+02 -0.48342151814E+02 -0.21035168773E+02  0.55002655583E+02  0.41800000000E+01 0.  1.
         -5    1    3    3    0  502 -0.53860375689E+02  0.76875063942E+02 -0.16116318594E+02  0.95330601857E+02  0.41800000000E+01 0.  1.
        -11    1    4    4    0    0 -0.96127322803E+01 -0.42444969475E+01  0.11927517996E+02  0.15896102094E+02  0.00000000000E+00 0.  1.
         11    1    4    4    0    0  0.78585280346E+02 -0.24288415180E+02 -0.11860453939E+03  0.14433506214E+03  0.00000000000E+00 0. -1.
</event>
<event>
 8    1  0.5951278E-006  0.9562754E+02  0.7561462E-02  0.1289769E+00
         -2   -1    0    0    0  501 -0.00000000000E+00  0.00000000000E+00  0.71310805045E+03  0.71310805045E+03  0.00000000000E+00 0.  1.
          2   -1    0    0  501    0  0.00000000000E+00 -0.00000000000E+00 -0.32783117580E+02  0.32783117580E+02  0.00000000000E+00 0. -1.
         23    2    1    2    0    0  0.80924485724E+02  0.16918496530E+02  0.53764444809E+03  0.55816181400E+03  0.12509216652E+03 0.  0.
         23    2    1    2    0    0 -0.80924485724E+02 -0.16918496530E+02  0.14268048478E+03  0.18772935404E+03  0.89719461184E+02 0.  0.
          5    1    3    3  502    0 -0.11162438548E+02 -0.62173952034E+01  0.32461329585E+03  0.32489155157E+03  0.41800000000E+01 0. -1.
         -5    1    3    3    0  502  0.92086924271E+02  0.23135891733E+02  0.21303115224E+03  0.23327026243E+03  0.41800000000E+01 0. -1.
        -11    1    4    4    0    0 -0.50923772537E+02 -0.86672635860E+01  0.11515099336E+02  0.52923998150E+02  0.00000000000E+00 0. -1.
         11    1    4    4    0    0 -0.30000713187E+02 -0.82512329437E+01  0.13116538544E+03  0.13480535589E+03  0.00000000000E+00 0.  1.
</event>
<event>
 8    1  0.5951278E-006  0.1079171E+03  0.7561462E-02  0.1264476E+00
         -1   -1    0    0    0  501 -0.00000000000E+00  0.00000000000E+00  0.16281271373E+02  0.16281271373E+02  0.00000000000E+00 0. -1.
          1   -1    0    0  501    0  0.00000000000E+00 -0.00000000000E+00 -0.75287791635E+03  0.75287791635E+03  0.00000000000E+00 0.  1.
         23    2    1    2    0    0  0.43728379063E+02  0.84982585928E+01 -0.40643143476E+03  0.42757316552E+03  0.12509160315E+03 0.  0.
         23    2    1    2    0    0 -0.43728379063E+02 -0.84982585928E+01 -0.33016521021E+03  0.34158602220E+03  0.75415866969E+02 0.  0.
          5    1    3    3  502    0  0.84807388799E+02  0.17461038510E+02 -0.22110656691E+03  0.23749266808E+03  0.41800000000E+01 0. -1.
         -5    1    3    3    0  502 -0.41079009736E+02 -0.89627799169E+01 -0.18532486785E+03  0.19008049745E+03  0.41800000000E+01 0. -1.
        -11    1    4    4    0    0  0.18294329768E+02  0.11640882760E+02 -0.10233557104E+03  0.10460765629E+03  0.00000000000E+00 0.  1.
         11    1    4    4    0    0 -0.62022708831E+02 -0.20139141353E+02 -0.22782963917E+03  0.23697836591E+03  0.00000000000E+00 0. -1.
</event>
<event>
 8    1  0.5951278E-006  0.1816146E+03  0.7561462E-02  0.1166250E+00
          1   -1    0    0  501    0  0.00000000000E+00  0.00000000000E+00  0.56346430351E+02  0.56346430351E+02  0.00000000000E+00 0. -1.
         -1   -1    0    0    0  501 -0.00000000000E+00 -0.00000000000E+00 -0.76037699698E+03  0.76037699698E+03  0.00000000000E+00 0.  1.
         23    2    1    2    0    0 -0.13410282922E+03  0.10912508237E+03 -0.46919855156E+03  0.51544826235E+03  0.12509107869E+03 0.  0.
         23    2    1    2    0    0  0.13410282922E+03 -0.10912508237E+03 -0.23483201506E+03  0.30127516497E+03  0.75688819035E+02 0.  0.
          5    1    3    3  502    0 -0.57291067530E+02  0.64100286260E+02 -0.37895545856E+03  0.38860754636E+03  0.41800000000E+01 0.  1.
         -5    1    3    3    0  502 -0.76811761688E+02  0.45024796106E+02 -0.90243093000E+02  0.12684071599E+03  0.41800000000E+01 0.  1.
        -11    1    4    4    0    0  0.25486779539E+02 -0.66720137257E+02 -0.10210538095E+03  0.12460602499E+03  0.00000000000E+00 0.  1.
         11    1    4    4    0    0  0.10861604968E+03 -0.42404945109E+02 -0.13272663412E+03  0.17666913998E+03  0.00000000000E+00 0. -1.
</event>
<event>
 8    1  0.5951278E-006  0.3164914E+03  0.7561462E-02  0.1077275E+00
          2   -1    0    0  501    0  0.00000000000E+00  0.00000000000E+00  0.68119807271E+03  0.68119807271E+03  0.00000000000E+00 0. -1.
         -2   -1    0    0    0  501 -0.00000000000E+00 -0.00000000000E+00 -0.19908250670E+03  0.19908250670E+03  0.00000000000E+00 0.  1.
         23    2    1    2    0    0  0.27507517148E+03  0.13862429172E+03  0.41719176116E+02  0.33506933166E+03  0.12509165896E+03 0.  0.
         23    2    1    2    0    0 -0.27507517148E+03 -0.13862429172E+03  0.44039638989E+03  0.54521124776E+03  0.91778430079E+02 0.  0.
          5    1    3    3  502    0  0.28034278632E+03  0.12511753965E+03  0.58451496462E+02  0.31253883984E+03  0.41800000000E+01 0.  1.
         -5    1    3    3    0  502 -0.52676148340E+01  0.13506752070E+02 -0.16732320346E+02  0.22530491821E+02  0.41800000000E+01 0.  1.
        -11    1    4    4    0    0 -0.18659520967E+03 -0.11538654674E+03  0.24142566916E+03  0.32621799639E+03  0.00000000000E+00 0.  1.
         11    1    4    4    0    0 -0.88479961818E+02 -0.23237744981E+02  0.19897072074E+03  0.21899325137E+03  0.00000000000E+00 0. -1.
</event>
<event>
 8    1  0.5951278E-006  0.1416287E+03  0.7561462E-02  0.1211154E+00
         -2   -1    0    0    0  501 -0.00000000000E+00  0.00000000000E+00  0.28829389987E+03  0.28829389987E+03  0.00000000000E+00 0.  1.
          2   -1    0    0  501    0  0.00000000000E+00 -0.00000000000E+00 -0.82718508990E+02  0.82718508990E+02  0.00000000000E+00 0. -1.
         23    2    1    2    0    0  0.61552772079E+02  0.75318825859E+02  0.17073380087E+03  0.23293366502E+03  0.12508553977E+03 0.  0.
         23    2    1    2    0    0 -0.61552772079E+02 -0.75318825859E+02  0.34841590012E+02  0.13807874385E+03  0.91597673706E+02 0.  0.
          5    1    3    3  502    0  0.98488874196E+02  0.49996679862E+02  0.99674304294E+02  0.14883603621E+03  0.41800000000E+01 0. -1.
         -5    1    3    3    0  502 -0.36936102117E+02  0.25322145997E+02  0.71059496578E+02  0.84097628810E+02  0.41800000000E+01 0. -1.
        -11    1    4    4    0    0 -0.82292805823E+02 -0.57323475771E+02  0.43456522594E+02  0.10930030247E+03  0.00000000000E+00 0.  1.
         11    1    4    4    0    0  0.20740033744E+02 -0.17995350088E+02 -0.86149325822E+01  0.28778441374E+02  0.00000000000E+00 0. -1.
</event>
<event>
 8    1  0.5951278E-006  0.1340688E+03  0.7561462E-02  0.1221540E+00
          1   -1    0    0  501    0  0.00000000000E+00  0.00000000000E+00  0.20408416451E+03  0.20408416451E+03  0.00000000000E+00 0. -1.
         -1   -1    0    0    0  501 -0.00000000000E+00 -0.00000000000E+00 -0.98351740485E+02  0.98351740485E+02  0.00000000000E+00 0.  1.
         23    2    1    2    0    0 -0.75582673707E+02 -0.36784449652E+02  0.21647879257E+02  0.15225049655E+03  0.12508295936E+03 0.  0.
         23    2    1    2    0    0  0.75582673707E+02  0.36784449652E+02  0.84084544772E+02  0.15018540845E+03  0.91758432532E+02 0.  0.
          5    1    3    3  502    0 -0.60061940657E+02  0.39309987938E+02  0.19266545627E+02  0.74440473182E+02  0.41800000000E+01 0.  1.
         -5    1    3    3    0  502 -0.15520733051E+02 -0.76094437590E+02  0.23813336300E+01  0.77810023367E+02  0.41800000000E+01 0.  1.
        -11    1    4    4    0    0  0.86531937322E+02  0.71025526590E+01  0.80405118461E+02  0.11833514062E+03  0.00000000000E+00 0. -1.
         11    1    4    4    0    0 -0.10949263615E+02  0.29681896992E+02  0.36794263114E+01  0.31850267829E+02  0.00000000000E+00 0.  1.
</event>
<event>
 8    1  0.5951278E-006  0.1086127E+03  0.7561462E-02  0.1263161E+00
          3   -1    0    0  501    0  0.00000000000E+00  0.00000000000E+00  0.17091473993E+03  0.17091473993E+03  0.00000000000E+00 0. -1.
         -3   -1    0    0    0  501 -0.00000000000E+00 -0.00000000000E+00 -0.14957724687E+03  0.14957724687E+03  0.00000000000E+00 0.  1.
         23    2    1    2    0    0 -0.89418047841E+02  0.42452958518E+02 -0.51462533177E+02  0.16761255284E+03  0.12509090527E+03 0.  0.
         23    2    1    2    0    0  0.89418047841E+02 -0.42452958518E+02  0.72800026233E+02  0.15287943396E+03  0.90963929894E+02 0.  0.
          5    1    3    3  502    0 -0.51227941902E+02  0.63321250270E+01  0.37677842627E+02  0.64042876761E+02  0.41800000000E+01 0.  1.
         -5    1    3    3    0  502 -0.38190105939E+02  0.36120833491E+02 -0.89140375805E+02  0.10356967608E+03  0.41800000000E+01 0.  1.
        -11    1    4    4    0    0  0.62884003261E+02 -0.28466326775E+00 -0.21033296242E+01  0.62919813214E+02  0.00000000000E+00 0.  1.
         11    1    4    4    0    0  0.26534044579E+02 -0.42168295251E+02  0.74903355857E+02  0.89959620746E+02  0.00000000000E+00 0. -1.
</event>
<event>
 8    1  0.6119541E-006  0.1264170E+03  0.7561462E-02  0.1232871E+00
         -2   -1    0    0    0  501 -0.00000000000E+00  0.00000000000E+00  0.11712838443E+03  0.11712838443E+03  0.00000000000E+00 0.  1.
          2   -1    0    0  501    0  0.00000000000E+00 -0.00000000000E+00 -0.17923824135E+03  0.17923824135E+03  0.00000000000E+00 0. -1.
         23    2    1    2    0    0  0.61559719498E+02 -0.72575404708E+02 -0.18235010110E+02  0.15823051240E+03  0.12509033147E+03 0.  0.
         23    2    1    2    0    0 -0.61559719498E+02  0.72575404708E+02 -0.43874846815E+02  0.13813611338E+03  0.89998862234E+02 0.  0.
          5    1    3    3  502    0  0.10226333934E+02  0.28619167293E+02  0.22016408951E+02  0.37760154996E+02  0.41800000000E+01 0.  1.
         -5    1    3    3    0  502  0.51333385564E+02 -0.10119457200E+03 -0.40251419061E+02  0.12047035740E+03  0.41800000000E+01 0.  1.
        -11    1    4    4    0    0 -0.14278318800E+02  0.57102594898E+02 -0.61716449439E+02  0.85284798547E+02  0.00000000000E+00 0. -1.
         11    1    4    4    0    0 -0.47281400697E+02  0.15472809810E+02  0.17841602624E+02  0.52851314833E+02  0.00000000000E+00 0.  1.
</event>
<event>
 8    1  0.5951278E-006  0.4034189E+02  0.7561462E-02  0.1505711E+00
         -1   -1    0    0    0  501 -0.00000000000E+00  0.00000000000E+00  0.20481664783E+03  0.20481664783E+03  0.00000000000E+00 0.  1.
          1   -1    0    0  501    0  0.00000000000E+00 -0.00000000000E+00 -0.63030191182E+02  0.63030191182E+02  0.00000000000E+00 0. -1.
         23    2    1    2    0    0 -0.15322647724E+02  0.17252108526E+02  0.11165634859E+03  0.16925733035E+03  0.12509390439E+03 0.  0.
         23    2    1    2    0    0  0.15322647724E+02 -0.17252108526E+02  0.30130108067E+02  0.98589508669E+02  0.90992576761E+02 0.  0.
          5    1    3    3  502    0 -0.12949174075E+02 -0.12525549640E+02 -0.23993683899E+02  0.30294220077E+02  0.41800000000E+01 0.  1.
         -5    1    3    3    0  502 -0.23734736484E+01  0.29777658166E+02  0.13565003248E+03  0.13896311027E+03  0.41800000000E+01 0.  1.
        -11    1    4    4    0    0  0.15677933597E+02 -0.93556312961E+00  0.61367613636E+02  0.63345535625E+02  0.00000000000E+00 0.  1.
         11    1    4    4    0    0 -0.35528587286E+00 -0.16316545396E+02 -0.31237505570E+02  0.35243973044E+02  0.00000000000E+00 0. -1.
</event>
<event>
 8    1  0.6729477E-006  0.1666052E+03  0.7561462E-02  0.1181435E+00
         -1   -1    0    0    0  501 -0.00000000000E+00  0.00000000000E+00  0.10236936245E+03  0.10236936245E+03  0.00000000000E+00 0. -1.
          1   -1    0    0  501    0  0.00000000000E+00 -0.00000000000E+00 -0.37973148979E+03  0.37973148979E+03  0.00000000000E+00 0.  1.
         23    2    1    2    0    0 -0.13677845994E+03  0.58069261509E+02 -0.60014708277E+02  0.20329688023E+03  0.12508984797E+03 0.  0.
         23    2    1    2    0    0  0.13677845994E+03 -0.58069261509E+02 -0.21734741907E+03  0.27880397201E+03  0.91713510435E+02 0.  0.
          5    1    3    3  502    0 -0.92694216004E+02 -0.16545392737E+02  0.57456024700E+01  0.94426966748E+02  0.41800000000E+01 0. -1.
         -5    1    3    3    0  502 -0.44084243936E+02  0.74614654245E+02 -0.65760310747E+02  0.10886991348E+03  0.41800000000E+01 0. -1.
        -11    1    4    4    0    0  0.11743896730E+03 -0.35965024392E+02 -0.21709731012E+03  0.24943262834E+03  0.00000000000E+00 0.  1.
         11    1    4    4    0    0  0.19339492643E+02 -0.22104237116E+02 -0.25010894395E+00  0.29371343665E+02  0.00000000000E+00 0. -1.
</event>
<event>
 8    1  0.5951278E-006  0.1251592E+03  0.7561462E-02  0.1234821E+00
          1   -1    0    0  501    0  0.00000000000E+00  0.00000000000E+00  0.39312536231E+02  0.39312536231E+02  0.00000000000E+00 0. -1.
         -1   -1    0    0    0  501 -0.00000000000E+00 -0.00000000000E+00 -0.51485249770E+03  0.51485249770E+03  0.00000000000E+00 0.  1.
         23    2    1    2    0    0  0.32211386117E+02 -0.93192818277E+02 -0.29679281106E+03  0.33341571079E+03  0.11557503506E+03 0.  0.
         23    2    1    2    0    0 -0.32211386117E+02  0.93192818277E+02 -0.17874715041E+03  0.22074932315E+03  0.84007411073E+02 0.  0.
          5    1    3    3  502    0  0.27550468136E+02  0.21335644308E+02 -0.95399311637E+02  0.10165008152E+03  0.41800000000E+01 0.  1.
         -5    1    3    3    0  502  0.46609179810E+01 -0.11452846259E+03 -0.20139349942E+03  0.23176562926E+03  0.41800000000E+01 0.  1.
        -11    1    4    4    0    0 -0.26487676779E+02  0.46776809009E+02 -0.16262766726E+03  0.17128171251E+03  0.00000000000E+00 0.  1.
         11    1    4    4    0    0 -0.57237093376E+01  0.46416009268E+02 -0.16119483153E+02  0.49467610637E+02  0.00000000000E+00 0. -1.
</event>
<event>
 8    1  0.5951278E-006  0.1245010E+03  0.7561462E-02  0.1235851E+00
         -1   -1    0    0    0  501 -0.00000000000E+00  0.00000000000E+00  0.54112743121E+02  0.54112743121E+02  0.00000000000E+00 0.  1.
          1   -1    0    0  501    0  0.00000000000E+00 -0.00000000000E+00 -0.40180718022E+03  0.40180718022E+03  0.00000000000E+00 0. -1.
         23    2    1    2    0    0  0.12555850364E+02 -0.77411228180E+02 -0.98090628350E+02  0.17725534753E+03  0.12509012444E+03 0.  0.
         23    2    1    2    0    0 -0.12555850364E+02  0.77411228180E+02 -0.24960380875E+03  0.27866457581E+03  0.95925683948E+02 0.  0.
          5    1    3    3  502    0  0.57648368309E+02 -0.76128439038E+02 -0.40072117009E+02  0.10364420177E+03  0.41800000000E+01 0. -1.
         -5    1    3    3    0  502 -0.45092517944E+02 -0.12827891420E+01 -0.58018511340E+02  0.73611145764E+02  0.41800000000E+01 0. -1.
        -11    1    4    4    0    0 -0.37804571415E+02  0.14791356601E+02 -0.16757524762E+03  0.17242225339E+03  0.00000000000E+00 0. -1.
         11    1    4    4    0    0  0.25248721051E+02  0.62619871579E+02 -0.82028561133E+02  0.10624232242E+03  0.00000000000E+00 0.  1.
</event>
<event>
 7    1  0.5951278E-006  0.1375454E+03  0.7561462E-02  0.1216670E+00
         -1   -1    0    0    0  501 -0.00000000000E+00  0.00000000000E+00  0.18036448420E+03  0.18036448420E+03  0.00000000000E+00 0.  1.
          1   -1    0    0  501    0  0.00000000000E+00 -0.00000000000E+00 -0.49157942835E+03  0.49157942835E+03  0.00000000000E+00 0. -1.
         23    2    1    2    0    0  0.22661491183E+02  0.11335632936E+01 -0.64143270734E+02  0.11657860269E+03  0.94664583004E+02 0.  0.
          5    1    1    2  502    0 -0.31409715043E+02  0.97904728007E+02 -0.37752026536E+03  0.39129391654E+03  0.41800000000E+01 0. -1.
         -5    1    1    2    0  502  0.87482238603E+01 -0.99038291301E+02  0.13044859195E+03  0.16407139332E+03  0.41800000000E+01 0.  1.
        -11    1    3    3    0    0  0.34116480257E+02  0.27569355675E+02 -0.74088573874E+02  0.86099479535E+02  0.00000000000E+00 0.  1.
         11    1    3    3    0    0 -0.11454989075E+02 -0.26435792381E+02  0.99453031401E+01  0.30479123151E+02  0.00000000000E+00 0. -1.
</event>
<event>
 8    1  0.5951278E-006  0.1651924E+03  0.7561462E-02  0.1182956E+00
         -4   -1    0    0    0  501 -0.00000000000E+00  0.00000000000E+00  0.77206792385E+02  0.77206792385E+02  0.00000000000E+00 0.  1.
          4   -1    0    0  501    0  0.00000000000E+00 -0.00000000000E+00 -0.54209533636E+03  0.54209533636E+03  0.00000000000E+00 0. -1.
         23    2    1    2    0    0 -0.15017181895E+03  0.43595221721E+01 -0.10684174792E+03  0.22277969607E+03  0.12508018725E+03 0.  0.
         23    2    1    2    0    0  0.15017181895E+03 -0.43595221721E+01 -0.35804679605E+03  0.39652243268E+03  0.80386260090E+02 0.  0.
          5    1    3    3  502    0 -0.16201688810E+03 -0.48240125128E+01 -0.12054734629E+03  0.20204424818E+03  0.41800000000E+01 0.  1.
         -5    1    3    3    0  502  0.11845069149E+02  0.91835346849E+01  0.13705598368E+02  0.20735447887E+02  0.41800000000E+01 0.  1.
        -11    1    4    4    0    0  0.27475315774E+02  0.98014643145E+01 -0.16917194231E+02  0.33721701324E+02  0.00000000000E+00 0.  1.
         11    1    4    4    0    0  0.12269650317E+03 -0.14160986487E+02 -0.34112960182E+03  0.36280073135E+03  0.00000000000E+00 0. -1.
</event>
<event>
 8    1  0.5951278E-006  0.1234764E+03  0.7561462E-02  0.1237470E+00
         -1   -1    0    0    0  501 -0.00000000000E+00  0.00000000000E+00  0.16965491877E+03  0.16965491877E+03  0.00000000000E+00 0.  1.
          1   -1    0    0  501    0  0.00000000000E+00 -0.00000000000E+00 -0.12760009096E+03  0.12760009096E+03  0.00000000000E+00 0. -1.
         23    2    1    2    0    0  0.31119443579E+02  0.90742281764E+02 -0.28620604016E+01  0.15766529068E+03  0.12509025152E+03 0.  0.
         23    2    1    2    0    0 -0.31119443579E+02 -0.90742281764E+02  0.44916888209E+02  0.13958971906E+03  0.90913042802E+02 0.  0.
          5    1    3    3  502    0  0.68111576185E+02  0.78504146058E+02 -0.32004451283E+02  0.10882943104E+03  0.41800000000E+01 0.  1.
         -5    1    3    3    0  502 -0.36992132606E+02  0.12238135706E+02  0.29142390881E+02  0.48835859638E+02  0.41800000000E+01 0.  1.
        -11    1    4    4    0    0 -0.37445220632E+02 -0.49731599419E+02  0.67929472908E+02  0.92140055451E+02  0.00000000000E+00 0.  1.
         11    1    4    4    0    0  0.63257770532E+01 -0.41010682345E+02 -0.23012584699E+02  0.47449663605E+02  0.00000000000E+00 0. -1.
</event>
<event>
 8    1  0.5951278E-006  0.1670900E+03  0.7561462E-02  0.1180917E+00
         -2   -1    0    0    0  501 -0.00000000000E+00  0.00000000000E+00  0.28421201213E+03  0.28421201213E+03  0.00000000000E+00 0.  1.
          2   -1    0    0  501    0  0.00000000000E+00 -0.00000000000E+00 -0.10962211220E+03  0.10962211220E+03  0.00000000000E+00 0. -1.
         23    2    1    2    0    0 -0.11271384085E+03  0.70282408245E+02  0.47323395129E+02  0.18854179908E+03  0.12515781816E+03 0.  0.
         23    2    1    2    0    0  0.11271384085E+03 -0.70282408245E+02  0.12726650480E+03  0.20529232525E+03  0.91127102081E+02 0.  0.
          5    1    3    3  502    0  0.91492538387E+01 -0.23035943853E+02  0.21003138241E+02  0.32756186759E+02  0.41800000000E+01 0. -1.
         -5    1    3    3    0  502 -0.12186309469E+03  0.93318352098E+02  0.26320256888E+02  0.15578561232E+03  0.41800000000E+01 0. -1.
        -11    1    4    4    0    0  0.47772939096E+02 -0.76572186199E+02  0.99643478129E+02  0.13444097643E+03  0.00000000000E+00 0.  1.
         11    1    4    4    0    0  0.64940901752E+02  0.62897779541E+01  0.27623026673E+02  0.70851348820E+02  0.00000000000E+00 0. -1.
</event>
<event>
 8    1  0.5951278E-006  0.1574100E+03  0.7561462E-02  0.1191652E+00
         -2   -1    0    0    0  501 -0.00000000000E+00  0.00000000000E+00  0.33025776718E+03  0.33025776718E+03  0.00000000000E+00 0.  1.
          2   -1    0    0  501    0  0.00000000000E+00 -0.00000000000E+00 -0.10008419519E+03  0.10008419519E+03  0.00000000000E+00 0. -1.
         23    2    1    2    0    0  0.95905974816E+02  0.73362560889E+02  0.21876783137E+03  0.27944174797E+03  0.12509318574E+03 0.  0.
         23    2    1    2    0    0 -0.95905974816E+02 -0.73362560889E+02  0.11405740616E+02  0.15090021440E+03  0.89781748937E+02 0.  0.
          5    1    3    3  502    0  0.48690218791E+02  0.99048482808E+02  0.18609109212E+03  0.21639941386E+03  0.41800000000E+01 0.  1.
         -5    1    3    3    0  502  0.47215756025E+02 -0.25685921919E+02  0.32676739250E+02  0.63042334108E+02  0.41800000000E+01 0.  1.
        -11    1    4    4    0    0 -0.82501015488E+02 -0.70460637729E+01  0.71178399887E+01  0.83106727871E+02  0.00000000000E+00 0. -1.
         11    1    4    4    0    0 -0.13404959328E+02 -0.66316497117E+02  0.42879006278E+01  0.67793486532E+02  0.00000000000E+00 0.  1.
</event>
<event>
 8    1  0.5951278E-006  0.8513041E+02  0.7561462E-02  0.1315092E+00
         -2   -1    0    0    0  501 -0.00000000000E+00  0.00000000000E+00  0.38824470046E+03  0.38824470046E+03  0.00000000000E+00 0.  1.
          2   -1    0    0  501    0  0.00000000000E+00 -0.00000000000E+00 -0.45408539240E+02  0.45408539240E+02  0.00000000000E+00 0. -1.
         23    2    1    2    0    0 -0.38278695303E+02 -0.97852726080E+01  0.29604881404E+03  0.32381199733E+03  0.12509316226E+03 0.  0.
         23    2    1    2    0    0  0.38278695303E+02  0.97852726080E+01  0.46787347176E+02  0.10984124237E+03  0.91186800554E+02 0.  0.
          5    1    3    3  502    0 -0.80014383968E+01  0.55904489257E+02  0.15912132315E+03  0.16889761045E+03  0.41800000000E+01 0. -1.
         -5    1    3    3    0  502 -0.30277256907E+02 -0.65689761865E+02  0.13692749090E+03  0.15491438688E+03  0.41800000000E+01 0. -1.
        -11    1    4    4    0    0  0.27222499356E+02  0.13189498058E+01  0.74225812440E+02  0.79071330659E+02  0.00000000000E+00 0.  1.
         11    1    4    4    0    0  0.11056195948E+02  0.84663228022E+01 -0.27438465264E+02  0.30769911710E+02  0.00000000000E+00 0. -1.
</event>
<event>
 7    1  0.5951278E-006  0.3363775E+03  0.7561462E-02  0.1068349E+00
          1   -1    0    0  501    0  0.00000000000E+00  0.00000000000E+00  0.98643880195E+03  0.98643880195E+03  0.00000000000E+00 0. -1.
         -1   -1    0    0    0  501 -0.00000000000E+00 -0.00000000000E+00 -0.27936486909E+03  0.27936486909E+03  0.00000000000E+00 0.  1.
         23    2    1    2    0    0  0.49579657297E+02  0.30571893526E+03  0.79861679211E+03  0.86179331741E+03  0.94745614673E+02 0.  0.
          5    1    1    2  502    0  0.43271418993E+02 -0.24441702118E+03  0.16584620876E+02  0.24880638656E+03  0.41800000000E+01 0. -1.
         -5    1    1    2    0  502 -0.92851076290E+02 -0.61301914083E+02 -0.10812748013E+03  0.15520396708E+03  0.41800000000E+01 0.  1.
        -11    1    3    3    0    0 -0.90656093375E+01  0.34192125984E+02  0.18324147486E+03  0.18662455589E+03  0.00000000000E+00 0.  1.
         11    1    3    3    0    0  0.58645266635E+02  0.27152680927E+03  0.61537531725E+03  0.67516876152E+03  0.00000000000E+00 0. -1.
</event>
<event>
 8    1  0.5951278E-006  0.1006726E+03  0.7561462E-02  0.1278888E+00
          1   -1    0    0  501    0  0.00000000000E+00  0.00000000000E+00  0.13337621294E+03  0.13337621294E+03  0.00000000000E+00 0. -1.
         -1   -1    0    0    0  501 -0.00000000000E+00 -0.00000000000E+00 -0.14714894628E+03  0.14714894628E+03  0.00000000000E+00 0.  1.
         23    2    1    2    0    0 -0.12058866286E+02 -0.52985752426E+02 -0.76658843266E+02  0.15644901365E+03  0.12508720720E+03 0.  0.
         23    2    1    2    0    0  0.12058866286E+02  0.52985752426E+02  0.62886109927E+02  0.12407614556E+03  0.92126656618E+02 0.  0.
          5    1    3    3  502    0  0.39070776334E+02 -0.70217268584E+02 -0.58064478731E+02  0.99226742671E+02  0.41800000000E+01 0.  1.
         -5    1    3    3    0  502 -0.51129642620E+02  0.17231516159E+02 -0.18594364535E+02  0.57222270979E+02  0.41800000000E+01 0.  1.
        -11    1    4    4    0    0 -0.23737425099E+01  0.52259553383E+02 -0.69387469286E+01  0.52771600149E+02  0.00000000000E+00 0.  1.
         11    1    4    4    0    0  0.14432608795E+02  0.72619904226E+00  0.69824856856E+02  0.71304545414E+02  0.00000000000E+00 0. -1.
</event>
<event>
 8    1  0.5951278E-006  0.1350618E+03  0.7561462E-02  0.1220132E+00
          2   -1    0    0  501    0  0.00000000000E+00  0.00000000000E+00  0.27554088426E+03  0.27554088426E+03  0.00000000000E+00 0. -1.
         -2   -1    0    0    0  501 -0.00000000000E+00 -0.00000000000E+00 -0.82504590764E+02  0.82504590764E+02  0.00000000000E+00 0.  1.
         23    2    1    2    0    0 -0.37823245672E+02 -0.97543075946E+02  0.90073159929E+02  0.18629560624E+03  0.12509048400E+03 0.  0.
         23    2    1    2    0    0  0.37823245672E+02  0.97543075946E+02  0.10296313356E+03  0.17174986878E+03  0.89170404141E+02 0.  0.
          5    1    3    3  502    0  0.16240443831E+02  0.22955455412E+02  0.42778621632E+01  0.28748520896E+02  0.41800000000E+01 0.  1.
         -5    1    3    3    0  502 -0.54063689502E+02 -0.12049853136E+03  0.85795297766E+02  0.15754708535E+03  0.41800000000E+01 0.  1.
        -11    1    4    4    0    0  0.42725165292E+02  0.73461354925E+02  0.22919963690E+02  0.88018947689E+02  0.00000000000E+00 0.  1.
         11    1    4    4    0    0 -0.49019196207E+01  0.24081721021E+02  0.80043169874E+02  0.83730921092E+02  0.00000000000E+00 0. -1.
</event>
<event>
 8    1  0.7023242E-006  0.1961257E+03  0.7561462E-02  0.1153050E+00
         -2   -1    0    0    0  501 -0.00000000000E+00  0.00000000000E+00  0.10485972309E+03  0.10485972309E+03  0.00000000000E+00 0.  1.
          2   -1    0    0  501    0  0.00000000000E+00 -0.00000000000E+00 -0.44362924028E+03  0.44362924028E+03  0.00000000000E+00 0. -1.
         23    2    1    2    0    0  0.15815975631E+03 -0.95874576489E+02 -0.19814715081E+03  0.29852350917E+03  0.12509016438E+03 0.  0.
         23    2    1    2    0    0 -0.15815975631E+03  0.95874576489E+02 -0.14062236638E+03  0.24996545419E+03  0.92204313507E+02 0.  0.
          5    1    3    3  502    0  0.14609196554E+03 -0.10341499472E+03 -0.11216648739E+03  0.21127308589E+03  0.41800000000E+01 0. -1.
         -5    1    3    3    0  502  0.12067790771E+02  0.75404182317E+01 -0.85980663423E+02  0.87250423287E+02  0.41800000000E+01 0. -1.
        -11    1    4    4    0    0 -0.94206371667E+02  0.95895800691E+02 -0.60407783880E+02  0.14737688220E+03  0.00000000000E+00 0.  1.
         11    1    4    4    0    0 -0.63953384642E+02 -0.21224202047E-01 -0.80214582504E+02  0.10258857200E+03  0.00000000000E+00 0. -1.
</event>
<event>
 8    1  0.5951278E-006  0.7003148E+02  0.7561462E-02  0.1359986E+00
         -2   -1    0    0    0  501 -0.00000000000E+00  0.00000000000E+00  0.65573216215E+02  0.65573216215E+02  0.00000000000E+00 0.  1.
          2   -1    0    0  501    0  0.00000000000E+00 -0.00000000000E+00 -0.22222742990E+03  0.22222742990E+03  0.00000000000E+00 0. -1.
         23    2    1    2    0    0  0.35894511321E+01 -0.32841844244E+02 -0.38006706017E+02  0.13484528591E+03  0.12508905043E+03 0.  0.
         23    2    1    2    0    0 -0.35894511321E+01  0.32841844244E+02 -0.11864750767E+03  0.15295536020E+03  0.90700828253E+02 0.  0.
          5    1    3    3  502    0  0.89532643293E+01  0.61766227640E+01 -0.77819502184E+02  0.78687095073E+02  0.41800000000E+01 0. -1.
         -5    1    3    3    0  502 -0.53638131972E+01 -0.39018467008E+02  0.39812796167E+02  0.56158190839E+02  0.41800000000E+01 0. -1.
        -11    1    4    4    0    0  0.39142434775E+02  0.10226220981E+02 -0.84742771893E+02  0.93904436444E+02  0.00000000000E+00 0.  1.
         11    1    4    4    0    0 -0.42731885907E+02  0.22615623263E+02 -0.33904735777E+02  0.59050923760E+02  0.00000000000E+00 0. -1.
</event>
<event>
 8    1  0.5951278E-006  0.8590608E+02  0.7561462E-02  0.1313080E+00
          1   -1    0    0  501    0  0.00000000000E+00  0.00000000000E+00  0.42458433141E+02  0.42458433141E+02  0.00000000000E+00 0. -1.
         -1   -1    0    0    0  501 -0.00000000000E+00 -0.00000000000E+00 -0.36024584280E+03  0.36024584280E+03  0.00000000000E+00 0.  1.
         23    2    1    2    0    0  0.21780733184E+02  0.27433424065E+02 -0.23685500274E+03  0.27013471307E+03  0.12508188434E+03 0.  0.
         23    2    1    2    0    0 -0.21780733184E+02 -0.27433424065E+02 -0.80932406922E+02  0.13256956287E+03  0.98983035999E+02 0.  0.
          5    1    3    3  502    0  0.41979454850E+02  0.62816559077E+02 -0.89532699569E+02  0.11722530194E+03  0.41800000000E+01 0. -1.
         -5    1    3    3    0  502 -0.20198721666E+02 -0.35383135012E+02 -0.14732230317E+03  0.15290941113E+03  0.41800000000E+01 0. -1.
        -11    1    4    4    0    0 -0.29748619712E+02 -0.33772117141E+02 -0.10071898096E+03  0.11031704037E+03  0.00000000000E+00 0.  1.
         11    1    4    4    0    0  0.79678865275E+01  0.63386930764E+01  0.19786574035E+02  0.22252522501E+02  0.00000000000E+00 0. -1.
</event>
<event>
 8    1  0.5951278E-006  0.1310992E+03  0.7561462E-02  0.1225834E+00
          2   -1    0    0  501    0  0.00000000000E+00  0.00000000000E+00  0.20040233062E+03  0.20040233062E+03  0.00000000000E+00 0. -1.
         -2   -1    0    0    0  501 -0.00000000000E+00 -0.00000000000E+00 -0.98124227728E+02  0.98124227728E+02  0.00000000000E+00 0.  1.
         23    2    1    2    0    0 -0.11744300950E+02 -0.87815498853E+02  0.45046301637E+02  0.15976778217E+03  0.12508830675E+03 0.  0.
         23    2    1    2    0    0  0.11744300950E+02  0.87815498853E+02  0.57231801250E+02  0.13875877617E+03  0.90161124921E+02 0.  0.
          5    1    3    3  502    0 -0.45397187740E+02  0.11735426999E+02  0.54396596866E+01  0.47388682184E+02  0.41800000000E+01 0. -1.
         -5    1    3    3    0  502  0.33652886790E+02 -0.99550925853E+02  0.39606641950E+02  0.11237909999E+03  0.41800000000E+01 0. -1.
        -11    1    4    4    0    0  0.32694896338E+02  0.81900221308E+02  0.70815113733E+02  0.11309899571E+03  0.00000000000E+00 0. -1.
         11    1    4    4    0    0 -0.20950595388E+02  0.59152775454E+01 -0.13583312483E+02  0.25659780466E+02  0.00000000000E+00 0.  1.
</event>
<event>
 8    1  0.5951278E-006  0.8847814E+02  0.7561462E-02  0.1306580E+00
          2   -1    0    0  501    0  0.00000000000E+00  0.00000000000E+00  0.22237748046E+03  0.22237748046E+03  0.00000000000E+00 0.  1.
         -2   -1    0    0    0  501 -0.00000000000E+00 -0.00000000000E+00 -0.98266413427E+02  0.98266413427E+02  0.00000000000E+00 0. -1.
         23    2    1    2    0    0 -0.65988343039E+02  0.33752374330E+02 -0.55673431722E+01  0.14551017907E+03  0.12509409543E+03 0.  0.
         23    2    1    2    0    0  0.65988343039E+02 -0.33752374330E+02  0.12967841020E+03  0.17513371481E+03  0.91442024270E+02 0.  0.
          5    1    3    3  502    0 -0.32329453917E+01  0.21089159466E+02  0.53845483432E+02  0.58069037093E+02  0.41800000000E+01 0.  1.
         -5    1    3    3    0  502 -0.62755397648E+02  0.12663214865E+02 -0.59412826604E+02  0.87441141974E+02  0.41800000000E+01 0.  1.
        -11    1    4    4    0    0  0.30672107107E+02 -0.44586555793E+02  0.12705452865E+03  0.13809993614E+03  0.00000000000E+00 0.  1.
         11    1    4    4    0    0  0.35316235932E+02  0.10834181462E+02  0.26238815499E+01  0.37033778672E+02  0.00000000000E+00 0. -1.
</event>
<event>
 8    1  0.5951278E-006  0.1678045E+03  0.7561462E-02  0.1180157E+00
          2   -1    0    0  501    0  0.00000000000E+00  0.00000000000E+00  0.36708255898E+03  0.36708255898E+03  0.00000000000E+00 0. -1.
         -2   -1    0    0    0  501 -0.00000000000E+00 -0.00000000000E+00 -0.80786498094E+02  0.80786498094E+02  0.00000000000E+00 0.  1.
         23    2    1    2    0    0 -0.75612385342E+01 -0.12901513384E+03  0.10967898956E+03  0.21066326206E+03  0.12508977633E+03 0.  0.
         23    2    1    2    0    0  0.75612385342E+01  0.12901513384E+03  0.17661707132E+03  0.23720579501E+03  0.91492744078E+02 0.  0.
          5    1    3    3  502    0 -0.64360928466E+02 -0.46241534014E+02  0.50135989760E+02  0.93870647437E+02  0.41800000000E+01 0.  1.
         -5    1    3    3    0  502  0.56799689932E+02 -0.82773599824E+02  0.59542999800E+02  0.11679261462E+03  0.41800000000E+01 0.  1.
        -11    1    4    4    0    0  0.31213827367E+02  0.12837226174E+03  0.16331811967E+03  0.21006320196E+03  0.00000000000E+00 0. -1.
         11    1    4    4    0    0 -0.23652588833E+02  0.64287210174E+00  0.13298951649E+02  0.27142593060E+02  0.00000000000E+00 0.  1.
</event>
<event>
 8    1  0.5951278E-006  0.1077601E+03  0.7561462E-02  0.1264775E+00
         -2   -1    0    0    0  501 -0.00000000000E+00  0.00000000000E+00  0.25806900982E+03  0.25806900982E+03  0.00000000000E+00 0. -1.
          2   -1    0    0  501    0  0.00000000000E+00 -0.00000000000E+00 -0.48363439425E+02  0.48363439425E+02  0.00000000000E+00 0.  1.
         23    2    1    2    0    0 -0.29494868651E+02 -0.22213154706E+02  0.15149013407E+03  0.19990022421E+03  0.12508983731E+03 0.  0.
         23    2    1    2    0    0  0.29494868651E+02  0.22213154706E+02  0.58215436331E+02  0.10653222504E+03  0.81220110973E+02 0.  0.
          5    1    3    3  502    0 -0.66924330969E+02 -0.49777834058E+02  0.91257345948E+02  0.12370155386E+03  0.41800000000E+01 0.  1.
         -5    1    3    3    0  502  0.37429462319E+02  0.27564679352E+02  0.60232788119E+02  0.76198670342E+02  0.41800000000E+01 0.  1.
        -11    1    4    4    0    0  0.21272912717E+02 -0.27601789180E+02  0.39527998259E+02  0.52695903330E+02  0.00000000000E+00 0. -1.
         11    1    4    4    0    0  0.82219559331E+01  0.49814943886E+02  0.18687438072E+02  0.53836321711E+02  0.00000000000E+00 0.  1.
</event>
<event>
 8    1  0.5951278E-006  0.1384689E+03  0.7561462E-02  0.1215404E+00
         -2   -1    0    0    0  501 -0.00000000000E+00  0.00000000000E+00  0.48016174845E+02  0.48016174845E+02  0.00000000000E+00 0. -1.
          2   -1    0    0  501    0  0.00000000000E+00 -0.00000000000E+00 -0.44036910313E+03  0.44036910313E+03  0.00000000000E+00 0.  1.
         23    2    1    2    0    0  0.79589376785E+02 -0.47133476712E+02 -0.16485095851E+03  0.22667493542E+03  0.12509857834E+03 0.  0.
         23    2    1    2    0    0 -0.79589376785E+02  0.47133476712E+02 -0.22750196978E+03  0.26171034256E+03  0.90438507415E+02 0.  0.
          5    1    3    3  502    0 -0.18496872136E+02 -0.51304994265E+02 -0.79618492160E+02  0.96596653198E+02  0.41800000000E+01 0.  1.
         -5    1    3    3    0  502  0.98086248921E+02  0.41715175528E+01 -0.85232466346E+02  0.13007828222E+03  0.41800000000E+01 0.  1.
        -11    1    4    4    0    0 -0.52687730833E+02  0.70726876800E+02 -0.19208495040E+03  0.21136441577E+03  0.00000000000E+00 0.  1.
         11    1    4    4    0    0 -0.26901645953E+02 -0.23593400087E+02 -0.35417019380E+02  0.50345926790E+02  0.00000000000E+00 0. -1.
</event>
<event>
 8    1  0.5951278E-006  0.1063136E+03  0.7561462E-02  0.1267553E+00
         -1   -1    0    0    0  501 -0.00000000000E+00  0.00000000000E+00  0.41147184293E+02  0.41147184293E+02  0.00000000000E+00 0.  1.
          1   -1    0    0  501    0  0.00000000000E+00 -0.00000000000E+00 -0.33929793808E+03  0.33929793808E+03  0.00000000000E+00 0. -1.
         23    2    1    2    0    0  0.13933304917E+02  0.44103971535E+02 -0.13831415398E+03  0.19213630392E+03  0.12508499831E+03 0.  0.
         23    2    1    2    0    0 -0.13933304917E+02 -0.44103971535E+02 -0.15983659981E+03  0.18830881846E+03  0.88165612222E+02 0.  0.
          5    1    3    3  502    0 -0.47075253783E+02  0.37424980176E+02 -0.29447460086E+02  0.67091981379E+02  0.41800000000E+01 0.  1.
         -5    1    3    3    0  502  0.61008558699E+02  0.66789913598E+01 -0.10886669389E+03  0.12504432254E+03  0.41800000000E+01 0.  1.
        -11    1    4    4    0    0 -0.44421109084E+02 -0.10877630806E+02 -0.11894821681E+03  0.12743718479E+03  0.00000000000E+00 0. -1.
         11    1    4    4    0    0  0.30487804167E+02 -0.33226340729E+02 -0.40888383000E+02  0.60871633669E+02  0.00000000000E+00 0.  1.
</event>
<event>
 8    1  0.5951278E-006  0.3165263E+03  0.7561462E-02  0.1077259E+00
          1   -1    0    0  501    0  0.00000000000E+00  0.00000000000E+00  0.22470584010E+04  0.22470584010E+04  0.00000000000E+00 0. -1.
         -1   -1    0    0    0  501 -0.00000000000E+00 -0.00000000000E+00 -0.54833446358E+02  0.54833446358E+02  0.00000000000E+00 0.  1.
         23    2    1    2    0    0  0.13971183575E+03  0.28147249212E+03  0.74586970121E+03  0.81897161205E+03  0.12508688698E+03 0.  0.
         23    2    1    2    0    0 -0.13971183575E+03 -0.28147249212E+03  0.14463552534E+04  0.14829202353E+04  0.91448041419E+02 0.  0.
          5    1    3    3  502    0  0.79814405592E+02  0.14187156706E+03  0.23444481237E+03  0.28544653322E+03  0.41800000000E+01 0.  1.
         -5    1    3    3    0  502  0.59897430162E+02  0.13960092506E+03  0.51142488884E+03  0.53352507884E+03  0.41800000000E+01 0.  1.
        -11    1    4    4    0    0 -0.37149310385E+00 -0.35896142181E+02  0.79834360656E+02  0.87533971531E+02  0.00000000000E+00 0. -1.
         11    1    4    4    0    0 -0.13934034265E+03 -0.24557634994E+03  0.13665208927E+04  0.13953862637E+04  0.00000000000E+00 0.  1.
</event>
<event>
 8    1  0.5951278E-006  0.1342798E+03  0.7561462E-02  0.1221240E+00
         -1   -1    0    0    0  501 -0.00000000000E+00  0.00000000000E+00  0.58212747182E+02  0.58212747182E+02  0.00000000000E+00 0.  1.
          1   -1    0    0  501    0  0.00000000000E+00 -0.00000000000E+00 -0.37573781369E+03  0.37573781369E+03  0.00000000000E+00 0. -1.
         23    2    1    2    0    0 -0.48774812085E+02  0.94528182150E+02 -0.15341096337E+03  0.21821115665E+03  0.11298949373E+03 0.  0.
         23    2    1    2    0    0  0.48774812085E+02 -0.94528182150E+02 -0.16411410314E+03  0.21573940422E+03  0.91079592488E+02 0.  0.
          5    1    3    3  502    0 -0.32141644819E+02 -0.37941811703E+00 -0.10580106695E+03  0.11065517365E+03  0.41800000000E+01 0. -1.
         -5    1    3    3    0  502 -0.16633167266E+02  0.94907600267E+02 -0.47609896422E+02  0.10755598300E+03  0.41800000000E+01 0.  1.
        -11    1    4    4    0    0  0.23683482557E+02 -0.10844980680E+03 -0.13621039924E+03  0.17571437278E+03  0.00000000000E+00 0. -1.
         11    1    4    4    0    0  0.25091329528E+02  0.13921624645E+02 -0.27903703900E+02  0.40025031438E+02  0.00000000000E+00 0.  1.
</event>
<event>
 8    1  0.5951278E-006  0.1023720E+03  0.7561462E-02  0.1275386E+00
          2   -1    0    0  501    0  0.00000000000E+00  0.00000000000E+00  0.34912531494E+03  0.34912531494E+03  0.00000000000E+00 0. -1.
         -2   -1    0    0    0  501 -0.00000000000E+00 -0.00000000000E+00 -0.47240181879E+02  0.47240181879E+02  0.00000000000E+00 0.  1.
         23    2    1    2    0    0  0.64242766019E+02 -0.11631782789E+02  0.13368615474E+03  0.19437013150E+03  0.12508128834E+03 0.  0.
         23    2    1    2    0    0 -0.64242766019E+02  0.11631782789E+02  0.16819897832E+03  0.20199536532E+03  0.90822904310E+02 0.  0.
          5    1    3    3  502    0  0.75359034372E+02 -0.22831653104E+02  0.22511096029E+02  0.82002989515E+02  0.41800000000E+01 0. -1.
         -5    1    3    3    0  502 -0.11116268353E+02  0.11199870315E+02  0.11117505872E+03  0.11236714198E+03  0.41800000000E+01 0. -1.
        -11    1    4    4    0    0 -0.17177807851E+02  0.47423557918E+02  0.57444245467E+02  0.76445485579E+02  0.00000000000E+00 0.  1.
         11    1    4    4    0    0 -0.47064958168E+02 -0.35791775129E+02  0.11075473285E+03  0.12554987974E+03  0.00000000000E+00 0. -1.
</event>
<event>
 8    1  0.5951278E-006  0.1196149E+03  0.7561462E-02  0.1243734E+00
          1   -1    0    0  501    0  0.00000000000E+00  0.00000000000E+00  0.16623912648E+03  0.16623912648E+03  0.00000000000E+00 0. -1.
         -1   -1    0    0    0  501 -0.00000000000E+00 -0.00000000000E+00 -0.11126440838E+03  0.11126440838E+03  0.00000000000E+00 0.  1.
         23    2    1    2    0    0 -0.62556494714E+02  0.27084919386E+02 -0.14447304305E+02  0.14318805437E+03  0.12508871421E+03 0.  0.
         23    2    1    2    0    0  0.62556494714E+02 -0.27084919386E+02  0.69422022397E+02  0.13431548049E+03  0.92597641530E+02 0.  0.
          5    1    3    3  502    0 -0.95106570089E+02  0.31381820432E+02  0.11822594539E+02  0.10093227665E+03  0.41800000000E+01 0.  1.
         -5    1    3    3    0  502  0.32550075375E+02 -0.42969010458E+01 -0.26269898845E+02  0.42255777721E+02  0.41800000000E+01 0.  1.
        -11    1    4    4    0    0  0.79277488150E+02 -0.67446783758E+01  0.26314814883E+02  0.83802627024E+02  0.00000000000E+00 0.  1.
         11    1    4    4    0    0 -0.16720993436E+02 -0.20340241010E+02  0.43107207514E+02  0.50512853468E+02  0.00000000000E+00 0. -1.
</event>
<event>
 8    1  0.5951278E-006  0.9508907E+02  0.7561462E-02  0.1290976E+00
         -2   -1    0    0    0  501 -0.00000000000E+00  0.00000000000E+00  0.20106970748E+02  0.20106970748E+02  0.00000000000E+00 0.  1.
          2   -1    0    0  501    0  0.00000000000E+00 -0.00000000000E+00 -0.58453433473E+03  0.58453433473E+03  0.00000000000E+00 0. -1.
         23    2    1    2    0    0  0.11738815336E+02 -0.59891837812E+01 -0.30620294980E+03  0.33102779903E+03  0.12508192180E+03 0.  0.
         23    2    1    2    0    0 -0.11738815336E+02  0.59891837812E+01 -0.25822441418E+03  0.27361350644E+03  0.89503255354E+02 0.  0.
          5    1    3    3  502    0 -0.10263564020E+02  0.47999659164E+02 -0.58293243088E+02  0.76320918601E+02  0.41800000000E+01 0.  1.
         -5    1    3    3    0  502  0.22002379356E+02 -0.53988842946E+02 -0.24790970671E+03  0.25470688043E+03  0.41800000000E+01 0.  1.
        -11    1    4    4    0    0  0.76363390951E+00 -0.37350878828E+02 -0.62984085116E+02  0.73230227801E+02  0.00000000000E+00 0.  1.
         11    1    4    4    0    0 -0.12502449246E+02  0.43340062609E+02 -0.19524032907E+03  0.20038327864E+03  0.00000000000E+00 0. -1.
</event>
<event>
 8    1  0.5951278E-006  0.8151018E+02  0.7561462E-02  0.1324820E+00
         -3   -1    0    0    0  501 -0.00000000000E+00  0.00000000000E+00  0.71484845863E+02  0.71484845863E+02  0.00000000000E+00 0.  1.
          3   -1    0    0  501    0  0.00000000000E+00 -0.00000000000E+00 -0.17023506235E+03  0.17023506235E+03  0.00000000000E+00 0. -1.
         23    2    1    2    0    0 -0.44542764427E+01 -0.15840228725E+02 -0.59772136324E+02  0.13961206389E+03  0.12509223269E+03 0.  0.
         23    2    1    2    0    0  0.44542764427E+01  0.15840228725E+02 -0.38978080167E+02  0.10210784433E+03  0.92929907536E+02 0.  0.
          5    1    3    3  502    0  0.93834881237E+01  0.53936585952E+02 -0.25376945110E+02  0.60486915087E+02  0.41800000000E+01 0. -1.
         -5    1    3    3    0  502 -0.13837764566E+02 -0.69776814677E+02 -0.34395191214E+02  0.79125148805E+02  0.41800000000E+01 0. -1.
        -11    1    4    4    0    0 -0.55996323480E+00  0.25746653051E+02  0.25759711984E+02  0.36424805609E+02  0.00000000000E+00 0.  1.
         11    1    4    4    0    0  0.50142396775E+01 -0.99064243257E+01 -0.64737792151E+02  0.65683038717E+02  0.00000000000E+00 0. -1.
</event>
<event>
 7    1  0.5951278E-006  0.3233155E+03  0.7561462E-02  0.1074133E+00
          2   -1    0    0  501    0  0.00000000000E+00  0.00000000000E+00  0.76398918783E+03  0.76398918783E+03  0.00000000000E+00 0. -1.
         -2   -1    0    0    0  501 -0.00000000000E+00 -0.00000000000E+00 -0.19872279913E+03  0.19872279913E+03  0.00000000000E+00 0.  1.
         23    2    1    2    0    0  0.10266891414E+03 -0.16660214527E+03  0.20178623597E+03  0.29618465665E+03  0.93329979483E+02 0.  0.
          5    1    1    2  502    0 -0.21612042853E+03 -0.14140285670E+02  0.39526622772E+03  0.45073368021E+03  0.41800000000E+01 0. -1.
         -5    1    1    2    0  502  0.11345151439E+03  0.18074243094E+03 -0.31786074985E+02  0.21579365010E+03  0.41800000000E+01 0.  1.
        -11    1    3    3    0    0  0.54186048396E+02 -0.13316999954E+02  0.45951141595E+02  0.72284007515E+02  0.00000000000E+00 0. -1.
         11    1    3    3    0    0  0.48482865744E+02 -0.15328514532E+03  0.15583509437E+03  0.22390064914E+03  0.00000000000E+00 0.  1.
</event>
<event>
 8    1  0.5951278E-006  0.1318253E+03  0.7561462E-02  0.1224772E+00
         -1   -1    0    0    0  501 -0.00000000000E+00  0.00000000000E+00  0.18372680014E+02  0.18372680014E+02  0.00000000000E+00 0.  1.
          1   -1    0    0  501    0  0.00000000000E+00 -0.00000000000E+00 -0.11372737999E+04  0.11372737999E+04  0.00000000000E+00 0. -1.
         23    2    1    2    0    0 -0.85394481894E+02  0.34382459882E+02 -0.50418987969E+03  0.52756090728E+03  0.12505480808E+03 0.  0.
         23    2    1    2    0    0  0.85394481894E+02 -0.34382459882E+02 -0.61471124018E+03  0.62808557262E+03  0.90261878109E+02 0.  0.
          5    1    3    3  502    0  0.17676564360E+02 -0.13322129521E+02 -0.19718289585E+02  0.29936990609E+02  0.41800000000E+01 0.  1.
         -5    1    3    3    0  502 -0.10307104625E+03  0.47704589403E+02 -0.48447159010E+03  0.49762391667E+03  0.41800000000E+01 0.  1.
        -11    1    4    4    0    0  0.95234198869E+02 -0.37603818332E+01 -0.49717407966E+03  0.50622698328E+03  0.00000000000E+00 0.  1.
         11    1    4    4    0    0 -0.98397169748E+01 -0.30622078048E+02 -0.11753716052E+03  0.12185858934E+03  0.00000000000E+00 0. -1.
</event>
<event>
 8    1  0.5951278E-006  0.1802949E+03  0.7561462E-02  0.1167518E+00
         -2   -1    0    0    0  501 -0.00000000000E+00  0.00000000000E+00  0.51627151448E+02  0.51627151448E+02  0.00000000000E+00 0.  1.
          2   -1    0    0  501    0  0.00000000000E+00 -0.00000000000E+00 -0.68359131982E+03  0.68359131982E+03  0.00000000000E+00 0. -1.
         23    2    1    2    0    0 -0.12064575070E+03 -0.91935664111E+02 -0.31744524241E+03  0.37339853640E+03  0.12508965409E+03 0.  0.
         23    2    1    2    0    0  0.12064575070E+03  0.91935664111E+02 -0.31451892596E+03  0.36181993487E+03  0.94783685222E+02 0.  0.
          5    1    3    3  502    0  0.94290285903E+01  0.21523096114E+02 -0.35033187255E+02  0.42390409950E+02  0.41800000000E+01 0. -1.
         -5    1    3    3    0  502 -0.13007477929E+03 -0.11345876022E+03 -0.28241205515E+03  0.33100812645E+03  0.41800000000E+01 0. -1.
        -11    1    4    4    0    0  0.10164657349E+03  0.40822216707E+02 -0.13307211134E+03  0.17235621861E+03  0.00000000000E+00 0.  1.
         11    1    4    4    0    0  0.18999177205E+02  0.51113447404E+02 -0.18144681462E+03  0.18946371625E+03  0.00000000000E+00 0. -1.
</event>
<event>
 8    1  0.5951278E-006  0.1004593E+03  0.7561462E-02  0.1279333E+00
         -1   -1    0    0    0  501 -0.00000000000E+00  0.00000000000E+00  0.17135493195E+03  0.17135493195E+03  0.00000000000E+00 0.  1.
          1   -1    0    0  501    0  0.00000000000E+00 -0.00000000000E+00 -0.76780808770E+02  0.76780808770E+02  0.00000000000E+00 0. -1.
         23    2    1    2    0    0  0.38360145679E+00 -0.37421342780E+02  0.44655249288E+02  0.13799032137E+03  0.12508690362E+03 0.  0.
         23    2    1    2    0    0 -0.38360145679E+00  0.37421342780E+02  0.49918873890E+02  0.11014541935E+03  0.90772327216E+02 0.  0.
          5    1    3    3  502    0  0.42974314947E+02 -0.44040278935E+02 -0.15761387838E+02  0.63657141472E+02  0.41800000000E+01 0.  1.
         -5    1    3    3    0  502 -0.42590713490E+02  0.66189361554E+01  0.60416637127E+02  0.74333179894E+02  0.41800000000E+01 0.  1.
        -11    1    4    4    0    0  0.34846096113E+02 -0.10562128585E+02  0.30597309563E+02  0.47560533292E+02  0.00000000000E+00 0. -1.
         11    1    4    4    0    0 -0.35229697570E+02  0.47983471364E+02  0.19321564326E+02  0.62584886059E+02  0.00000000000E+00 0.  1.
</event>
<event>
 8    1  0.5951278E-006  0.1557516E+03  0.7561462E-02  0.1193578E+00
         -2   -1    0    0    0  501 -0.00000000000E+00  0.00000000000E+00  0.12271810949E+03  0.12271810949E+03  0.00000000000E+00 0.  1.
          2   -1    0    0  501    0  0.00000000000E+00 -0.00000000000E+00 -0.41294988052E+03  0.41294988052E+03  0.00000000000E+00 0. -1.
         23    2    1    2    0    0  0.30162004379E+02 -0.10671455284E+03  0.42776011003E+02  0.17255417756E+03  0.12508962700E+03 0.  0.
         23    2    1    2    0    0 -0.30162004379E+02  0.10671455284E+03 -0.33300778203E+03  0.36311381245E+03  0.93057592928E+02 0.  0.
          5    1    3    3  502    0  0.77061201388E+02 -0.44306440772E+02  0.22390905578E+02  0.91762271690E+02  0.41800000000E+01 0.  1.
         -5    1    3    3    0  502 -0.46899197009E+02 -0.62408112065E+02  0.20385105424E+02  0.80791905874E+02  0.41800000000E+01 0.  1.
        -11    1    4    4    0    0 -0.53598834753E+02  0.24657765186E+02 -0.12254810078E+03  0.13601057855E+03  0.00000000000E+00 0.  1.
         11    1    4    4    0    0  0.23436830374E+02  0.82056787651E+02 -0.21045968125E+03  0.22710323390E+03  0.00000000000E+00 0. -1.
</event>
<event>
 8    1  0.5951278E-006  0.1015591E+03  0.7561462E-02  0.1277051E+00
         -3   -1    0    0    0  501 -0.00000000000E+00  0.00000000000E+00  0.80247225236E+02  0.80247225236E+02  0.00000000000E+00 0.  1.
          3   -1    0    0  501    0  0.00000000000E+00 -0.00000000000E+00 -0.18471599672E+03  0.18471599672E+03  0.00000000000E+00 0. -1.
         23    2    1    2    0    0  0.38528991286E+02  0.35049921228E+02 -0.37075463199E+02  0.14048211042E+03  0.12509058009E+03 0.  0.
         23    2    1    2    0    0 -0.38528991286E+02 -0.35049921228E+02 -0.67393308282E+02  0.12448111154E+03  0.90778350836E+02 0.  0.
          5    1    3    3  502    0 -0.12135021408E+02  0.58577232105E+02  0.17302188649E+02  0.62413051502E+02  0.41800000000E+01 0.  1.
         -5    1    3    3    0  502  0.50664012694E+02 -0.23527310878E+02 -0.54377651848E+02  0.78069058915E+02  0.41800000000E+01 0.  1.
        -11    1    4    4    0    0 -0.52148305938E+02 -0.46094672880E+02 -0.17743926209E+02  0.71826259804E+02  0.00000000000E+00 0.  1.
         11    1    4    4    0    0  0.13619314652E+02  0.11044751653E+02 -0.49649382073E+02  0.52654851732E+02  0.00000000000E+00 0. -1.
</event>
<event>
 8    1  0.5951278E-006  0.8780768E+02  0.7561462E-02  0.1308249E+00
         -1   -1    0    0    0  501 -0.00000000000E+00  0.00000000000E+00  0.37933461962E+03  0.37933461962E+03  0.00000000000E+00 0.  1.
          1   -1    0    0  501    0  0.00000000000E+00 -0.00000000000E+00 -0.44972207077E+02  0.44972207077E+02  0.00000000000E+00 0. -1.
         23    2    1    2    0    0 -0.50136730591E+02 -0.23860828889E+02  0.25906742426E+03  0.29299555726E+03  0.12508970921E+03 0.  0.
         23    2    1    2    0    0  0.50136730591E+02  0.23860828889E+02  0.75294988282E+02  0.13131126944E+03  0.92142733361E+02 0.  0.
          5    1    3    3  502    0 -0.50358519163E+02 -0.31493090378E+02  0.27142544941E+03  0.27787954617E+03  0.41800000000E+01 0.  1.
         -5    1    3    3    0  502  0.22178857164E+00  0.76322614887E+01 -0.12358025149E+02  0.15116011087E+02  0.41800000000E+01 0.  1.
        -11    1    4    4    0    0  0.53212322577E+00  0.50879867405E+02  0.31587073103E+02  0.59889792532E+02  0.00000000000E+00 0.  1.
         11    1    4    4    0    0  0.49604607365E+02 -0.27019038516E+02  0.43707915179E+02  0.71421476906E+02  0.00000000000E+00 0. -1.
</event>
<event>
 8    1  0.5951278E-006  0.1016998E+03  0.7561462E-02  0.1276762E+00
          2   -1    0    0  501    0  0.00000000000E+00  0.00000000000E+00  0.10848428468E+04  0.10848428468E+04  0.00000000000E+00 0. -1.
         -2   -1    0    0    0  501 -0.00000000000E+00 -0.00000000000E+00 -0.15645436378E+02  0.15645436378E+02  0.00000000000E+00 0.  1.
         23    2    1    2    0    0  0.59283299418E+02  0.37688693764E+02  0.65385281628E+03  0.66940699687E+03  0.12508906776E+03 0.  0.
         23    2    1    2    0    0 -0.59283299418E+02 -0.37688693764E+02  0.41534459415E+03  0.43108128632E+03  0.91569625394E+02 0.  0.
          5    1    3    3  502    0 -0.73173629943E+01  0.15790118923E+02  0.49956938328E+03  0.49988990065E+03  0.41800000000E+01 0. -1.
         -5    1    3    3    0  502  0.66600662413E+02  0.21898574841E+02  0.15428343300E+03  0.16951709622E+03  0.41800000000E+01 0. -1.
        -11    1    4    4    0    0  0.23793841817E+02  0.57996154333E+00  0.77355293840E+02  0.80934076561E+02  0.00000000000E+00 0. -1.
         11    1    4    4    0    0 -0.83077141235E+02 -0.38268655307E+02  0.33798930031E+03  0.35014720975E+03  0.00000000000E+00 0.  1.
</event>
<event>
 8    1  0.5951278E-006  0.1071359E+03  0.7561462E-02  0.1265967E+00
          1   -1    0    0  501    0  0.00000000000E+00  0.00000000000E+00  0.11168258852E+03  0.11168258852E+03  0.00000000000E+00 0. -1.
         -1   -1    0    0    0  501 -0.00000000000E+00 -0.00000000000E+00 -0.17240008568E+03  0.17240008568E+03  0.00000000000E+00 0.  1.
         23    2    1    2    0    0  0.52861923680E+02  0.57828723800E+02 -0.71296273428E+02  0.16391459425E+03  0.12508513633E+03 0.  0.
         23    2    1    2    0    0 -0.52861923680E+02 -0.57828723800E+02  0.10578776272E+02  0.12016807996E+03  0.90498136236E+02 0.  0.
          5    1    3    3  502    0 -0.16405270122E+02 -0.17592962639E+02  0.16080427881E+02  0.29235214776E+02  0.41800000000E+01 0. -1.
         -5    1    3    3    0  502  0.69267193801E+02  0.75421686439E+02 -0.87376701309E+02  0.13467937947E+03  0.41800000000E+01 0. -1.
        -11    1    4    4    0    0 -0.41199596943E+02 -0.16424572454E+02 -0.35736688904E+02  0.56958619211E+02  0.00000000000E+00 0.  1.
         11    1    4    4    0    0 -0.11662326737E+02 -0.41404151346E+02  0.46315465176E+02  0.63209460749E+02  0.00000000000E+00 0. -1.
</event>
<event>
 8    1  0.5951278E-006  0.1996454E+03  0.7561462E-02  0.1150039E+00
         -2   -1    0    0    0  501 -0.00000000000E+00  0.00000000000E+00  0.69412053561E+02  0.69412053561E+02  0.00000000000E+00 0.  1.
          2   -1    0    0  501    0  0.00000000000E+00 -0.00000000000E+00 -0.81646327474E+03  0.81646327474E+03  0.00000000000E+00 0. -1.
         23    2    1    2    0    0  0.72381393170E+02  0.17322389810E+03 -0.20651441858E+03  0.30584623301E+03  0.12509247864E+03 0.  0.
         23    2    1    2    0    0 -0.72381393170E+02 -0.17322389810E+03 -0.54053680259E+03  0.58002909529E+03  0.94911176742E+02 0.  0.
          5    1    3    3  502    0 -0.52221975860E+01  0.33731980178E+01 -0.79763274078E+02  0.80114306488E+02  0.41800000000E+01 0.  1.
         -5    1    3    3    0  502  0.77603590756E+02  0.16985070009E+03 -0.12675114450E+03  0.22573192652E+03  0.41800000000E+01 0.  1.
        -11    1    4    4    0    0 -0.49183404427E+02 -0.25352260446E+02 -0.94039389391E+02  0.10911072879E+03  0.00000000000E+00 0.  1.
         11    1    4    4    0    0 -0.23197988743E+02 -0.14787163766E+03 -0.44649741320E+03  0.47091836649E+03  0.00000000000E+00 0. -1.
</event>
<event>
 8    1  0.5951278E-006  0.1053825E+03  0.7561462E-02  0.1269368E+00
          2   -1    0    0  501    0  0.00000000000E+00  0.00000000000E+00  0.26546251123E+03  0.26546251123E+03  0.00000000000E+00 0.  1.
         -2   -1    0    0    0  501 -0.00000000000E+00 -0.00000000000E+00 -0.58412107845E+02  0.58412107845E+02  0.00000000000E+00 0. -1.
         23    2    1    2    0    0 -0.25867726820E+02  0.40669156933E+02  0.71061058915E+02  0.15172267442E+03  0.12508787400E+03 0.  0.
         23    2    1    2    0    0  0.25867726820E+02 -0.40669156933E+02  0.13598934447E+03  0.17215194466E+03  0.93915231052E+02 0.  0.
          5    1    3    3  502    0 -0.49558982265E+02  0.62399524296E+02  0.84865164517E+02  0.11648760408E+03  0.41800000000E+01 0.  1.
         -5    1    3    3    0  502  0.23691255445E+02 -0.21730367363E+02 -0.13804105602E+02  0.35235070339E+02  0.41800000000E+01 0.  1.
        -11    1    4    4    0    0 -0.30839529094E+02 -0.25052738973E+02  0.86853537857E+02  0.95510488026E+02  0.00000000000E+00 0.  1.
         11    1    4    4    0    0  0.56707255914E+02 -0.15616417960E+02  0.49135806617E+02  0.76641456635E+02  0.00000000000E+00 0. -1.
</event>
<event>
 7    1  0.5951278E-006  0.2542046E+03  0.7561462E-02  0.1110676E+00
          1   -1    0    0  501    0  0.00000000000E+00  0.00000000000E+00  0.78656328796E+03  0.78656328796E+03  0.00000000000E+00 0. -1.
         -1   -1    0    0    0  501 -0.00000000000E+00 -0.00000000000E+00 -0.83510662568E+02  0.83510662568E+02  0.00000000000E+00 0.  1.
         23    2    1    2    0    0  0.15275470318E+03 -0.15268502978E+03  0.35764015735E+03  0.43611946482E+03  0.12508792021E+03 0.  0.
          5    1    3    3  502    0  0.55081592789E+02 -0.13594779931E+03  0.17586825647E+03  0.22904781604E+03  0.41800000000E+01 0. -1.
         -5    1    3    3    0  502  0.97673110388E+02 -0.16737230478E+02  0.18177190089E+03  0.20707164878E+03  0.41800000000E+01 0. -1.
        -11    1    1    2    0    0 -0.63087111916E+02  0.16052066199E+03  0.21865847208E+03  0.27849307717E+03  0.00000000000E+00 0. -1.
         11    1    1    2    0    0 -0.89667591261E+02 -0.78356322072E+01  0.12675399595E+03  0.15546140854E+03  0.00000000000E+00 0.  1.
</event>
<event>
 8    1  0.5951278E-006  0.1086629E+03  0.7561462E-02  0.1263066E+00
          2   -1    0    0  501    0  0.00000000000E+00  0.00000000000E+00  0.17021828684E+03  0.17021828684E+03  0.00000000000E+00 0. -1.
         -2   -1    0    0    0  501 -0.00000000000E+00 -0.00000000000E+00 -0.11067935771E+03  0.11067935771E+03  0.00000000000E+00 0.  1.
         23    2    1    2    0    0  0.65773119561E+02  0.40557888380E+02 -0.53757850928E+00  0.14703543385E+03  0.12509230292E+03 0.  0.
         23    2    1    2    0    0 -0.65773119561E+02 -0.40557888380E+02  0.60076507635E+02  0.13386221071E+03  0.91317353876E+02 0.  0.
          5    1    3    3  502    0 -0.21304479877E+02  0.46551647331E+02 -0.23795610896E+02  0.56609541864E+02  0.41800000000E+01 0. -1.
         -5    1    3    3    0  502  0.87077599438E+02 -0.59937589515E+01  0.23258032387E+02  0.90425891982E+02  0.41800000000E+01 0. -1.
        -11    1    4    4    0    0 -0.37342077378E+02 -0.31152483810E+02  0.82967320562E+02  0.96169040089E+02  0.00000000000E+00 0. -1.
         11    1    4    4    0    0 -0.28431042183E+02 -0.94054045701E+01 -0.22890812927E+02  0.37693170617E+02  0.00000000000E+00 0.  1.
</event>
<event>
 8    1  0.5951278E-006  0.1300978E+03  0.7561462E-02  0.1227311E+00
         -2   -1    0    0    0  501 -0.00000000000E+00  0.00000000000E+00  0.33153688981E+02  0.33153688981E+02  0.00000000000E+00 0.  1.
          2   -1    0    0  501    0  0.00000000000E+00 -0.00000000000E+00 -0.68215273420E+03  0.68215273420E+03  0.00000000000E+00 0. -1.
         23    2    1    2    0    0  0.43591926408E+02 -0.69481489747E+02 -0.19705577004E+03  0.24739911104E+03  0.12508960857E+03 0.  0.
         23    2    1    2    0    0 -0.43591926408E+02  0.69481489747E+02 -0.45194327518E+03  0.46790731214E+03  0.89199749497E+02 0.  0.
          5    1    3    3  502    0  0.41323013300E+02  0.28506156784E+02 -0.81550567340E+02  0.95854889475E+02  0.41800000000E+01 0.  1.
         -5    1    3    3    0  502  0.22689131083E+01 -0.97987646530E+02 -0.11550520270E+03  0.15154422157E+03  0.41800000000E+01 0.  1.
        -11    1    4    4    0    0  0.14458863239E+02  0.47487199370E+02 -0.29474213015E+03  0.29889298439E+03  0.00000000000E+00 0. -1.
         11    1    4    4    0    0 -0.58050789648E+02  0.21994290377E+02 -0.15720114502E+03  0.16901432775E+03  0.00000000000E+00 0.  1.
</event>
<event>
 8    1  0.5951278E-006  0.1043294E+03  0.7561462E-02  0.1271446E+00
         -2   -1    0    0    0  501 -0.00000000000E+00  0.00000000000E+00  0.79857920132E+02  0.79857920132E+02  0.00000000000E+00 0.  1.
          2   -1    0    0  501    0  0.00000000000E+00 -0.00000000000E+00 -0.15272077409E+03  0.15272077409E+03  0.00000000000E+00 0. -1.
         23    2    1    2    0    0  0.30268519763E+01  0.23679847167E+02 -0.27988843186E+02  0.13038600198E+03  0.12508891707E+03 0.  0.
         23    2    1    2    0    0 -0.30268519763E+01 -0.23679847167E+02 -0.44874010767E+02  0.10219269224E+03  0.88655358042E+02 0.  0.
          5    1    3    3  502    0 -0.17555153060E+02  0.69611139870E+02  0.14508841449E+01  0.71926849353E+02  0.41800000000E+01 0. -1.
         -5    1    3    3    0  502  0.20582005037E+02 -0.45931292703E+02 -0.29439727331E+02  0.58459152628E+02  0.41800000000E+01 0. -1.
        -11    1    4    4    0    0  0.12203996796E+02  0.28968515136E+02 -0.12029567568E+00  0.31434485490E+02  0.00000000000E+00 0.  1.
         11    1    4    4    0    0 -0.15230848772E+02 -0.52648362303E+02 -0.44753715091E+02  0.70758206747E+02  0.00000000000E+00 0. -1.
</event>
<event>
 8    1  0.5951278E-006  0.8987907E+02  0.7561462E-02  0.1303145E+00
          3   -1    0    0  501    0  0.00000000000E+00  0.00000000000E+00  0.75612882698E+02  0.75612882698E+02  0.00000000000E+00 0. -1.
         -3   -1    0    0    0  501 -0.00000000000E+00 -0.00000000000E+00 -0.17146352054E+03  0.17146352054E+03  0.00000000000E+00 0.  1.
         23    2    1    2    0    0 -0.59268484996E+01  0.40818557428E+02 -0.50378356336E+02  0.14102107753E+03  0.12509070052E+03 0.  0.
         23    2    1    2    0    0  0.59268484996E+01 -0.40818557428E+02 -0.45472281505E+02  0.10605532571E+03  0.86479602000E+02 0.  0.
          5    1    3    3  502    0 -0.32863959537E+02  0.78265202886E+02 -0.37874149533E+02  0.93045179467E+02  0.41800000000E+01 0.  1.
         -5    1    3    3    0  502  0.26937111037E+02 -0.37446645458E+02 -0.12504206803E+02  0.47975898062E+02  0.41800000000E+01 0.  1.
        -11    1    4    4    0    0 -0.86823702588E+01 -0.26930051211E+02 -0.69294793184E+02  0.74849045244E+02  0.00000000000E+00 0.  1.
         11    1    4    4    0    0  0.14609218758E+02 -0.13888506217E+02  0.23822511679E+02  0.31206280464E+02  0.00000000000E+00 0. -1.
</event>
<event>
 8    1  0.5951278E-006  0.1079579E+03  0.7561462E-02  0.1264399E+00
         -3   -1    0    0    0  501 -0.00000000000E+00  0.00000000000E+00  0.89990978183E+02  0.89990978183E+02  0.00000000000E+00 0.  1.
          3   -1    0    0  501    0  0.00000000000E+00 -0.00000000000E+00 -0.22100809154E+03  0.22100809154E+03  0.00000000000E+00 0. -1.
         23    2    1    2    0    0 -0.43397926776E+02 -0.36039511299E+02  0.73739472930E+01  0.13741854781E+03  0.12508899136E+03 0.  0.
         23    2    1    2    0    0  0.43397926776E+02  0.36039511299E+02 -0.13839106065E+03  0.17358052192E+03  0.88294311813E+02 0.  0.
          5    1    3    3  502    0 -0.50844581824E+02 -0.69238119892E+02 -0.25724346713E+02  0.89768052005E+02  0.41800000000E+01 0. -1.
         -5    1    3    3    0  502  0.74466550481E+01  0.33198608593E+02  0.33098294006E+02  0.47650495800E+02  0.41800000000E+01 0. -1.
        -11    1    4    4    0    0 -0.14386903835E+02  0.34997129645E+02 -0.22357484810E+02  0.43950417658E+02  0.00000000000E+00 0.  1.
         11    1    4    4    0    0  0.57784830611E+02  0.10423816545E+01 -0.11603357584E+03  0.12963010426E+03  0.00000000000E+00 0. -1.
</event>
<event>
 8    1  0.6632302E-006  0.1364472E+03  0.7561462E-02  0.1218191E+00
          2   -1    0    0  501    0  0.00000000000E+00  0.00000000000E+00  0.32445114725E+03  0.32445114725E+03  0.00000000000E+00 0. -1.
         -2   -1    0    0    0  501 -0.00000000000E+00 -0.00000000000E+00 -0.72108781134E+02  0.72108781134E+02  0.00000000000E+00 0.  1.
         23    2    1    2    0    0  0.89510961015E+02  0.44036210105E+02  0.75324797756E+02  0.17684104365E+03  0.12509008602E+03 0.  0.
         23    2    1    2    0    0 -0.89510961015E+02 -0.44036210105E+02  0.17701756836E+03  0.21971888473E+03  0.83604837526E+02 0.  0.
          5    1    3    3  502    0 -0.21173416377E+02 -0.19767613149E+02  0.16726593217E+01  0.29314540417E+02  0.41800000000E+01 0. -1.
         -5    1    3    3    0  502  0.11068437739E+03  0.63803823254E+02  0.73652138434E+02  0.14752650323E+03  0.41800000000E+01 0. -1.
        -11    1    4    4    0    0 -0.24858052015E+02 -0.44698354155E+02  0.30449880575E+02  0.59523615828E+02  0.00000000000E+00 0.  1.
         11    1    4    4    0    0 -0.64652909000E+02  0.66214405029E+00  0.14656768778E+03  0.16019526890E+03  0.00000000000E+00 0. -1.
</event>
<event>
 8    1  0.5951278E-006  0.1923679E+03  0.7561462E-02  0.1156343E+00
         -1   -1    0    0    0  501 -0.00000000000E+00  0.00000000000E+00  0.18587721079E+03  0.18587721079E+03  0.00000000000E+00 0.  1.
          1   -1    0    0  501    0  0.00000000000E+00 -0.00000000000E+00 -0.23333665834E+03  0.23333665834E+03  0.00000000000E+00 0. -1.
         23    2    1    2    0    0  0.14479185799E+03  0.10179173178E+03 -0.10645420774E+02  0.21699887218E+03  0.12509575031E+03 0.  0.
         23    2    1    2    0    0 -0.14479185799E+03 -0.10179173178E+03 -0.36814026775E+02  0.20221499694E+03  0.90605704141E+02 0.  0.
          5    1    3    3  502    0  0.10254955161E+03  0.15616796276E+02  0.36429284155E+02  0.11002208872E+03  0.41800000000E+01 0.  1.
         -5    1    3    3    0  502  0.42242306385E+02  0.86174935499E+02 -0.47074704930E+02  0.10697678347E+03  0.41800000000E+01 0.  1.
        -11    1    4    4    0    0 -0.17239715491E+02 -0.39098754508E+02  0.22400689439E+02  0.48246360294E+02  0.00000000000E+00 0.  1.
         11    1    4    4    0    0 -0.12755214250E+03 -0.62692977267E+02 -0.59214716215E+02  0.15396863665E+03  0.00000000000E+00 0. -1.
</event>
<event>
 8    1  0.5951278E-006  0.1760465E+03  0.7561462E-02  0.1171685E+00
          2   -1    0    0  501    0  0.00000000000E+00  0.00000000000E+00  0.13029514420E+04  0.13029514420E+04  0.00000000000E+00 0. -1.
         -2   -1    0    0    0  501 -0.00000000000E+00 -0.00000000000E+00 -0.30161450632E+02  0.30161450632E+02  0.00000000000E+00 0.  1.
         23    2    1    2    0    0 -0.42760318386E+02 -0.16039818083E+03  0.63403524664E+03  0.66723730360E+03  0.12509557982E+03 0.  0.
         23    2    1    2    0    0  0.42760318386E+02  0.16039818083E+03  0.63875474476E+03  0.66587558907E+03  0.88468383702E+02 0.  0.
          5    1    3    3  502    0 -0.41917711625E+02 -0.16711417539E+03  0.43289347447E+03  0.46593827359E+03  0.41800000000E+01 0. -1.
         -5    1    3    3    0  502 -0.84260676190E+00  0.67159945531E+01  0.20114177217E+03  0.20129903000E+03  0.41800000000E+01 0. -1.
        -11    1    4    4    0    0  0.37170151189E+02  0.55789367430E+02  0.12804405816E+03  0.14453149999E+03  0.00000000000E+00 0.  1.
         11    1    4    4    0    0  0.55901671971E+01  0.10460881340E+03  0.51071068660E+03  0.52134408908E+03  0.00000000000E+00 0. -1.
</event>
<event>
 8    1  0.5951278E-006  0.1212955E+03  0.7561462E-02  0.1240975E+00
         -2   -1    0    0    0  501 -0.00000000000E+00  0.00000000000E+00  0.11162233019E+02  0.11162233019E+02  0.00000000000E+00 0. -1.
          2   -1    0    0  501    0  0.00000000000E+00 -0.00000000000E+00 -0.13483706912E+04  0.13483706912E+04  0.00000000000E+00 0.  1.
         23    2    1    2    0    0  0.58121425335E+02 -0.14380635343E+02 -0.76794743533E+03  0.78037081408E+03  0.12510172374E+03 0.  0.
         23    2    1    2    0    0 -0.58121425335E+02  0.14380635343E+02 -0.56926102289E+03  0.57916211018E+03  0.88236811635E+02 0.  0.
          5    1    3    3  502    0  0.91552919355E+02  0.13021142218E+02 -0.58895581573E+03  0.59618613911E+03  0.41800000000E+01 0.  1.
         -5    1    3    3    0  502 -0.33431494020E+02 -0.27401777561E+02 -0.17899161960E+03  0.18418467497E+03  0.41800000000E+01 0.  1.
        -11    1    4    4    0    0 -0.51502869287E+02  0.49155316119E+02 -0.37278480709E+03  0.37952246712E+03  0.00000000000E+00 0.  1.
         11    1    4    4    0    0 -0.66185560484E+01 -0.34774680775E+02 -0.19647621580E+03  0.19963964306E+03  0.00000000000E+00 0. -1.
</event>
<event>
 8    1  0.5951278E-006  0.7522367E+02  0.7561462E-02  0.1343180E+00
          1   -1    0    0  501    0  0.00000000000E+00  0.00000000000E+00  0.83578183045E+02  0.83578183045E+02  0.00000000000E+00 0. -1.
         -1   -1    0    0    0  501 -0.00000000000E+00 -0.00000000000E+00 -0.13394321387E+03  0.13394321387E+03  0.00000000000E+00 0.  1.
         23    2    1    2    0    0 -0.16299475404E+02  0.76971218896E+01 -0.58048087007E+02  0.13907210557E+03  0.12508617653E+03 0.  0.
         23    2    1    2    0    0  0.16299475404E+02 -0.76971218896E+01  0.76830561854E+01  0.78449291337E+02  0.75962776247E+02 0.  0.
          5    1    3    3  502    0 -0.99828750165E+01  0.45077888162E+02  0.21311682757E+02  0.51022877385E+02  0.41800000000E+01 0.  1.
         -5    1    3    3    0  502 -0.63166003874E+01 -0.37380766272E+02 -0.79359769764E+02  0.88049228188E+02  0.41800000000E+01 0.  1.
        -11    1    4    4    0    0  0.80204533589E+01  0.28091617558E+02 -0.17367650417E+02  0.33986790524E+02  0.00000000000E+00 0.  1.
         11    1    4    4    0    0  0.82790220450E+01 -0.35788739448E+02  0.25050706602E+02  0.44462500813E+02  0.00000000000E+00 0. -1.
</event>
<event>
 8    1  0.5951278E-006  0.1326341E+03  0.7561462E-02  0.1223599E+00
          1   -1    0    0  501    0  0.00000000000E+00  0.00000000000E+00  0.10133438234E+03  0.10133438234E+03  0.00000000000E+00 0. -1.
         -1   -1    0    0    0  501 -0.00000000000E+00 -0.00000000000E+00 -0.22219491507E+03  0.22219491507E+03  0.00000000000E+00 0.  1.
         23    2    1    2    0    0 -0.59051436262E+02 -0.81110135798E+02 -0.94455575814E+02  0.18610694189E+03  0.12509201320E+03 0.  0.
         23    2    1    2    0    0  0.59051436262E+02  0.81110135798E+02 -0.26404956907E+02  0.13742235551E+03  0.90120784463E+02 0.  0.
          5    1    3    3  502    0 -0.16554210981E+01 -0.75300126967E+02 -0.10296837747E+03  0.12764328693E+03  0.41800000000E+01 0. -1.
         -5    1    3    3    0  502 -0.57396015164E+02 -0.58100088309E+01  0.85128016570E+01  0.58463654961E+02  0.41800000000E+01 0. -1.
        -11    1    4    4    0    0  0.16328899227E+02  0.87309630841E+02 -0.43132640924E+01  0.88928110486E+02  0.00000000000E+00 0.  1.
         11    1    4    4    0    0  0.42722537035E+02 -0.61994950429E+01 -0.22091692814E+02  0.48494245029E+02  0.00000000000E+00 0. -1.
</event>
<event>
 7    1  0.5951278E-006  0.9008380E+02  0.7561462E-02  0.1302649E+00
         -2   -1    0    0    0  501 -0.00000000000E+00  0.00000000000E+00  0.24792068534E+03  0.24792068534E+03  0.00000000000E+00 0.  1.
          2   -1    0    0  501    0  0.00000000000E+00 -0.00000000000E+00 -0.79405232933E+02  0.79405232933E+02  0.00000000000E+00 0. -1.
         23    2    1    2    0    0 -0.23822686549E+01  0.46543926911E+02  0.89125272115E+01  0.10344342069E+03  0.91918963259E+02 0.  0.
          5    1    1    2  502    0 -0.70537768204E+01  0.18173194773E+02 -0.22667920681E+02  0.30188206367E+02  0.41800000000E+01 0. -1.
         -5    1    1    2    0  502  0.94360454753E+01 -0.64717121683E+02  0.18227084587E+03  0.19369429121E+03  0.41800000000E+01 0.  1.
        -11    1    3    3    0    0  0.34082308077E+02  0.47207360679E+02  0.25270488234E+02  0.63472326267E+02  0.00000000000E+00 0.  1.
         11    1    3    3    0    0 -0.36464576731E+02 -0.66343376810E+00 -0.16357961023E+02  0.39971094423E+02  0.00000000000E+00 0. -1.
</event>
<event>
 8    1  0.5951278E-006  0.1649565E+03  0.7561462E-02  0.1183212E+00
         -2   -1    0    0    0  501 -0.00000000000E+00  0.00000000000E+00  0.58687827223E+02  0.58687827223E+02  0.00000000000E+00 0.  1.
          2   -1    0    0  501    0  0.00000000000E+00 -0.00000000000E+00 -0.52744638733E+03  0.52744638733E+03  0.00000000000E+00 0. -1.
         23    2    1    2    0    0 -0.71257096239E+02  0.11599868273E+03 -0.26411197236E+03  0.32239249546E+03  0.12509404073E+03 0.  0.
         23    2    1    2    0    0  0.71257096239E+02 -0.11599868273E+03 -0.20464658775E+03  0.26374171909E+03  0.95635769214E+02 0.  0.
          5    1    3    3  502    0 -0.44659419607E+02 -0.16513290190E+02 -0.50115277389E+02  0.69254356833E+02  0.41800000000E+01 0. -1.
         -5    1    3    3    0  502 -0.26597676632E+02  0.13251197292E+03 -0.21399669497E+03  0.25313813863E+03  0.41800000000E+01 0. -1.
        -11    1    4    4    0    0  0.62787364226E+02 -0.49751144999E+02 -0.17127091357E+03  0.18907975928E+03  0.00000000000E+00 0. -1.
         11    1    4    4    0    0  0.84697320132E+01 -0.66247537734E+02 -0.33375674181E+02  0.74661959813E+02  0.00000000000E+00 0.  1.
</event>
<event>
 7    1  0.5951278E-006  0.2166205E+03  0.7561462E-02  0.1136428E+00
         -2   -1    0    0    0  501 -0.00000000000E+00  0.00000000000E+00  0.66447728373E+02  0.66447728373E+02  0.00000000000E+00 0.  1.
          2   -1    0    0  501    0  0.00000000000E+00 -0.00000000000E+00 -0.11030303469E+04  0.11030303469E+04  0.00000000000E+00 0. -1.
         23    2    1    2    0    0 -0.17561351588E+03 -0.11404574758E+03 -0.50670256458E+03  0.55587337197E+03  0.91657935883E+02 0.  0.
          5    1    1    2  502    0  0.11179746705E+03  0.45863636828E+02 -0.50155914180E+03  0.51592750648E+03  0.41800000000E+01 0. -1.
         -5    1    1    2    0  502  0.63816048833E+02  0.68182110749E+02 -0.28320912152E+02  0.97677196827E+02  0.41800000000E+01 0.  1.
        -11    1    3    3    0    0 -0.49803845679E+02 -0.69253912359E+02 -0.12373610481E+03  0.15029022275E+03  0.00000000000E+00 0.  1.
         11    1    3    3    0    0 -0.12580967020E+03 -0.44791835218E+02 -0.38296645977E+03  0.40558314922E+03  0.00000000000E+00 0. -1.
</event>
<event>
 8    1  0.5951278E-006  0.1731568E+03  0.7561462E-02  0.1174595E+00
         -1   -1    0    0    0  501 -0.00000000000E+00  0.00000000000E+00  0.85527121003E+02  0.85527121003E+02  0.00000000000E+00 0.  1.
          1   -1    0    0  501    0  0.00000000000E+00 -0.00000000000E+00 -0.55444396701E+03  0.55444396701E+03  0.00000000000E+00 0. -1.
         23    2    1    2    0    0 -0.14849084163E+03 -0.27834752099E+02 -0.79139784855E+02  0.21151540710E+03  0.12510538925E+03 0.  0.
         23    2    1    2    0    0  0.14849084163E+03  0.27834752099E+02 -0.38977706116E+03  0.42845568092E+03  0.93935135269E+02 0.  0.
          5    1    3    3  502    0 -0.10638524720E+03  0.41148377760E+02 -0.57174919111E+02  0.12766148044E+03  0.41800000000E+01 0. -1.
         -5    1    3    3    0  502 -0.42105594435E+02 -0.68983129858E+02 -0.21964865744E+02  0.83853926652E+02  0.41800000000E+01 0. -1.
        -11    1    4    4    0    0  0.41054798864E+02  0.44655236624E+01 -0.23500367742E+03  0.23860462236E+03  0.00000000000E+00 0. -1.
         11    1    4    4    0    0  0.10743604277E+03  0.23369228436E+02 -0.15477338374E+03  0.18985105856E+03  0.00000000000E+00 0.  1.
</event>
<event>
 8    1  0.5951278E-006  0.1210454E+03  0.7561462E-02  0.1241382E+00
          3   -1    0    0  501    0  0.00000000000E+00  0.00000000000E+00  0.40354581564E+03  0.40354581564E+03  0.00000000000E+00 0. -1.
         -3   -1    0    0    0  501 -0.00000000000E+00 -0.00000000000E+00 -0.39174711509E+02  0.39174711509E+02  0.00000000000E+00 0.  1.
         23    2    1    2    0    0 -0.15523354421E+02  0.55391703057E+02  0.15033520752E+03  0.20385548817E+03  0.12508864911E+03 0.  0.
         23    2    1    2    0    0  0.15523354421E+02 -0.55391703057E+02  0.21403589660E+03  0.23886503898E+03  0.89083817329E+02 0.  0.
          5    1    3    3  502    0 -0.23776189343E+02  0.93983476770E+02  0.95319589119E+02  0.13602021010E+03  0.41800000000E+01 0. -1.
         -5    1    3    3    0  502  0.82528349218E+01 -0.38591773714E+02  0.55015618403E+02  0.67835278070E+02  0.41800000000E+01 0. -1.
        -11    1    4    4    0    0  0.39483085602E+02  0.55663590604E+01  0.94346980468E+02  0.10242680863E+03  0.00000000000E+00 0. -1.
         11    1    4    4    0    0 -0.23959731181E+02 -0.60958062117E+02  0.11968891614E+03  0.13643823035E+03  0.00000000000E+00 0.  1.
</event>
<event>
 8    1  0.5951278E-006  0.1311836E+03  0.7561462E-02  0.1225710E+00
          2   -1    0    0  501    0  0.00000000000E+00  0.00000000000E+00  0.36423920119E+03  0.36423920119E+03  0.00000000000E+00 0. -1.
         -2   -1    0    0    0  501 -0.00000000000E+00 -0.00000000000E+00 -0.51629261381E+02  0.51629261381E+02  0.00000000000E+00 0.  1.
         23    2    1    2    0    0  0.70996314287E+02 -0.39497101589E+02  0.13994166697E+03  0.20452887356E+03  0.12509153565E+03 0.  0.
         23    2    1    2    0    0 -0.70996314287E+02  0.39497101589E+02  0.17266827284E+03  0.21133958901E+03  0.90827263310E+02 0.  0.
          5    1    3    3  502    0  0.70423411700E+02  0.26190937730E+02  0.41012426214E+02  0.85702471601E+02  0.41800000000E+01 0. -1.
         -5    1    3    3    0  502  0.57290258699E+00 -0.65688039319E+02  0.98929240757E+02  0.11882640196E+03  0.41800000000E+01 0. -1.
        -11    1    4    4    0    0 -0.91821297999E+02  0.22826864884E+02  0.14271303016E+03  0.17122857678E+03  0.00000000000E+00 0.  1.
         11    1    4    4    0    0  0.20824983712E+02  0.16670236705E+02  0.29955242676E+02  0.40111012231E+02  0.00000000000E+00 0. -1.
</event>
<event>
 8    1  0.5951278E-006  0.9575653E+02  0.7561462E-02  0.1289481E+00
         -2   -1    0    0    0  501 -0.00000000000E+00  0.00000000000E+00  0.22492071664E+02  0.22492071664E+02  0.00000000000E+00 0.  1.
          2   -1    0    0  501    0  0.00000000000E+00 -0.00000000000E+00 -0.55495491790E+03  0.55495491790E+03  0.00000000000E+00 0. -1.
         23    2    1    2    0    0 -0.60373559558E+01  0.21723528142E+02 -0.27434432852E+03  0.30236636850E+03  0.12510894799E+03 0.  0.
         23    2    1    2    0    0  0.60373559558E+01 -0.21723528142E+02 -0.25811851772E+03  0.27508062107E+03  0.92389488332E+02 0.  0.
          5    1    3    3  502    0 -0.59362370666E+02  0.68446518248E+01 -0.78141776643E+02  0.98459890141E+02  0.41800000000E+01 0. -1.
         -5    1    3    3    0  502  0.53325014710E+02  0.14878876317E+02 -0.19620255188E+03  0.20390647836E+03  0.41800000000E+01 0. -1.
        -11    1    4    4    0    0 -0.30193912188E+02 -0.25690189304E+02 -0.50073978089E+02  0.63867530415E+02  0.00000000000E+00 0.  1.
         11    1    4    4    0    0  0.36231268143E+02  0.39666611623E+01 -0.20804453963E+03  0.21121309065E+03  0.00000000000E+00 0. -1.
</event>
<event>
 8    1  0.5951278E-006  0.1986590E+03  0.7561462E-02  0.1150875E+00
          2   -1    0    0  501    0  0.00000000000E+00  0.00000000000E+00  0.39595046351E+03  0.39595046351E+03  0.00000000000E+00 0.  1.
         -2   -1    0    0    0  501 -0.00000000000E+00 -0.00000000000E+00 -0.10470967555E+03  0.10470967555E+03  0.00000000000E+00 0. -1.
         23    2    1    2    0    0 -0.35593085708E+02  0.16373637668E+03  0.10449558748E+03  0.23375786749E+03  0.12508774526E+03 0.  0.
         23    2    1    2    0    0  0.35593085708E+02 -0.16373637668E+03  0.18674520049E+03  0.26690227158E+03  0.91030675433E+02 0.  0.
          5    1    3    3  502    0 -0.74436121635E+02  0.14950562461E+03  0.77337473436E+02  0.18409569574E+03  0.41800000000E+01 0.  1.
         -5    1    3    3    0  502  0.38843035926E+02  0.14230752070E+02  0.27158114040E+02  0.49662171747E+02  0.41800000000E+01 0.  1.
        -11    1    4    4    0    0  0.62109613817E+02 -0.82792062709E+02  0.12150732422E+03  0.15961252963E+03  0.00000000000E+00 0.  1.
         11    1    4    4    0    0 -0.26516528109E+02 -0.80944313969E+02  0.65237876269E+02  0.10728974195E+03  0.00000000000E+00 0. -1.
</event>
<event>
 8    1  0.5951278E-006  0.8491403E+02  0.7561462E-02  0.1315658E+00
          2   -1    0    0  501    0  0.00000000000E+00  0.00000000000E+00  0.17109580145E+03  0.17109580145E+03  0.00000000000E+00 0. -1.
         -2   -1    0    0    0  501 -0.00000000000E+00 -0.00000000000E+00 -0.97676784843E+02  0.97676784843E+02  0.00000000000E+00 0.  1.
         23    2    1    2    0    0  0.60302235539E+02  0.36779480669E+02  0.60329829062E+01  0.14294293815E+03  0.12412573011E+03 0.  0.
         23    2    1    2    0    0 -0.60302235539E+02 -0.36779480669E+02  0.67386033705E+02  0.12582964815E+03  0.79392272955E+02 0.  0.
          5    1    3    3  502    0  0.14796582598E+02  0.29696949134E+02 -0.56207907732E+02  0.65403737936E+02  0.41800000000E+01 0.  1.
         -5    1    3    3    0  502  0.45505652941E+02  0.70825315349E+01  0.62240890638E+02  0.77539200215E+02  0.41800000000E+01 0.  1.
        -11    1    4    4    0    0 -0.66884414670E+02 -0.16593675098E+02  0.16744273107E+02  0.70917174654E+02  0.00000000000E+00 0.  1.
         11    1    4    4    0    0  0.65821791312E+01 -0.20185805571E+02  0.50641760598E+02  0.54912473493E+02  0.00000000000E+00 0. -1.
</event>
<event>
 8    1  0.5951278E-006  0.9986883E+02  0.7561462E-02  0.1280572E+00
         -1   -1    0    0    0  501 -0.00000000000E+00  0.00000000000E+00  0.18903358654E+02  0.18903358654E+02  0.00000000000E+00 0.  1.
          1   -1    0    0  501    0  0.00000000000E+00 -0.00000000000E+00 -0.85721080549E+03  0.85721080549E+03  0.00000000000E+00 0. -1.
         23    2    1    2    0    0  0.37668514098E+02 -0.50185211619E+02 -0.41510286372E+03  0.43907465017E+03  0.12860283252E+03 0.  0.
         23    2    1    2    0    0 -0.37668514098E+02  0.50185211619E+02 -0.42320458312E+03  0.43703951398E+03  0.89240938953E+02 0.  0.
          5    1    3    3  502    0  0.55130795553E+02 -0.17607008967E+02 -0.38977875576E+03  0.39407405677E+03  0.41800000000E+01 0. -1.
         -5    1    3    3    0  502 -0.17462281455E+02 -0.32578202653E+02 -0.25324107960E+02  0.45000593392E+02  0.41800000000E+01 0.  1.
        -11    1    4    4    0    0 -0.44999168128E+02 -0.81404748930E+01 -0.12514518757E+03  0.13323854711E+03  0.00000000000E+00 0. -1.
         11    1    4    4    0    0  0.73306540294E+01  0.58325686512E+02 -0.29805939555E+03  0.30380096687E+03  0.00000000000E+00 0.  1.
</event>
<event>
 8    1  0.5951278E-006  0.2022751E+03  0.7561462E-02  0.1147834E+00
          1   -1    0    0  501    0  0.00000000000E+00  0.00000000000E+00  0.22475383156E+03  0.22475383156E+03  0.00000000000E+00 0. -1.
         -1   -1    0    0    0  501 -0.00000000000E+00 -0.00000000000E+00 -0.20467339126E+03  0.20467339126E+03  0.00000000000E+00 0.  1.
         23    2    1    2    0    0 -0.22003118817E+02  0.17044221155E+03 -0.60313878304E+02  0.22095364771E+03  0.12509222920E+03 0.  0.
         23    2    1    2    0    0  0.22003118817E+02 -0.17044221155E+03  0.80394318598E+02  0.20847357511E+03  0.86390394952E+02 0.  0.
          5    1    3    3  502    0  0.37781175813E+02  0.14010276529E+03 -0.45909882851E+02  0.15225436556E+03  0.41800000000E+01 0.  1.
         -5    1    3    3    0  502 -0.59784294630E+02  0.30339446257E+02 -0.14403995453E+02  0.68699282155E+02  0.41800000000E+01 0.  1.
        -11    1    4    4    0    0 -0.73362255648E+01 -0.16131823364E+03  0.70402607093E+02  0.17616446803E+03  0.00000000000E+00 0. -1.
         11    1    4    4    0    0  0.29339344382E+02 -0.91239779133E+01  0.99917115050E+01  0.32309107083E+02  0.00000000000E+00 0.  1.
</event>
<event>
 8    1  0.5951278E-006  0.1143765E+03  0.7561462E-02  0.1252673E+00
          2   -1    0    0  501    0  0.00000000000E+00  0.00000000000E+00  0.19832187288E+03  0.19832187288E+03  0.00000000000E+00 0. -1.
         -2   -1    0    0    0  501 -0.00000000000E+00 -0.00000000000E+00 -0.67294049035E+02  0.67294049035E+02  0.00000000000E+00 0.  1.
         23    2    1    2    0    0  0.23041433143E+02  0.27629660943E+02  0.56380787736E+02  0.14184867531E+03  0.12509175695E+03 0.  0.
         23    2    1    2    0    0 -0.23041433143E+02 -0.27629660943E+02  0.74647036111E+02  0.12376724661E+03  0.91933919355E+02 0.  0.
          5    1    3    3  502    0 -0.72969576068E+01  0.74054856382E+02  0.33357596337E+02  0.81655183408E+02  0.41800000000E+01 0. -1.
         -5    1    3    3    0  502  0.30338390750E+02 -0.46425195440E+02  0.23023191399E+02  0.60193491900E+02  0.41800000000E+01 0. -1.
        -11    1    4    4    0    0  0.28057971148E+02 -0.37223236550E+02  0.32286007396E+02  0.56702780864E+02  0.00000000000E+00 0. -1.
         11    1    4    4    0    0 -0.51099404291E+02  0.95935756072E+01  0.42361028715E+02  0.67064465745E+02  0.00000000000E+00 0.  1.
</event>
<event>
 8    1  0.5951278E-006  0.1190213E+03  0.7561462E-02  0.1244720E+00
          2   -1    0    0  501    0  0.00000000000E+00  0.00000000000E+00  0.20809700700E+03  0.20809700700E+03  0.00000000000E+00 0.  1.
         -2   -1    0    0    0  501 -0.00000000000E+00 -0.00000000000E+00 -0.10575815537E+03  0.10575815537E+03  0.00000000000E+00 0. -1.
         23    2    1    2    0    0 -0.77211654543E+02 -0.63904798757E+02  0.40695306061E+02  0.16537686177E+03  0.12509170864E+03 0.  0.
         23    2    1    2    0    0  0.77211654543E+02  0.63904798757E+02  0.61643545570E+02  0.14847830061E+03  0.90556149096E+02 0.  0.
          5    1    3    3  502    0 -0.65391639359E+02 -0.16115218939E+02 -0.34202707113E+02  0.75650937558E+02  0.41800000000E+01 0. -1.
         -5    1    3    3    0  502 -0.11820015184E+02 -0.47789579818E+02  0.74898013174E+02  0.89725924211E+02  0.41800000000E+01 0. -1.
        -11    1    4    4    0    0  0.88964424445E+02  0.63673920529E+02  0.73485895970E+02  0.13179231343E+03  0.00000000000E+00 0.  1.
         11    1    4    4    0    0 -0.11752769902E+02  0.23087822766E+00 -0.11842350399E+02  0.16685987178E+02  0.00000000000E+00 0. -1.
</event>
<event>
 8    1  0.5951278E-006  0.1273307E+03  0.7561462E-02  0.1231471E+00
          2   -1    0    0  501    0  0.00000000000E+00  0.00000000000E+00  0.55646834352E+03  0.55646834352E+03  0.00000000000E+00 0. -1.
         -2   -1    0    0    0  501 -0.00000000000E+00 -0.00000000000E+00 -0.35052875753E+02  0.35052875753E+02  0.00000000000E+00 0.  1.
         23    2    1    2    0    0  0.73634618896E+02  0.29486129398E+02  0.33572891445E+03  0.36692763111E+03  0.12502197224E+03 0.  0.
         23    2    1    2    0    0 -0.73634618896E+02 -0.29486129398E+02  0.18568655332E+03  0.22459358817E+03  0.98342741663E+02 0.  0.
          5    1    3    3  502    0 -0.20617481223E+02 -0.24702172279E+02  0.38142390686E+02  0.50075864591E+02  0.41800000000E+01 0.  1.
         -5    1    3    3    0  502  0.94252100119E+02  0.54188301678E+02  0.29758652377E+03  0.31685176651E+03  0.41800000000E+01 0.  1.
        -11    1    4    4    0    0 -0.91514372189E+02 -0.22665476548E+02  0.18219246912E+03  0.20514068331E+03  0.00000000000E+00 0. -1.
         11    1    4    4    0    0  0.17879753293E+02 -0.68206528506E+01  0.34940841953E+01  0.19452904860E+02  0.00000000000E+00 0.  1.
</event>
<event>
 8    1  0.5951278E-006  0.1071874E+03  0.7561462E-02  0.1265869E+00
         -2   -1    0    0    0  501 -0.00000000000E+00  0.00000000000E+00  0.56742175197E+03  0.56742175197E+03  0.00000000000E+00 0.  1.
          2   -1    0    0  501    0  0.00000000000E+00 -0.00000000000E+00 -0.46756311464E+02  0.46756311464E+02  0.00000000000E+00 0. -1.
         23    2    1    2    0    0  0.77550765114E+02  0.70271512928E+01  0.45647646021E+03  0.47966768044E+03  0.12508726117E+03 0.  0.
         23    2    1    2    0    0 -0.77550765114E+02 -0.70271512928E+01  0.64188980299E+02  0.13451038300E+03  0.88934334861E+02 0.  0.
          5    1    3    3  502    0 -0.12120054025E+02 -0.78539187706E+01  0.28627431087E+03  0.28666885638E+03  0.41800000000E+01 0. -1.
         -5    1    3    3    0  502  0.89670819139E+02  0.14881070063E+02  0.17020214934E+03  0.19299882406E+03  0.41800000000E+01 0. -1.
        -11    1    4    4    0    0 -0.23114391947E+02  0.33345188675E+02  0.51494830190E+02  0.65558327154E+02  0.00000000000E+00 0.  1.
         11    1    4    4    0    0 -0.54436373167E+02 -0.40372339968E+02  0.12694150109E+02  0.68952055843E+02  0.00000000000E+00 0. -1.
</event>
<event>
 7    1  0.5951278E-006  0.1241118E+03  0.7561462E-02  0.1236464E+00
         -1   -1    0    0    0  501 -0.00000000000E+00  0.00000000000E+00  0.99402517066E+03  0.99402517066E+03  0.00000000000E+00 0.  1.
          1   -1    0    0  501    0  0.00000000000E+00 -0.00000000000E+00 -0.18752412988E+02  0.18752412988E+02  0.00000000000E+00 0. -1.
         23    2    1    2    0    0 -0.46391250663E+02 -0.61584501743E+01  0.23072263311E+03  0.25453704158E+03  0.96778600242E+02 0.  0.
          5    1    1    2  502    0 -0.12190044612E+02 -0.55543762311E+02  0.25118097278E+03  0.25757146621E+03  0.41800000000E+01 0. -1.
         -5    1    1    2    0  502  0.58581295275E+02  0.61702212485E+02  0.49336915178E+03  0.50066907585E+03  0.41800000000E+01 0.  1.
        -11    1    3    3    0    0 -0.62395123548E+02  0.27930451565E+02  0.12768874532E+03  0.14483672617E+03  0.00000000000E+00 0.  1.
         11    1    3    3    0    0  0.16003872884E+02 -0.34088901739E+02  0.10303388779E+03  0.10970031541E+03  0.00000000000E+00 0. -1.
</event>
<event>
 8    1  0.5951278E-006  0.5391247E+02  0.7561462E-02  0.1425313E+00
          1   -1    0    0  501    0  0.00000000000E+00  0.00000000000E+00  0.55349339231E+03  0.55349339231E+03  0.00000000000E+00 0. -1.
         -1   -1    0    0    0  501 -0.00000000000E+00 -0.00000000000E+00 -0.24599387008E+02  0.24599387008E+02  0.00000000000E+00 0.  1.
         23    2    1    2    0    0  0.35331440414E+02 -0.24789642205E+02  0.30545327605E+03  0.33288399544E+03  0.12508882254E+03 0.  0.
         23    2    1    2    0    0 -0.35331440414E+02  0.24789642205E+02  0.22344072924E+03  0.24520878388E+03  0.91316762768E+02 0.  0.
          5    1    3    3  502    0  0.58288062163E+01 -0.49632348945E+01 -0.11210469971E+02  0.14204074046E+02  0.41800000000E+01 0. -1.
         -5    1    3    3    0  502  0.29502634198E+02 -0.19826407310E+02  0.31666374603E+03  0.31867992139E+03  0.41800000000E+01 0. -1.
        -11    1    4    4    0    0 -0.21939453517E+01 -0.12923614823E+02 -0.28510764649E+01  0.13414986147E+02  0.00000000000E+00 0.  1.
         11    1    4    4    0    0 -0.33137495063E+02  0.37713257028E+02  0.22629180571E+03  0.23179379773E+03  0.00000000000E+00 0. -1.
</event>
<event>
 8    1  0.5951278E-006  0.1002359E+03  0.7561462E-02  0.1279801E+00
         -2   -1    0    0    0  501 -0.00000000000E+00  0.00000000000E+00  0.49693297583E+02  0.49693297583E+02  0.00000000000E+00 0. -1.
          2   -1    0    0  501    0  0.00000000000E+00 -0.00000000000E+00 -0.26099597273E+03  0.26099597273E+03  0.00000000000E+00 0.  1.
         23    2    1    2    0    0  0.25720794466E+02  0.47774254191E+01 -0.94444784051E+02  0.15889268558E+03  0.12507072094E+03 0.  0.
         23    2    1    2    0    0 -0.25720794466E+02 -0.47774254191E+01 -0.11685789110E+03  0.15179658473E+03  0.93284797062E+02 0.  0.
          5    1    3    3  502    0 -0.48042741091E+02  0.34627467940E+01 -0.15527267662E+02  0.50780547732E+02  0.41800000000E+01 0. -1.
         -5    1    3    3    0  502  0.73763535557E+02  0.13146786252E+01 -0.78917516389E+02  0.10811213785E+03  0.41800000000E+01 0. -1.
        -11    1    4    4    0    0  0.19422587210E+02 -0.22507847737E+02 -0.93213518471E+02  0.97839665420E+02  0.00000000000E+00 0.  1.
         11    1    4    4    0    0 -0.45143381676E+02  0.17730422318E+02 -0.23644372625E+02  0.53956919311E+02  0.00000000000E+00 0. -1.
</event>
<event>
 7    1  0.5951278E-006  0.1610087E+03  0.7561462E-02  0.1187563E+00
          1   -1    0    0  501    0  0.00000000000E+00  0.00000000000E+00  0.81992733276E+03  0.81992733276E+03  0.00000000000E+00 0. -1.
         -1   -1    0    0    0  501 -0.00000000000E+00 -0.00000000000E+00 -0.51229842731E+02  0.51229842731E+02  0.00000000000E+00 0.  1.
         23    2    1    2    0    0  0.50807835399E+02 -0.14302765193E+03  0.53598943339E+03  0.56287531941E+03  0.80657343962E+02 0.  0.
          5    1    1    2  502    0 -0.23810120456E+02  0.10990163675E+03  0.23967986197E+03  0.26478141973E+03  0.41800000000E+01 0. -1.
         -5    1    1    2    0  502 -0.26997714943E+02  0.33126015179E+02 -0.69718053376E+01  0.43500436359E+02  0.41800000000E+01 0.  1.
        -11    1    3    3    0    0 -0.12689543235E+02 -0.63638501930E+02  0.28039958532E+03  0.28781037314E+03  0.00000000000E+00 0. -1.
         11    1    3    3    0    0  0.63497378634E+02 -0.79389149995E+02  0.25558984807E+03  0.27506494627E+03  0.00000000000E+00 0.  1.
</event>
<event>
 8    1  0.5951278E-006  0.1117307E+03  0.7561462E-02  0.1257398E+00
          2   -1    0    0  501    0  0.00000000000E+00  0.00000000000E+00  0.30302606207E+03  0.30302606207E+03  0.00000000000E+00 0. -1.
         -2   -1    0    0    0  501 -0.00000000000E+00 -0.00000000000E+00 -0.65296224382E+02  0.65296224382E+02  0.00000000000E+00 0.  1.
         23    2    1    2    0    0 -0.70598810203E+02  0.45383561727E+02  0.87130832125E+02  0.17401810764E+03  0.12508661081E+03 0.  0.
         23    2    1    2    0    0  0.70598810203E+02 -0.45383561727E+02  0.15059900557E+03  0.19430417881E+03  0.89611348332E+02 0.  0.
          5    1    3    3  502    0 -0.22330315376E+02  0.68974599995E+02  0.94981172416E+02  0.11956184150E+03  0.41800000000E+01 0.  1.
         -5    1    3    3    0  502 -0.48268494827E+02 -0.23591038268E+02 -0.78503402904E+01  0.54456266142E+02  0.41800000000E+01 0.  1.
        -11    1    4    4    0    0  0.28570476123E+02 -0.46879302392E+02  0.14079762723E+03  0.15112217883E+03  0.00000000000E+00 0. -1.
         11    1    4    4    0    0  0.42028334080E+02  0.14957406652E+01  0.98013783323E+01  0.43181999987E+02  0.00000000000E+00 0.  1.
</event>
<event>
 8    1  0.5951278E-006  0.1228018E+03  0.7561462E-02  0.1238545E+00
          2   -1    0    0  501    0  0.00000000000E+00  0.00000000000E+00  0.63553782217E+03  0.63553782217E+03  0.00000000000E+00 0.  1.
         -2   -1    0    0    0  501 -0.00000000000E+00 -0.00000000000E+00 -0.33394571129E+02  0.33394571129E+02  0.00000000000E+00 0. -1.
         23    2    1    2    0    0  0.43071763587E+02 -0.83157692594E+02  0.26582472302E+03  0.30835192086E+03  0.12509094721E+03 0.  0.
         23    2    1    2    0    0 -0.43071763587E+02  0.83157692594E+02  0.33631852802E+03  0.36058047244E+03  0.90209457143E+02 0.  0.
          5    1    3    3  502    0 -0.25099693420E+02 -0.55002290935E+02  0.20143537486E+03  0.21035429461E+03  0.41800000000E+01 0. -1.
         -5    1    3    3    0  502  0.68171457007E+02 -0.28155401658E+02  0.64389348158E+02  0.97997626243E+02  0.41800000000E+01 0. -1.
        -11    1    4    4    0    0  0.14571277574E+02  0.26825023784E+02  0.26419484231E+02  0.40371935527E+02  0.00000000000E+00 0. -1.
         11    1    4    4    0    0 -0.57643041161E+02  0.56332668810E+02  0.30989904379E+03  0.32020853691E+03  0.00000000000E+00 0.  1.
</event>
<event>
 7    1  0.5951278E-006  0.1605552E+03  0.7561462E-02  0.1188071E+00
          2   -1    0    0  501    0  0.00000000000E+00  0.00000000000E+00  0.67609310861E+03  0.67609310861E+03  0.00000000000E+00 0. -1.
         -2   -1    0    0    0  501 -0.00000000000E+00 -0.00000000000E+00 -0.63984031372E+02  0.63984031372E+02  0.00000000000E+00 0.  1.
         23    2    1    2    0    0 -0.75092695237E+02 -0.90836045967E+02  0.35073334553E+03  0.38070438425E+03  0.89620580190E+02 0.  0.
          5    1    1    2  502    0  0.11227509446E+03  0.21786660883E+02  0.25627912364E+03  0.28067208098E+03  0.41800000000E+01 0. -1.
         -5    1    1    2    0  502 -0.37182399221E+02  0.69049385084E+02  0.50966080625E+01  0.78700674749E+02  0.41800000000E+01 0.  1.
        -11    1    3    3    0    0 -0.59730706475E+02 -0.32902336309E+02  0.88591153900E+02  0.11179764568E+03  0.00000000000E+00 0.  1.
         11    1    3    3    0    0 -0.15361988762E+02 -0.57933709658E+02  0.26214219163E+03  0.26890673857E+03  0.00000000000E+00 0. -1.
</event>
<event>
 8    1  0.5951278E-006  0.1162236E+03  0.7561462E-02  0.1249460E+00
         -4   -1    0    0    0  501 -0.00000000000E+00  0.00000000000E+00  0.27713662591E+03  0.27713662591E+03  0.00000000000E+00 0.  1.
          4   -1    0    0  501    0  0.00000000000E+00 -0.00000000000E+00 -0.79106489065E+02  0.79106489065E+02  0.00000000000E+00 0. -1.
         23    2    1    2    0    0 -0.46459569743E+02 -0.17716375115E+02  0.21337635390E+03  0.25228621493E+03  0.12508598751E+03 0.  0.
         23    2    1    2    0    0  0.46459569743E+02  0.17716375115E+02 -0.15346217056E+02  0.10395690005E+03  0.89995383891E+02 0.  0.
          5    1    3    3  502    0  0.22134159866E+02 -0.49238650645E+02  0.12343371898E+03  0.13478768910E+03  0.41800000000E+01 0. -1.
         -5    1    3    3    0  502 -0.68593729610E+02  0.31522275531E+02  0.89942634923E+02  0.11749852583E+03  0.41800000000E+01 0. -1.
        -11    1    4    4    0    0 -0.26902633100E+02 -0.12132601864E+01 -0.17970522736E+01  0.26989869671E+02  0.00000000000E+00 0.  1.
         11    1    4    4    0    0  0.73362202843E+02  0.18929635301E+02 -0.13549164782E+02  0.76967030376E+02  0.00000000000E+00 0. -1.
</event>
<event>
 7    1  0.5951278E-006  0.1164547E+03  0.7561462E-02  0.1249063E+00
         -2   -1    0    0    0  501 -0.00000000000E+00  0.00000000000E+00  0.71639753923E+02  0.71639753923E+02  0.00000000000E+00 0.  1.
          2   -1    0    0  501    0  0.00000000000E+00 -0.00000000000E+00 -0.39833541881E+03  0.39833541881E+03  0.00000000000E+00 0. -1.
         23    2    1    2    0    0  0.40761901885E+01  0.29767592103E+02 -0.14669667223E+03  0.17563279707E+03  0.91783663555E+02 0.  0.
          5    1    1    2  502    0 -0.34726480870E+02 -0.87734075001E+02 -0.20367015943E+03  0.22450434881E+03  0.41800000000E+01 0. -1.
         -5    1    1    2    0  502  0.30650290681E+02  0.57966482898E+02  0.23671166781E+02  0.69838026856E+02  0.41800000000E+01 0.  1.
        -11    1    3    3    0    0 -0.16127562752E+02  0.44773316759E+02 -0.14234906082E+03  0.15009331527E+03  0.00000000000E+00 0.  1.
         11    1    3    3    0    0  0.20203752941E+02 -0.15005724656E+02 -0.43476114147E+01  0.25539481795E+02  0.00000000000E+00 0. -1.
</event>
<event>
 8    1  0.5951278E-006  0.4952514E+02  0.7561462E-02  0.1447920E+00
         -3   -1    0    0    0  501 -0.00000000000E+00  0.00000000000E+00  0.97364710883E+02  0.97364710883E+02  0.00000000000E+00 0.  1.
          3   -1    0    0  501    0  0.00000000000E+00 -0.00000000000E+00 -0.18213741034E+03  0.18213741034E+03  0.00000000000E+00 0. -1.
         23    2    1    2    0    0 -0.22500858801E+02 -0.12717620502E+02  0.30372368729E+02  0.13129553912E+03  0.12509201131E+03 0.  0.
         23    2    1    2    0    0  0.22500858801E+02  0.12717620502E+02 -0.11514506819E+03  0.14820658211E+03  0.89659231166E+02 0.  0.
          5    1    3    3  502    0 -0.33682347039E+02 -0.15681431369E+02  0.75645801803E+02  0.84381085097E+02  0.41800000000E+01 0.  1.
         -5    1    3    3    0  502  0.11181488237E+02  0.29638108668E+01 -0.45273433073E+02  0.46914454023E+02  0.41800000000E+01 0.  1.
        -11    1    4    4    0    0  0.24986996337E+02 -0.97026369946E+01  0.38611226933E+01  0.27081348176E+02  0.00000000000E+00 0.  1.
         11    1    4    4    0    0 -0.24861375358E+01  0.22420257496E+02 -0.11900619088E+03  0.12112523393E+03  0.00000000000E+00 0. -1.
</event>
<event>
 7    1  0.5951278E-006  0.1354518E+03  0.7561462E-02  0.1219583E+00
          1   -1    0    0  501    0  0.00000000000E+00  0.00000000000E+00  0.51992742205E+02  0.51992742205E+02  0.00000000000E+00 0. -1.
         -1   -1    0    0    0  501 -0.00000000000E+00 -0.00000000000E+00 -0.36542119041E+03  0.36542119041E+03  0.00000000000E+00 0.  1.
         23    2    1    2    0    0  0.32778414226E+01  0.28597788130E+02 -0.79937403920E+02  0.12413262145E+03  0.90500505155E+02 0.  0.
          5    1    1    2  502    0 -0.72216016495E+02  0.37631698175E+02 -0.11508564215E+03  0.14104423127E+03  0.41800000000E+01 0. -1.
         -5    1    1    2    0  502  0.68938175072E+02 -0.66229486305E+02 -0.11840540214E+03  0.15223707990E+03  0.41800000000E+01 0.  1.
        -11    1    3    3    0    0  0.43337873761E+02 -0.18191268093E+01 -0.26915260062E+02  0.51048131686E+02  0.00000000000E+00 0.  1.
         11    1    3    3    0    0 -0.40060032338E+02  0.30416914939E+02 -0.53022143858E+02  0.73084489768E+02  0.00000000000E+00 0. -1.
</event>
<event>
 8    1  0.5951278E-006  0.1052541E+03  0.7561462E-02  0.1269620E+00
          2   -1    0    0  501    0  0.00000000000E+00  0.00000000000E+00  0.13017609368E+03  0.13017609368E+03  0.00000000000E+00 0. -1.
         -2   -1    0    0    0  501 -0.00000000000E+00 -0.00000000000E+00 -0.10507745837E+03  0.10507745837E+03  0.00000000000E+00 0.  1.
         23    2    1    2    0    0 -0.28778783286E+02 -0.76931290157E+01 -0.16372856713E+02  0.12962700961E+03  0.12509072140E+03 0.  0.
         23    2    1    2    0    0  0.28778783286E+02  0.76931290157E+01  0.41471492025E+02  0.10562654244E+03  0.92464475428E+02 0.  0.
          5    1    3    3  502    0  0.21297638123E+02 -0.50890008658E+02  0.13486426329E+02  0.56945047773E+02  0.41800000000E+01 0.  1.
         -5    1    3    3    0  502 -0.50076421410E+02  0.43196879642E+02 -0.29859283041E+02  0.72681961832E+02  0.41800000000E+01 0.  1.
        -11    1    4    4    0    0  0.58083052050E+02 -0.18099804177E+01  0.56578496648E+01  0.58386027673E+02  0.00000000000E+00 0.  1.
         11    1    4    4    0    0 -0.29304268764E+02  0.95031094334E+01  0.35813642360E+02  0.47240514770E+02  0.00000000000E+00 0. -1.
</event>
<event>
 8    1  0.5951278E-006  0.9744425E+02  0.7561462E-02  0.1285764E+00
          1   -1    0    0  501    0  0.00000000000E+00  0.00000000000E+00  0.77135475235E+02  0.77135475235E+02  0.00000000000E+00 0. -1.
         -1   -1    0    0    0  501 -0.00000000000E+00 -0.00000000000E+00 -0.15571641651E+03  0.15571641651E+03  0.00000000000E+00 0.  1.
         23    2    1    2    0    0  0.56081232301E+01  0.89251668988E+01 -0.56559953849E+02  0.13769339677E+03  0.12509729607E+03 0.  0.
         23    2    1    2    0    0 -0.56081232301E+01 -0.89251668988E+01 -0.22020987424E+02  0.95158494978E+02  0.91973396311E+02 0.  0.
          5    1    3    3  502    0 -0.37558322418E+02 -0.37063444004E+02 -0.52183843163E+02  0.74330023218E+02  0.41800000000E+01 0. -1.
         -5    1    3    3    0  502  0.43166445648E+02  0.45988610903E+02 -0.43761106862E+01  0.63363373548E+02  0.41800000000E+01 0. -1.
        -11    1    4    4    0    0  0.42085063872E+01 -0.43040005292E+02  0.13136160376E+02  0.45196374755E+02  0.00000000000E+00 0. -1.
         11    1    4    4    0    0 -0.98166296173E+01  0.34114838394E+02 -0.35157147800E+02  0.49962120222E+02  0.00000000000E+00 0.  1.
</event>
<event>
 8    1  0.5951278E-006  0.2350789E+03  0.7561462E-02  0.1123115E+00
          1   -1    0    0  501    0  0.00000000000E+00  0.00000000000E+00  0.75507463896E+03  0.75507463896E+03  0.00000000000E+00 0. -1.
         -1   -1    0    0    0  501 -0.00000000000E+00 -0.00000000000E+00 -0.84901566629E+02  0.84901566629E+02  0.00000000000E+00 0.  1.
         23    2    1    2    0    0  0.33823278401E+01 -0.21889718044E+03  0.23476501154E+03  0.34451489535E+03  0.12509391161E+03 0.  0.
         23    2    1    2    0    0 -0.33823278401E+01  0.21889718044E+03  0.43540806078E+03  0.49546131024E+03  0.89299019041E+02 0.  0.
          5    1    3    3  502    0 -0.56304629729E+02 -0.12078047005E+03  0.95733204667E+02  0.16413546890E+03  0.41800000000E+01 0. -1.
         -5    1    3    3    0  502  0.59686957569E+02 -0.98116710395E+02  0.13903180688E+03  0.18037942645E+03  0.41800000000E+01 0. -1.
        -11    1    4    4    0    0  0.68433296143E+01  0.20230920528E+03  0.32164402637E+03  0.38004042601E+03  0.00000000000E+00 0. -1.
         11    1    4    4    0    0 -0.10225657454E+02  0.16587975161E+02  0.11376403442E+03  0.11542088423E+03  0.00000000000E+00 0.  1.
</event>
<event>
 8    1  0.5951278E-006  0.9772176E+02  0.7561462E-02  0.1285161E+00
         -1   -1    0    0    0  501 -0.00000000000E+00  0.00000000000E+00  0.11661304507E+03  0.11661304507E+03  0.00000000000E+00 0.  1.
          1   -1    0    0  501    0  0.00000000000E+00 -0.00000000000E+00 -0.19417275222E+03  0.19417275222E+03  0.00000000000E+00 0. -1.
         23    2    1    2    0    0 -0.41205467819E+02  0.39734908731E+02  0.49751595690E+02  0.14093755023E+03  0.11879149061E+03 0.  0.
         23    2    1    2    0    0  0.41205467819E+02 -0.39734908731E+02 -0.12731130284E+03  0.16984824706E+03  0.96765208871E+02 0.  0.
          5    1    3    3  502    0 -0.62673512331E+02  0.35620693504E+02 -0.13875254111E+02  0.73530932473E+02  0.41800000000E+01 0. -1.
         -5    1    3    3    0  502  0.21468044512E+02  0.41142152267E+01  0.63626849801E+02  0.67406617759E+02  0.41800000000E+01 0.  1.
        -11    1    4    4    0    0  0.62536684511E+02 -0.84374435107E+01 -0.11287147397E+03  0.12931356077E+03  0.00000000000E+00 0.  1.
         11    1    4    4    0    0 -0.21331216692E+02 -0.31297465220E+02 -0.14439828871E+02  0.40534686290E+02  0.00000000000E+00 0. -1.
</event>
<event>
 7    1  0.5951278E-006  0.8662457E+02  0.7561462E-02  0.1311238E+00
         -2   -1    0    0    0  501 -0.00000000000E+00  0.00000000000E+00  0.12676535808E+02  0.12676535808E+02  0.00000000000E+00 0.  1.
          2   -1    0    0  501    0  0.00000000000E+00 -0.00000000000E+00 -0.14925828216E+04  0.14925828216E+04  0.00000000000E+00 0. -1.
         23    2    1    2    0    0  0.10758745296E+02 -0.39830334196E+02 -0.54792608171E+03  0.55698597379E+03  0.91149206555E+02 0.  0.
          5    1    1    2  502    0 -0.35398362328E+02  0.29152100331E+02 -0.91514796171E+03  0.91630570948E+03  0.41800000000E+01 0. -1.
         -5    1    1    2    0  502  0.24639617032E+02  0.10678233865E+02 -0.16832242357E+02  0.31967674122E+02  0.41800000000E+01 0.  1.
        -11    1    3    3    0    0  0.25272500364E+02  0.23826910213E+02 -0.18409723191E+03  0.18734516733E+03  0.00000000000E+00 0.  1.
         11    1    3    3    0    0 -0.14513755068E+02 -0.63657244410E+02 -0.36382884980E+03  0.36964080646E+03  0.00000000000E+00 0. -1.
</event>
<event>
 8    1  0.5951278E-006  0.2386963E+03  0.7561462E-02  0.1120664E+00
         -3   -1    0    0    0  501 -0.00000000000E+00  0.00000000000E+00  0.58150812033E+02  0.58150812033E+02  0.00000000000E+00 0.  1.
          3   -1    0    0  501    0  0.00000000000E+00 -0.00000000000E+00 -0.10776829162E+04  0.10776829162E+04  0.00000000000E+00 0. -1.
         23    2    1    2    0    0  0.14535380040E+03  0.15711237012E+03 -0.36370478642E+03  0.44016433803E+03  0.12510574999E+03 0.  0.
         23    2    1    2    0    0 -0.14535380040E+03 -0.15711237012E+03 -0.65582731774E+03  0.69566939019E+03  0.89634845993E+02 0.  0.
          5    1    3    3  502    0 -0.24009071689E+01 -0.17097064686E+02 -0.41850673432E+02  0.45464549298E+02  0.41800000000E+01 0. -1.
         -5    1    3    3    0  502  0.14775470757E+03  0.17420943481E+03 -0.32185411298E+03  0.39469978874E+03  0.41800000000E+01 0. -1.
        -11    1    4    4    0    0 -0.13221019831E+03 -0.83470478031E+02 -0.41425357298E+03  0.44277859023E+03  0.00000000000E+00 0.  1.
         11    1    4    4    0    0 -0.13143602091E+02 -0.73641892091E+02 -0.24157374476E+03  0.25289079996E+03  0.00000000000E+00 0. -1.
</event>
<event>
 8    1  0.5951278E-006  0.1586406E+03  0.7561462E-02  0.1190240E+00
         -1   -1    0    0    0  501 -0.00000000000E+00  0.00000000000E+00  0.48095272870E+03  0.48095272870E+03  0.00000000000E+00 0.  1.
          1   -1    0    0  501    0  0.00000000000E+00 -0.00000000000E+00 -0.66627112578E+02  0.66627112578E+02  0.00000000000E+00 0. -1.
         23    2    1    2    0    0  0.12402252503E+03  0.65340507001E+02  0.18503422048E+03  0.26370109011E+03  0.12509849561E+03 0.  0.
         23    2    1    2    0    0 -0.12402252503E+03 -0.65340507001E+02  0.22929139564E+03  0.28387875117E+03  0.91441963452E+02 0.  0.
          5    1    3    3  502    0  0.32274126295E+02  0.62412584151E+02  0.14938646052E+03  0.16513853843E+03  0.41800000000E+01 0.  1.
         -5    1    3    3    0  502  0.91748398738E+02  0.29279228505E+01  0.35647759963E+02  0.98562551679E+02  0.41800000000E+01 0.  1.
        -11    1    4    4    0    0 -0.31169079396E+02 -0.52790720503E+02  0.41563375808E+02  0.74066766435E+02  0.00000000000E+00 0. -1.
         11    1    4    4    0    0 -0.92853445636E+02 -0.12549786499E+02  0.18772801983E+03  0.20981198473E+03  0.00000000000E+00 0.  1.
</event>
<event>
 8    1  0.5951278E-006  0.1066863E+03  0.7561462E-02  0.1266832E+00
         -1   -1    0    0    0  501 -0.00000000000E+00  0.00000000000E+00  0.32740469978E+02  0.32740469978E+02  0.00000000000E+00 0.  1.
          1   -1    0    0  501    0  0.00000000000E+00 -0.00000000000E+00 -0.50970659855E+03  0.50970659855E+03  0.00000000000E+00 0. -1.
         23    2    1    2    0    0 -0.28024722823E+01  0.86644711561E+01 -0.11940707428E+03  0.17317217249E+03  0.12509046737E+03 0.  0.
         23    2    1    2    0    0  0.28024722823E+01 -0.86644711561E+01 -0.35755905430E+03  0.36927489604E+03  0.91828887739E+02 0.  0.
          5    1    3    3  502    0 -0.28762763131E+02 -0.49589687881E+02 -0.78478478968E+02  0.97276809919E+02  0.41800000000E+01 0.  1.
         -5    1    3    3    0  502  0.25960290849E+02  0.58254159037E+02 -0.40928595309E+02  0.75895362573E+02  0.41800000000E+01 0.  1.
        -11    1    4    4    0    0  0.44586548857E+02  0.10812271433E+02 -0.16347449865E+03  0.16979039214E+03  0.00000000000E+00 0.  1.
         11    1    4    4    0    0 -0.41784076575E+02 -0.19476742589E+02 -0.19408455564E+03  0.19948450390E+03  0.00000000000E+00 0. -1.
</event>
<event>
 8    1  0.5951278E-006  0.6960863E+02  0.7561462E-02  0.1361429E+00
          1   -1    0    0  501    0  0.00000000000E+00  0.00000000000E+00  0.36770149975E+02  0.36770149975E+02  0.00000000000E+00 0. -1.
         -1   -1    0    0    0  501 -0.00000000000E+00 -0.00000000000E+00 -0.34091182439E+03  0.34091182439E+03  0.00000000000E+00 0.  1.
         23    2    1    2    0    0 -0.62727037696E+00  0.23532212223E+02 -0.20296350942E+03  0.23957449151E+03  0.12509033674E+03 0.  0.
         23    2    1    2    0    0  0.62727037696E+00 -0.23532212223E+02 -0.10117816500E+03  0.13810748286E+03  0.91008226380E+02 0.  0.
          5    1    3    3  502    0 -0.25219268517E+02  0.24453388178E+02 -0.29757985168E+00  0.35377120455E+02  0.41800000000E+01 0. -1.
         -5    1    3    3    0  502  0.24591998140E+02 -0.92117595502E+00 -0.20266592956E+03  0.20419737105E+03  0.41800000000E+01 0. -1.
        -11    1    4    4    0    0  0.27351370808E+01  0.27584374393E+02 -0.76379504600E+02  0.81253968570E+02  0.00000000000E+00 0.  1.
         11    1    4    4    0    0 -0.21078667038E+01 -0.51116586617E+02 -0.24798660399E+02  0.56853514288E+02  0.00000000000E+00 0. -1.
</event>
<event>
 8    1  0.5951278E-006  0.1033075E+03  0.7561462E-02  0.1273491E+00
         -3   -1    0    0    0  501 -0.00000000000E+00  0.00000000000E+00  0.47610736924E+02  0.47610736924E+02  0.00000000000E+00 0.  1.
          3   -1    0    0  501    0  0.00000000000E+00 -0.00000000000E+00 -0.31291849264E+03  0.31291849264E+03  0.00000000000E+00 0. -1.
         23    2    1    2    0    0  0.43467314165E+02 -0.10992866104E+02 -0.10463170212E+03  0.16912821858E+03  0.12508521385E+03 0.  0.
         23    2    1    2    0    0 -0.43467314165E+02  0.10992866104E+02 -0.16067605360E+03  0.19140101098E+03  0.93847228518E+02 0.  0.
          5    1    3    3  502    0  0.57835473170E+02 -0.58912869066E+02 -0.66248858323E+02  0.10593418583E+03  0.41800000000E+01 0.  1.
         -5    1    3    3    0  502 -0.14368159004E+02  0.47920002962E+02 -0.38382843796E+02  0.63194032748E+02  0.41800000000E+01 0.  1.
        -11    1    4    4    0    0 -0.18016174143E+02  0.34617060929E+02 -0.15269815073E+02  0.41905735771E+02  0.00000000000E+00 0.  1.
         11    1    4    4    0    0 -0.25451140023E+02 -0.23624194825E+02 -0.14540623852E+03  0.14949527521E+03  0.00000000000E+00 0. -1.
</event>
<event>
 8    1  0.5951278E-006  0.1244472E+03  0.7561462E-02  0.1235936E+00
         -1   -1    0    0    0  501 -0.00000000000E+00  0.00000000000E+00  0.40094415681E+02  0.40094415681E+02  0.00000000000E+00 0.  1.
          1   -1    0    0  501    0  0.00000000000E+00 -0.00000000000E+00 -0.42235944216E+03  0.42235944216E+03  0.00000000000E+00 0. -1.
         23    2    1    2    0    0 -0.51283818429E+02  0.33888938322E+02 -0.14795459614E+03  0.20326424698E+03  0.12508917382E+03 0.  0.
         23    2    1    2    0    0  0.51283818429E+02 -0.33888938322E+02 -0.23431043034E+03  0.25918961086E+03  0.92192117018E+02 0.  0.
          5    1    3    3  502    0 -0.82432822441E+02 -0.12355508339E+02 -0.87761974553E+02  0.12110931170E+03  0.41800000000E+01 0.  1.
         -5    1    3    3    0  502  0.31149004012E+02  0.46244446661E+02 -0.60192621589E+02  0.82154935285E+02  0.41800000000E+01 0.  1.
        -11    1    4    4    0    0  0.26899594722E+02 -0.64794370080E+02 -0.13044517223E+03  0.14811428543E+03  0.00000000000E+00 0. -1.
         11    1    4    4    0    0  0.24384223707E+02  0.30905431758E+02 -0.10386525811E+03  0.11107532543E+03  0.00000000000E+00 0.  1.
</event>
<event>
 8    1  0.5951278E-006  0.1224165E+03  0.7561462E-02  0.1239163E+00
         -1   -1    0    0    0  501 -0.00000000000E+00  0.00000000000E+00  0.23900516058E+03  0.23900516058E+03  0.00000000000E+00 0.  1.
          1   -1    0    0  501    0  0.00000000000E+00 -0.00000000000E+00 -0.85614574672E+02  0.85614574672E+02  0.00000000000E+00 0. -1.
         23    2    1    2    0    0 -0.86916470092E+02 -0.97507727538E+01  0.11591136397E+03  0.19166295994E+03  0.12509874329E+03 0.  0.
         23    2    1    2    0    0  0.86916470092E+02  0.97507727538E+01  0.37479221932E+02  0.13295677530E+03  0.92861518834E+02 0.  0.
          5    1    3    3  502    0 -0.73817696415E+02  0.46691795007E+02  0.40228315806E+02  0.96254692444E+02  0.41800000000E+01 0.  1.
         -5    1    3    3    0  502 -0.13098773677E+02 -0.56442567761E+02  0.75683048167E+02  0.95408267498E+02  0.41800000000E+01 0.  1.
        -11    1    4    4    0    0  0.86602721723E+02  0.20129430670E+02 -0.51702473161E+01  0.89061534044E+02  0.00000000000E+00 0. -1.
         11    1    4    4    0    0  0.31374836856E+00 -0.10378657916E+02  0.42649469248E+02  0.43895241260E+02  0.00000000000E+00 0.  1.
</event>
<event>
 8    1  0.5951278E-006  0.1379571E+03  0.7561462E-02  0.1216104E+00
         -1   -1    0    0    0  501 -0.00000000000E+00  0.00000000000E+00  0.17936289073E+03  0.17936289073E+03  0.00000000000E+00 0.  1.
          1   -1    0    0  501    0  0.00000000000E+00 -0.00000000000E+00 -0.13074852243E+03  0.13074852243E+03  0.00000000000E+00 0. -1.
         23    2    1    2    0    0  0.67070068781E+02 -0.65326321880E+02  0.78957943537E+02  0.17506704243E+03  0.12509272577E+03 0.  0.
         23    2    1    2    0    0 -0.67070068781E+02  0.65326321880E+02 -0.30343575235E+02  0.13504437073E+03  0.92467978518E+02 0.  0.
          5    1    3    3  502    0  0.10108465603E+02  0.31566455299E+02  0.47872197272E+02  0.58376723518E+02  0.41800000000E+01 0.  1.
         -5    1    3    3    0  502  0.56961603178E+02 -0.96892777179E+02  0.31085746265E+02  0.11669031891E+03  0.41800000000E+01 0.  1.
        -11    1    4    4    0    0  0.22651791815E+02  0.14870831651E+02  0.19359474397E+01  0.27166030238E+02  0.00000000000E+00 0.  1.
         11    1    4    4    0    0 -0.89721860596E+02  0.50455490229E+02 -0.32279522675E+02  0.10787834049E+03  0.00000000000E+00 0. -1.
</event>
<event>
 8    1  0.5951278E-006  0.1313653E+03  0.7561462E-02  0.1225444E+00
         -1   -1    0    0    0  501 -0.00000000000E+00  0.00000000000E+00  0.18364703025E+03  0.18364703025E+03  0.00000000000E+00 0.  1.
          1   -1    0    0  501    0  0.00000000000E+00 -0.00000000000E+00 -0.10794969499E+03  0.10794969499E+03  0.00000000000E+00 0. -1.
         23    2    1    2    0    0 -0.89178122865E+02  0.26256619802E+01  0.58236343472E+02  0.16430169496E+03  0.12507575131E+03 0.  0.
         23    2    1    2    0    0  0.89178122865E+02 -0.26256619802E+01  0.17460991786E+02  0.12729503028E+03  0.89103910131E+02 0.  0.
          5    1    3    3  502    0 -0.10877858166E+03 -0.21561414657E+02  0.69490313371E+02  0.13093529120E+03  0.41800000000E+01 0.  1.
         -5    1    3    3    0  502  0.19600458793E+02  0.24187076638E+02 -0.11253969899E+02  0.33366403757E+02  0.41800000000E+01 0.  1.
        -11    1    4    4    0    0  0.52776230008E+02  0.38572521110E+02 -0.95127550465E+01  0.66058022581E+02  0.00000000000E+00 0. -1.
         11    1    4    4    0    0  0.36401892857E+02 -0.41198183090E+02  0.26973746832E+02  0.61237007697E+02  0.00000000000E+00 0.  1.
</event>
<event>
 8    1  0.5951278E-006  0.1102192E+03  0.7561462E-02  0.1260165E+00
          1   -1    0    0  501    0  0.00000000000E+00  0.00000000000E+00  0.33875099628E+03  0.33875099628E+03  0.00000000000E+00 0. -1.
         -1   -1    0    0    0  501 -0.00000000000E+00 -0.00000000000E+00 -0.61958405383E+02  0.61958405383E+02  0.00000000000E+00 0.  1.
         23    2    1    2    0    0  0.68872988605E+02 -0.31607920952E+02  0.45375018378E+02  0.14130478448E+03  0.11029778147E+03 0.  0.
         23    2    1    2    0    0 -0.68872988605E+02  0.31607920952E+02  0.23141757252E+03  0.25940461719E+03  0.89409805506E+02 0.  0.
          5    1    3    3  502    0 -0.21491697263E+02 -0.12333044395E+02 -0.16466168576E+02  0.30043371030E+02  0.41800000000E+01 0. -1.
         -5    1    3    3    0  502  0.90364685868E+02 -0.19274876557E+02  0.61841186954E+02  0.11126141345E+03  0.41800000000E+01 0.  1.
        -11    1    4    4    0    0 -0.73738642424E+02  0.46482867197E+02  0.22697285932E+03  0.24313519531E+03  0.00000000000E+00 0. -1.
         11    1    4    4    0    0  0.48656538193E+01 -0.14874946244E+02  0.44447132006E+01  0.16269421880E+02  0.00000000000E+00 0.  1.
</event>
<event>
 7    1  0.5951278E-006  0.2944510E+03  0.7561462E-02  0.1088048E+00
          2   -1    0    0  501    0  0.00000000000E+00  0.00000000000E+00  0.27655960725E+04  0.27655960725E+04  0.00000000000E+00 0. -1.
         -2   -1    0    0    0  501 -0.00000000000E+00 -0.00000000000E+00 -0.16872099912E+03  0.16872099912E+03  0.00000000000E+00 0.  1.
         23    2    1    2    0    0 -0.61220200501E+02 -0.16289005054E+03  0.47911546841E+03  0.51763084306E+03  0.90049853421E+02 0.  0.
          5    1    1    2  502    0  0.19125016817E+03  0.18072478561E+03  0.22290651014E+04  0.22445460061E+04  0.41800000000E+01 0. -1.
         -5    1    1    2    0  502 -0.13002996767E+03 -0.17834735074E+02 -0.11130549639E+03  0.17214022248E+03  0.41800000000E+01 0.  1.
        -11    1    3    3    0    0 -0.61536120301E+02 -0.44276365911E+02  0.15632943111E+03  0.17374113420E+03  0.00000000000E+00 0. -1.
         11    1    3    3    0    0  0.31591980029E+00 -0.11861368463E+03  0.32278603730E+03  0.34388970886E+03  0.00000000000E+00 0.  1.
</event>
<event>
 8    1  0.5951278E-006  0.1390897E+03  0.7561462E-02  0.1214559E+00
         -2   -1    0    0    0  501 -0.00000000000E+00  0.00000000000E+00  0.28429418175E+02  0.28429418175E+02  0.00000000000E+00 0.  1.
          2   -1    0    0  501    0  0.00000000000E+00 -0.00000000000E+00 -0.10564993529E+04  0.10564993529E+04  0.00000000000E+00 0. -1.
         23    2    1    2    0    0  0.34151099353E+02 -0.11603608288E+03 -0.35784452664E+03  0.39790857130E+03  0.12509138960E+03 0.  0.
         23    2    1    2    0    0 -0.34151099353E+02  0.11603608288E+03 -0.67022540804E+03  0.68702019972E+03  0.90354784777E+02 0.  0.
          5    1    3    3  502    0  0.31335609197E+02 -0.25142330228E+02 -0.26434235384E+03  0.26741056375E+03  0.41800000000E+01 0.  1.
         -5    1    3    3    0  502  0.28154901556E+01 -0.90893752655E+02 -0.93502172801E+02  0.13049800755E+03  0.41800000000E+01 0.  1.
        -11    1    4    4    0    0  0.25936833795E+02  0.56486145598E+02 -0.20689577055E+03  0.21603070121E+03  0.00000000000E+00 0. -1.
         11    1    4    4    0    0 -0.60087933148E+02  0.59549937285E+02 -0.46332963748E+03  0.47098949851E+03  0.00000000000E+00 0.  1.
</event>
<event>
 7    1  0.5951278E-006  0.1730665E+03  0.7561462E-02  0.1174687E+00
         -2   -1    0    0    0  501 -0.00000000000E+00  0.00000000000E+00  0.94090191537E+02  0.94090191537E+02  0.00000000000E+00 0.  1.
          2   -1    0    0  501    0  0.00000000000E+00 -0.00000000000E+00 -0.43060247275E+03  0.43060247275E+03  0.00000000000E+00 0. -1.
         23    2    1    2    0    0 -0.90228970015E+02  0.11773821961E+03 -0.24759247826E+03  0.30384942336E+03  0.94967791403E+02 0.  0.
          5    1    1    2  502    0  0.28608927468E+02 -0.11007702631E+03 -0.10681720070E+03  0.15608590332E+03  0.41800000000E+01 0. -1.
         -5    1    1    2    0  502  0.61620042548E+02 -0.76611932996E+01  0.17897397746E+02  0.64757337595E+02  0.41800000000E+01 0.  1.
        -11    1    3    3    0    0 -0.10482424021E+03  0.87629069741E+02 -0.22580153973E+03  0.26391913637E+03  0.00000000000E+00 0.  1.
         11    1    3    3    0    0  0.14595270191E+02  0.30109149865E+02 -0.21790938527E+02  0.39930286994E+02  0.00000000000E+00 0. -1.
</event>
<event>
 8    1  0.5951278E-006  0.1317832E+03  0.7561462E-02  0.1224833E+00
          3   -1    0    0  501    0  0.00000000000E+00  0.00000000000E+00  0.35309758005E+02  0.35309758005E+02  0.00000000000E+00 0. -1.
         -3   -1    0    0    0  501 -0.00000000000E+00 -0.00000000000E+00 -0.51419693493E+03  0.51419693493E+03  0.00000000000E+00 0.  1.
         23    2    1    2    0    0 -0.42615169443E+02  0.62170018619E+02 -0.31760259581E+03  0.34956907159E+03  0.12508382416E+03 0.  0.
         23    2    1    2    0    0  0.42615169443E+02 -0.62170018619E+02 -0.16128458112E+03  0.19993762135E+03  0.91000947477E+02 0.  0.
          5    1    3    3  502    0 -0.62445429739E+02 -0.16481372507E+02 -0.14725602645E+03  0.16085048045E+03  0.41800000000E+01 0.  1.
         -5    1    3    3    0  502  0.19830260296E+02  0.78651391126E+02 -0.17034656935E+03  0.18871859113E+03  0.41800000000E+01 0.  1.
        -11    1    4    4    0    0  0.29327864380E+01  0.23252873652E+02 -0.40186140043E+02  0.46521212591E+02  0.00000000000E+00 0.  1.
         11    1    4    4    0    0  0.39682383005E+02 -0.85422892271E+02 -0.12109844107E+03  0.15341640876E+03  0.00000000000E+00 0. -1.
</event>
<event>
 8    1  0.5951278E-006  0.1912552E+03  0.7561462E-02  0.1157334E+00
          1   -1    0    0  501    0  0.00000000000E+00  0.00000000000E+00  0.71379564896E+03  0.71379564896E+03  0.00000000000E+00 0. -1.
         -1   -1    0    0    0  501 -0.00000000000E+00 -0.00000000000E+00 -0.62986207639E+02  0.62986207639E+02  0.00000000000E+00 0.  1.
         23    2    1    2    0    0 -0.15935194752E+03 -0.68925657770E+02  0.24029568064E+03  0.32176554492E+03  0.12508901746E+03 0.  0.
         23    2    1    2    0    0  0.15935194752E+03  0.68925657770E+02  0.41051376068E+03  0.45501631167E+03  0.91512330863E+02 0.  0.
          5    1    3    3  502    0 -0.27272822686E+02  0.27723039007E+02  0.95518051294E+02  0.10321600783E+03  0.41800000000E+01 0.  1.
         -5    1    3    3    0  502 -0.13207912484E+03 -0.96648696777E+02  0.14477762934E+03  0.21854953710E+03  0.41800000000E+01 0.  1.
        -11    1    4    4    0    0  0.60136296064E+02  0.23206606119E+01  0.61219221792E+02  0.85846098845E+02  0.00000000000E+00 0.  1.
         11    1    4    4    0    0  0.99215651460E+02  0.66604997158E+02  0.34929453889E+03  0.36917021283E+03  0.00000000000E+00 0. -1.
</event>
<event>
 8    1  0.5951278E-006  0.1294738E+03  0.7561462E-02  0.1228239E+00
         -4   -1    0    0    0  501 -0.00000000000E+00  0.00000000000E+00  0.87766446481E+02  0.87766446481E+02  0.00000000000E+00 0. -1.
          4   -1    0    0  501    0  0.00000000000E+00 -0.00000000000E+00 -0.22775651913E+03  0.22775651913E+03  0.00000000000E+00 0.  1.
         23    2    1    2    0    0  0.36272629778E+02 -0.73899466055E+02 -0.33177875534E+02  0.15337836913E+03  0.12508923990E+03 0.  0.
         23    2    1    2    0    0 -0.36272629778E+02  0.73899466055E+02 -0.10681219711E+03  0.16214459648E+03  0.90028828492E+02 0.  0.
          5    1    3    3  502    0 -0.12458261053E+02 -0.92274177208E+02 -0.38534702121E+02  0.10085696662E+03  0.41800000000E+01 0. -1.
         -5    1    3    3    0  502  0.48730890832E+02  0.18374711152E+02  0.53568265875E+01  0.52521402516E+02  0.41800000000E+01 0. -1.
        -11    1    4    4    0    0 -0.44355525644E+02  0.55870472206E+01 -0.72739633208E+02  0.85379634522E+02  0.00000000000E+00 0.  1.
         11    1    4    4    0    0  0.80828958656E+01  0.68312418835E+02 -0.34072563905E+02  0.76764961953E+02  0.00000000000E+00 0. -1.
</event>
<event>
 7    1  0.5951278E-006  0.8847443E+02  0.7561462E-02  0.1306589E+00
          2   -1    0    0  501    0  0.00000000000E+00  0.00000000000E+00  0.36625270143E+03  0.36625270143E+03  0.00000000000E+00 0. -1.
         -2   -1    0    0    0  501 -0.00000000000E+00 -0.00000000000E+00 -0.25361901540E+02  0.25361901540E+02  0.00000000000E+00 0.  1.
         23    2    1    2    0    0 -0.15222747318E+02  0.40350925896E+02  0.21918968957E+03  0.25603209882E+03  0.12509351044E+03 0.  0.
          5    1    3    3  502    0 -0.48441989843E+02 -0.16605724236E+02  0.15739438623E+03  0.16556823873E+03  0.41800000000E+01 0. -1.
         -5    1    3    3    0  502  0.33219242525E+02  0.56956650132E+02  0.61795303335E+02  0.90463860090E+02  0.41800000000E+01 0. -1.
        -11    1    1    2    0    0 -0.11060101170E+02  0.33363709563E+00  0.18028437851E+02  0.21153291066E+02  0.00000000000E+00 0.  1.
         11    1    1    2    0    0  0.26282848488E+02 -0.40684562992E+02  0.10367267247E+03  0.11442921309E+03  0.00000000000E+00 0. -1.
</event>
<event>
 8    1  0.5951278E-006  0.1226307E+03  0.7561462E-02  0.1238819E+00
          1   -1    0    0  501    0  0.00000000000E+00  0.00000000000E+00  0.83052259383E+03  0.83052259383E+03  0.00000000000E+00 0. -1.
         -1   -1    0    0    0  501 -0.00000000000E+00 -0.00000000000E+00 -0.25085479712E+02  0.25085479712E+02  0.00000000000E+00 0.  1.
         23    2    1    2    0    0  0.81257059676E+02  0.25053854631E+01  0.34649912114E+03  0.37725055565E+03  0.12508938436E+03 0.  0.
         23    2    1    2    0    0 -0.81257059676E+02 -0.25053854631E+01  0.45893799297E+03  0.47835751789E+03  0.10767008325E+03 0.  0.
          5    1    3    3  502    0  0.26810502607E+02 -0.35844938034E+02  0.27803895141E+03  0.28165012611E+03  0.41800000000E+01 0.  1.
         -5    1    3    3    0  502  0.54446557069E+02  0.38350323498E+02  0.68460169730E+02  0.95600429541E+02  0.41800000000E+01 0.  1.
        -11    1    4    4    0    0 -0.10074067158E+03 -0.25020640985E+02  0.32603784754E+03  0.34216281711E+03  0.00000000000E+00 0. -1.
         11    1    4    4    0    0  0.19483611909E+02  0.22515255522E+02  0.13290014543E+03  0.13619470078E+03  0.00000000000E+00 0.  1.
</event>
<event>
 8    1  0.5951278E-006  0.9542929E+02  0.7561462E-02  0.1290212E+00
          2   -1    0    0  501    0  0.00000000000E+00  0.00000000000E+00  0.22640315092E+03  0.22640315092E+03  0.00000000000E+00 0. -1.
         -2   -1    0    0    0  501 -0.00000000000E+00 -0.00000000000E+00 -0.68062969527E+02  0.68062969527E+02  0.00000000000E+00 0.  1.
         23    2    1    2    0    0 -0.51231654709E+01  0.58732976793E+02  0.55706107975E+02  0.14908575688E+03  0.12509029959E+03 0.  0.
         23    2    1    2    0    0  0.51231654709E+01 -0.58732976793E+02  0.10263407342E+03  0.14538036357E+03  0.84414973176E+02 0.  0.
          5    1    3    3  502    0  0.24289244152E+02 -0.15660833775E+02  0.62203356209E+02  0.68716511987E+02  0.41800000000E+01 0. -1.
         -5    1    3    3    0  502 -0.29412409623E+02  0.74393810568E+02 -0.64972482341E+01  0.80369244897E+02  0.41800000000E+01 0. -1.
        -11    1    4    4    0    0 -0.59935305822E+01  0.10144372861E+02 -0.82423550566E+01  0.14379399378E+02  0.00000000000E+00 0.  1.
         11    1    4    4    0    0  0.11116696053E+02 -0.68877349654E+02  0.11087642848E+03  0.13100096419E+03  0.00000000000E+00 0. -1.
</event>
<event>
 7    1  0.5951278E-006  0.1256145E+03  0.7561462E-02  0.1234112E+00
         -3   -1    0    0    0  501 -0.00000000000E+00  0.00000000000E+00  0.23174878040E+03  0.23174878040E+03  0.00000000000E+00 0.  1.
          3   -1    0    0  501    0  0.00000000000E+00 -0.00000000000E+00 -0.87258889331E+02  0.87258889331E+02  0.00000000000E+00 0. -1.
         23    2    1    2    0    0 -0.28157042559E+02 -0.44322163072E+02  0.10108874778E+03  0.14739679157E+03  0.93539328898E+02 0.  0.
          5    1    1    2  502    0 -0.19015030453E+02  0.81598456525E+02  0.66519074489E+02  0.10706138034E+03  0.41800000000E+01 0. -1.
         -5    1    1    2    0  502  0.47172073013E+02 -0.37276293454E+02 -0.23117931201E+02  0.64549497821E+02  0.41800000000E+01 0.  1.
        -11    1    3    3    0    0 -0.62038206244E+02 -0.19360606992E+02  0.56948035949E+02  0.86409784953E+02  0.00000000000E+00 0. -1.
         11    1    3    3    0    0  0.33881163685E+02 -0.24961556080E+02  0.44140711832E+02  0.60987006613E+02  0.00000000000E+00 0.  1.
</event>
<event>
 8    1  0.5951278E-006  0.8613398E+02  0.7561462E-02  0.1312493E+00
         -1   -1    0    0    0  501 -0.00000000000E+00  0.00000000000E+00  0.18665668327E+03  0.18665668327E+03  0.00000000000E+00 0.  1.
          1   -1    0    0  501    0  0.00000000000E+00 -0.00000000000E+00 -0.69397615413E+02  0.69397615413E+02  0.00000000000E+00 0. -1.
         23    2    1    2    0    0 -0.30937908942E+01  0.48388073741E+01  0.10458955305E+03  0.16315239483E+03  0.12508694470E+03 0.  0.
         23    2    1    2    0    0  0.30937908942E+01 -0.48388073741E+01  0.12669514808E+02  0.92901903848E+02  0.91854567302E+02 0.  0.
          5    1    3    3  502    0  0.89762395497E+01 -0.38749125404E+02 -0.88462917386E+01  0.40960918857E+02  0.41800000000E+01 0. -1.
         -5    1    3    3    0  502 -0.12070030444E+02  0.43587932779E+02  0.11343584479E+03  0.12219147598E+03  0.41800000000E+01 0. -1.
        -11    1    4    4    0    0 -0.25120473138E+02 -0.36586098987E+02 -0.89037430386E+01  0.45264306577E+02  0.00000000000E+00 0. -1.
         11    1    4    4    0    0  0.28214264032E+02  0.31747291613E+02  0.21573257846E+02  0.47637597271E+02  0.00000000000E+00 0.  1.
</event>
<event>
 8    1  0.5951278E-006  0.1585708E+03  0.7561462E-02  0.1190320E+00
         -3   -1    0    0    0  501 -0.00000000000E+00  0.00000000000E+00  0.34941705000E+02  0.34941705000E+02  0.00000000000E+00 0.  1.
          3   -1    0    0  501    0  0.00000000000E+00 -0.00000000000E+00 -0.73412914852E+03  0.73412914852E+03  0.00000000000E+00 0. -1.
         23    2    1    2    0    0 -0.96710238892E+02 -0.64091325632E+02 -0.32850641580E+03  0.37016951340E+03  0.12509370530E+03 0.  0.
         23    2    1    2    0    0  0.96710238892E+02  0.64091325632E+02 -0.37068102773E+03  0.39890134012E+03  0.90869612652E+02 0.  0.
          5    1    3    3  502    0 -0.80193303941E+02 -0.10108457754E+03 -0.23375248150E+03  0.26703324291E+03  0.41800000000E+01 0. -1.
         -5    1    3    3    0  502 -0.16516934951E+02  0.36993251903E+02 -0.94753934294E+02  0.10313627049E+03  0.41800000000E+01 0. -1.
        -11    1    4    4    0    0  0.55184353385E+02  0.84594610071E+02 -0.24902838504E+03  0.26873164582E+03  0.00000000000E+00 0.  1.
         11    1    4    4    0    0  0.41525885507E+02 -0.20503284439E+02 -0.12165264269E+03  0.13016969430E+03  0.00000000000E+00 0. -1.
</event>
<event>
 8    1  0.5951278E-006  0.1005327E+03  0.7561462E-02  0.1279180E+00
          2   -1    0    0  501    0  0.00000000000E+00  0.00000000000E+00  0.41888770927E+02  0.41888770927E+02  0.00000000000E+00 0. -1.
         -2   -1    0    0    0  501 -0.00000000000E+00 -0.00000000000E+00 -0.70513616069E+03  0.70513616069E+03  0.00000000000E+00 0.  1.
         23    2    1    2    0    0 -0.32914680388E+02  0.28856480050E+02 -0.62497128745E+03  0.63886787945E+03  0.12508790761E+03 0.  0.
         23    2    1    2    0    0  0.32914680388E+02 -0.28856480050E+02 -0.38276102305E+02  0.10815705216E+03  0.91196575035E+02 0.  0.
          5    1    3    3  502    0  0.29150188215E+02  0.39239859505E+02 -0.45386926415E+03  0.45651317767E+03  0.41800000000E+01 0.  1.
         -5    1    3    3    0  502 -0.62064868603E+02 -0.10383379455E+02 -0.17110202331E+03  0.18235470178E+03  0.41800000000E+01 0.  1.
        -11    1    4    4    0    0  0.64612474731E+01 -0.52838611306E+02  0.33225143195E+01  0.53335782221E+02  0.00000000000E+00 0. -1.
         11    1    4    4    0    0  0.26453432915E+02  0.23982131256E+02 -0.41598616625E+02  0.54821269938E+02  0.00000000000E+00 0.  1.
</event>
<event>
 8    1  0.5951278E-006  0.1190219E+03  0.7561462E-02  0.1244719E+00
         -2   -1    0    0    0  501 -0.00000000000E+00  0.00000000000E+00  0.15781649809E+03  0.15781649809E+03  0.00000000000E+00 0. -1.
          2   -1    0    0  501    0  0.00000000000E+00 -0.00000000000E+00 -0.18649093767E+03  0.18649093767E+03  0.00000000000E+00 0.  1.
         23    2    1    2    0    0  0.70338608305E+02  0.25936416680E+02  0.94929636175E+02  0.17401316207E+03  0.12509487288E+03 0.  0.
         23    2    1    2    0    0 -0.70338608305E+02 -0.25936416680E+02 -0.12360407575E+03  0.17029427368E+03  0.90010858111E+02 0.  0.
          5    1    3    3  502    0  0.98331498707E+02  0.27295118609E+02  0.10248382392E+03  0.14468764185E+03  0.41800000000E+01 0. -1.
         -5    1    3    3    0  502 -0.27992890402E+02 -0.13587019287E+01 -0.75541877461E+01  0.29325520225E+02  0.41800000000E+01 0. -1.
        -11    1    4    4    0    0 -0.17400552209E+02 -0.47366547929E+02 -0.24928851106E+02  0.56283360750E+02  0.00000000000E+00 0. -1.
         11    1    4    4    0    0 -0.52938056096E+02  0.21430131249E+02 -0.98675224647E+02  0.11401091293E+03  0.00000000000E+00 0.  1.
</event>
<event>
 8    1  0.5951278E-006  0.1216984E+03  0.7561462E-02  0.1240321E+00
         -2   -1    0    0    0  501 -0.00000000000E+00  0.00000000000E+00  0.31159736726E+02  0.31159736726E+02  0.00000000000E+00 0.  1.
          2   -1    0    0  501    0  0.00000000000E+00 -0.00000000000E+00 -0.55702381117E+03  0.55702381117E+03  0.00000000000E+00 0. -1.
         23    2    1    2    0    0  0.27190756265E+02  0.68246679566E+02 -0.28121752018E+03  0.31642939398E+03  0.12508925301E+03 0.  0.
         23    2    1    2    0    0 -0.27190756265E+02 -0.68246679566E+02 -0.24464655426E+03  0.27175415391E+03  0.92743933285E+02 0.  0.
          5    1    3    3  502    0  0.64625986805E+02  0.28841129194E+02 -0.75310733101E+02  0.10342875724E+03  0.41800000000E+01 0. -1.
         -5    1    3    3    0  502 -0.37435230540E+02  0.39405550372E+02 -0.20590678708E+03  0.21300063674E+03  0.41800000000E+01 0. -1.
        -11    1    4    4    0    0 -0.51069190660E+02 -0.77137679973E+02 -0.18315779144E+03  0.20519517653E+03  0.00000000000E+00 0.  1.
         11    1    4    4    0    0  0.23878434395E+02  0.88910004070E+01 -0.61488762816E+02  0.66558977382E+02  0.00000000000E+00 0. -1.
</event>
<event>
 8    1  0.5951278E-006  0.9525938E+02  0.7561462E-02  0.1290593E+00
         -2   -1    0    0    0  501 -0.00000000000E+00  0.00000000000E+00  0.21825143199E+03  0.21825143199E+03  0.00000000000E+00 0.  1.
          2   -1    0    0  501    0  0.00000000000E+00 -0.00000000000E+00 -0.61075445334E+02  0.61075445334E+02  0.00000000000E+00 0. -1.
         23    2    1    2    0    0 -0.33996868500E+01  0.18926624392E+02  0.13343862798E+03  0.18391096178E+03  0.12509036511E+03 0.  0.
         23    2    1    2    0    0  0.33996868500E+01 -0.18926624392E+02  0.23737358678E+02  0.95415915544E+02  0.90393361264E+02 0.  0.
          5    1    3    3  502    0  0.13989943936E+02  0.70462017625E+02  0.73326865734E+02  0.10273712132E+03  0.41800000000E+01 0. -1.
         -5    1    3    3    0  502 -0.17389630786E+02 -0.51535393233E+02  0.60111762246E+02  0.81173840459E+02  0.41800000000E+01 0. -1.
        -11    1    4    4    0    0 -0.11346588711E+02  0.19660849673E+02 -0.23493627177E+02  0.32668709849E+02  0.00000000000E+00 0. -1.
         11    1    4    4    0    0  0.14746275561E+02 -0.38587474066E+02  0.47230985855E+02  0.62747205695E+02  0.00000000000E+00 0.  1.
</event>
<event>
 8    1  0.5951278E-006  0.9518964E+02  0.7561462E-02  0.1290750E+00
          2   -1    0    0  501    0  0.00000000000E+00  0.00000000000E+00  0.36381717250E+03  0.36381717250E+03  0.00000000000E+00 0. -1.
         -2   -1    0    0    0  501 -0.00000000000E+00 -0.00000000000E+00 -0.44885607328E+02  0.44885607328E+02  0.00000000000E+00 0.  1.
         23    2    1    2    0    0  0.92781954944E+01 -0.26442767134E+01  0.69455954856E+02  0.14339978687E+03  0.12508513940E+03 0.  0.
         23    2    1    2    0    0 -0.92781954944E+01  0.26442767134E+01  0.24947561032E+03  0.26530299296E+03  0.89746982228E+02 0.  0.
          5    1    3    3  502    0  0.52601128861E+02 -0.22623585758E+02  0.75802389266E+02  0.95090378107E+02  0.41800000000E+01 0.  1.
         -5    1    3    3    0  502 -0.43322933367E+02  0.19979309045E+02 -0.63464344101E+01  0.48309408764E+02  0.41800000000E+01 0.  1.
        -11    1    4    4    0    0  0.11087404662E+02 -0.38016498474E+02  0.72855626473E+02  0.82922415590E+02  0.00000000000E+00 0.  1.
         11    1    4    4    0    0 -0.20365600157E+02  0.40660775188E+02  0.17661998384E+03  0.18238057737E+03  0.00000000000E+00 0. -1.
</event>
<event>
 8    1  0.5951278E-006  0.8962551E+02  0.7561462E-02  0.1303761E+00
          1   -1    0    0  501    0  0.00000000000E+00  0.00000000000E+00  0.45589666510E+03  0.45589666510E+03  0.00000000000E+00 0. -1.
         -1   -1    0    0    0  501 -0.00000000000E+00 -0.00000000000E+00 -0.31570611967E+02  0.31570611967E+02  0.00000000000E+00 0.  1.
         23    2    1    2    0    0  0.36481040257E+02  0.23363055448E+02  0.17504002640E+03  0.21946092413E+03  0.12508951881E+03 0.  0.
         23    2    1    2    0    0 -0.36481040257E+02 -0.23363055448E+02  0.24928602672E+03  0.26800635294E+03  0.88358267499E+02 0.  0.
          5    1    3    3  502    0 -0.26361101906E+02  0.14488399776E+02  0.14673334620E+03  0.14984314702E+03  0.41800000000E+01 0.  1.
         -5    1    3    3    0  502  0.62842142163E+02  0.88746556723E+01  0.28306680200E+02  0.69617777104E+02  0.41800000000E+01 0.  1.
        -11    1    4    4    0    0 -0.37002476136E+01 -0.45546876614E+02  0.64614886322E+02  0.79140971286E+02  0.00000000000E+00 0.  1.
         11    1    4    4    0    0 -0.32780792643E+02  0.22183821167E+02  0.18467114040E+03  0.18886538165E+03  0.00000000000E+00 0. -1.
</event>
<event>
 8    1  0.5951278E-006  0.1177716E+03  0.7561462E-02  0.1246819E+00
         -1   -1    0    0    0  501 -0.00000000000E+00  0.00000000000E+00  0.13175974875E+03  0.13175974875E+03  0.00000000000E+00 0.  1.
          1   -1    0    0  501    0  0.00000000000E+00 -0.00000000000E+00 -0.16326584688E+03  0.16326584688E+03  0.00000000000E+00 0. -1.
         23    2    1    2    0    0  0.63050942313E+02  0.75647838848E+02 -0.18438897112E+02  0.16027752689E+03  0.12510346059E+03 0.  0.
         23    2    1    2    0    0 -0.63050942313E+02 -0.75647838848E+02 -0.13067201015E+02  0.13474806874E+03  0.91039955168E+02 0.  0.
          5    1    3    3  502    0  0.83751574147E+02  0.72071314215E+02  0.23631299803E+02  0.11306861295E+03  0.41800000000E+01 0.  1.
         -5    1    3    3    0  502 -0.20700631834E+02  0.35765246326E+01 -0.42070196915E+02  0.47208913938E+02  0.41800000000E+01 0.  1.
        -11    1    4    4    0    0 -0.39657702923E+02 -0.22766600329E+02 -0.48717990274E+02  0.66816869636E+02  0.00000000000E+00 0. -1.
         11    1    4    4    0    0 -0.23393239390E+02 -0.52881238519E+02  0.35650789258E+02  0.67931199101E+02  0.00000000000E+00 0.  1.
</event>
<event>
 8    1  0.5951278E-006  0.9938545E+02  0.7561462E-02  0.1281594E+00
          2   -1    0    0  501    0  0.00000000000E+00  0.00000000000E+00  0.14824086508E+03  0.14824086508E+03  0.00000000000E+00 0.  1.
         -2   -1    0    0    0  501 -0.00000000000E+00 -0.00000000000E+00 -0.86620930962E+02  0.86620930962E+02  0.00000000000E+00 0. -1.
         23    2    1    2    0    0 -0.32510360815E+02  0.54590254572E+01  0.29419103681E+02  0.13267002122E+03  0.12509646818E+03 0.  0.
         23    2    1    2    0    0  0.32510360815E+02 -0.54590254572E+01  0.32200830436E+02  0.10219177482E+03  0.91211517039E+02 0.  0.
          5    1    3    3  502    0  0.10790127094E+02  0.43640528949E+02 -0.26364901483E+02  0.52282913460E+02  0.41800000000E+01 0.  1.
         -5    1    3    3    0  502 -0.43300487910E+02 -0.38181503492E+02  0.55784005164E+02  0.80387107761E+02  0.41800000000E+01 0.  1.
        -11    1    4    4    0    0  0.61905702424E+02  0.97101149548E+01  0.13177414188E+02  0.64033167731E+02  0.00000000000E+00 0. -1.
         11    1    4    4    0    0 -0.29395341608E+02 -0.15169140412E+02  0.19023416248E+02  0.38158607087E+02  0.00000000000E+00 0.  1.
</event>
<event>
 8    1  0.5951278E-006  0.1540657E+03  0.7561462E-02  0.1195564E+00
          2   -1    0    0  501    0  0.00000000000E+00  0.00000000000E+00  0.22215854458E+03  0.22215854458E+03  0.00000000000E+00 0. -1.
         -2   -1    0    0    0  501 -0.00000000000E+00 -0.00000000000E+00 -0.16034269336E+03  0.16034269336E+03  0.00000000000E+00 0.  1.
         23    2    1    2    0    0 -0.11710881763E+03 -0.53619108058E+02 -0.53430816636E+02  0.18732668694E+03  0.12508777542E+03 0.  0.
         23    2    1    2    0    0  0.11710881763E+03  0.53619108058E+02  0.11524666786E+03  0.19517455099E+03  0.90674290654E+02 0.  0.
          5    1    3    3  502    0 -0.31157982102E+02  0.35035217233E+02 -0.42284145943E+02  0.63274858304E+02  0.41800000000E+01 0. -1.
         -5    1    3    3    0  502 -0.85950835531E+02 -0.88654325291E+02 -0.11146670693E+02  0.12405182864E+03  0.41800000000E+01 0. -1.
        -11    1    4    4    0    0  0.47929341604E+02 -0.31306647257E+01 -0.15332452514E+01  0.48055943328E+02  0.00000000000E+00 0.  1.
         11    1    4    4    0    0  0.69179476030E+02  0.56749772784E+02  0.11677991311E+03  0.14711860766E+03  0.00000000000E+00 0. -1.
</event>
<event>
 8    1  0.5951278E-006  0.1234906E+03  0.7561462E-02  0.1237447E+00
          1   -1    0    0  501    0  0.00000000000E+00  0.00000000000E+00  0.13140938830E+03  0.13140938830E+03  0.00000000000E+00 0. -1.
         -1   -1    0    0    0  501 -0.00000000000E+00 -0.00000000000E+00 -0.16469226740E+03  0.16469226740E+03  0.00000000000E+00 0.  1.
         23    2    1    2    0    0 -0.79210791375E+02  0.42792468470E+02 -0.63417824507E+02  0.16666197544E+03  0.12509535868E+03 0.  0.
         23    2    1    2    0    0  0.79210791375E+02 -0.42792468470E+02  0.30134945410E+02  0.12943968027E+03  0.87982788463E+02 0.  0.
          5    1    3    3  502    0  0.34094841491E+02  0.57604265058E+01 -0.15396408605E+02  0.38080999563E+02  0.41800000000E+01 0. -1.
         -5    1    3    3    0  502 -0.11330563287E+03  0.37032041964E+02 -0.48021415902E+02  0.12858097587E+03  0.41800000000E+01 0. -1.
        -11    1    4    4    0    0  0.31206597209E+02 -0.46280419675E+01 -0.30010587841E+02  0.43542001153E+02  0.00000000000E+00 0.  1.
         11    1    4    4    0    0  0.48004194166E+02 -0.38164426502E+02  0.60145533251E+02  0.85897679118E+02  0.00000000000E+00 0. -1.
</event>
<event>
 8    1  0.5951278E-006  0.1110444E+03  0.7561462E-02  0.1258648E+00
         -1   -1    0    0    0  501 -0.00000000000E+00  0.00000000000E+00  0.36158696144E+03  0.36158696144E+03  0.00000000000E+00 0.  1.
          1   -1    0    0  501    0  0.00000000000E+00 -0.00000000000E+00 -0.77984439950E+02  0.77984439950E+02  0.00000000000E+00 0. -1.
         23    2    1    2    0    0  0.22987257374E+02  0.88574446930E+02  0.26753776420E+03  0.30919210753E+03  0.12509779147E+03 0.  0.
         23    2    1    2    0    0 -0.22987257374E+02 -0.88574446930E+02  0.16064757290E+02  0.13037929387E+03  0.91470417033E+02 0.  0.
          5    1    3    3  502    0  0.46125026822E+02  0.77072859169E+02  0.26834057785E+03  0.28300509155E+03  0.41800000000E+01 0.  1.
         -5    1    3    3    0  502 -0.23137769448E+02  0.11501587761E+02 -0.80281364999E+00  0.26187015978E+02  0.41800000000E+01 0.  1.
        -11    1    4    4    0    0  0.12044185209E+02 -0.58800782736E+02 -0.28416529456E+02  0.66408535551E+02  0.00000000000E+00 0. -1.
         11    1    4    4    0    0 -0.35031442583E+02 -0.29773664194E+02  0.44481286746E+02  0.63970758316E+02  0.00000000000E+00 0.  1.
</event>
<event>
 7    1  0.5951278E-006  0.8651902E+02  0.7561462E-02  0.1311507E+00
          4   -1    0    0  501    0  0.00000000000E+00  0.00000000000E+00  0.34009227103E+03  0.34009227103E+03  0.00000000000E+00 0. -1.
         -4   -1    0    0    0  501 -0.00000000000E+00 -0.00000000000E+00 -0.38533319963E+02  0.38533319963E+02  0.00000000000E+00 0.  1.
         23    2    1    2    0    0  0.35116893539E+00 -0.30434563770E+02  0.16421245692E+03  0.18781187273E+03  0.85913808779E+02 0.  0.
          5    1    1    2  502    0 -0.47295696297E+02 -0.14083427436E+02  0.13997341556E+02  0.51464782009E+02  0.41800000000E+01 0. -1.
         -5    1    1    2    0  502  0.46944527362E+02  0.44517991206E+02  0.12334915259E+03  0.13934893625E+03  0.41800000000E+01 0.  1.
        -11    1    3    3    0    0 -0.24891092556E+02 -0.16272926359E+02  0.10715681629E+02  0.31610132137E+02  0.00000000000E+00 0.  1.
         11    1    3    3    0    0  0.25242261491E+02 -0.14161637410E+02  0.15349677529E+03  0.15620174059E+03  0.00000000000E+00 0. -1.
</event>
<event>
 8    1  0.5951278E-006  0.1586950E+03  0.7561462E-02  0.1190178E+00
          2   -1    0    0  501    0  0.00000000000E+00  0.00000000000E+00  0.49134705967E+03  0.49134705967E+03  0.00000000000E+00 0. -1.
         -2   -1    0    0    0  501 -0.00000000000E+00 -0.00000000000E+00 -0.61940692613E+02  0.61940692613E+02  0.00000000000E+00 0.  1.
         23    2    1    2    0    0 -0.10204393309E+03  0.88893664834E+02  0.19635834473E+03  0.26929443837E+03  0.12509135488E+03 0.  0.
         23    2    1    2    0    0  0.10204393309E+03 -0.88893664834E+02  0.23304802233E+03  0.28399331391E+03  0.89586682659E+02 0.  0.
          5    1    3    3  502    0  0.17416659799E+02  0.38968101413E+02  0.96931359030E+02  0.10599534768E+03  0.41800000000E+01 0. -1.
         -5    1    3    3    0  502 -0.11946059289E+03  0.49925563421E+02  0.99426985703E+02  0.16329909069E+03  0.41800000000E+01 0. -1.
        -11    1    4    4    0    0  0.10391407671E+03 -0.68450451208E+02  0.13410022271E+03  0.18293843047E+03  0.00000000000E+00 0.  1.
         11    1    4    4    0    0 -0.18701436239E+01 -0.20443213626E+02  0.98947799613E+02  0.10105488345E+03  0.00000000000E+00 0. -1.
</event>
<event>
 8    1  0.5951278E-006  0.9703626E+02  0.7561462E-02  0.1286655E+00
          2   -1    0    0  501    0  0.00000000000E+00  0.00000000000E+00  0.17765730829E+03  0.17765730829E+03  0.00000000000E+00 0. -1.
         -2   -1    0    0    0  501 -0.00000000000E+00 -0.00000000000E+00 -0.97036222110E+02  0.97036222110E+02  0.00000000000E+00 0.  1.
         23    2    1    2    0    0 -0.16915501189E+02 -0.64280079732E+02  0.11174287797E+02  0.14209344353E+03  0.12509044390E+03 0.  0.
         23    2    1    2    0    0  0.16915501189E+02  0.64280079732E+02  0.69446798386E+02  0.13260008687E+03  0.91333796601E+02 0.  0.
          5    1    3    3  502    0 -0.32373420785E+02 -0.28559351153E+01  0.55653971549E+02  0.64583524895E+02  0.41800000000E+01 0.  1.
         -5    1    3    3    0  502  0.15457919597E+02 -0.61424144616E+02 -0.44479683752E+02  0.77509918635E+02  0.41800000000E+01 0.  1.
        -11    1    4    4    0    0  0.32455963973E+02  0.79145259037E+00 -0.57451920224E+01  0.32970035274E+02  0.00000000000E+00 0.  1.
         11    1    4    4    0    0 -0.15540462784E+02  0.63488627141E+02  0.75191990409E+02  0.99630051598E+02  0.00000000000E+00 0. -1.
</event>
<event>
 8    1  0.5951278E-006  0.1147703E+03  0.7561462E-02  0.1251983E+00
         -4   -1    0    0    0  501 -0.00000000000E+00  0.00000000000E+00  0.77917642794E+02  0.77917642794E+02  0.00000000000E+00 0.  1.
          4   -1    0    0  501    0  0.00000000000E+00 -0.00000000000E+00 -0.37286722441E+03  0.37286722441E+03  0.00000000000E+00 0. -1.
         23    2    1    2    0    0 -0.86525907604E+01  0.74291970173E+02 -0.14103788883E+02  0.14644737084E+03  0.12511495277E+03 0.  0.
         23    2    1    2    0    0  0.86525907604E+01 -0.74291970173E+02 -0.28084579274E+03  0.30433749636E+03  0.90292791715E+02 0.  0.
          5    1    3    3  502    0 -0.26936151903E+02 -0.76276715891E+01  0.38137617180E+02  0.47494082762E+02  0.41800000000E+01 0.  1.
         -5    1    3    3    0  502  0.18283561143E+02  0.81919641762E+02 -0.52241406063E+02  0.98953288081E+02  0.41800000000E+01 0.  1.
        -11    1    4    4    0    0  0.10685567223E+02  0.20109600291E+02 -0.51072073615E+02  0.55918995647E+02  0.00000000000E+00 0.  1.
         11    1    4    4    0    0 -0.20329764630E+01 -0.94401570465E+02 -0.22977371912E+03  0.24841850072E+03  0.00000000000E+00 0. -1.
</event>
<event>
 7    1  0.5951278E-006  0.1550401E+03  0.7561462E-02  0.1194413E+00
         -1   -1    0    0    0  501 -0.00000000000E+00  0.00000000000E+00  0.23003935999E+02  0.23003935999E+02  0.00000000000E+00 0.  1.
          1   -1    0    0  501    0  0.00000000000E+00 -0.00000000000E+00 -0.11952857681E+04  0.11952857681E+04  0.00000000000E+00 0. -1.
         23    2    1    2    0    0  0.53924053034E+02 -0.86210763621E+02 -0.68380196557E+03  0.69669516873E+03  0.86365101480E+02 0.  0.
          5    1    1    2  502    0 -0.10385784912E+03  0.65557229489E+02 -0.27266663619E+03  0.29907987237E+03  0.41800000000E+01 0. -1.
         -5    1    1    2    0  502  0.49933796082E+02  0.20653534132E+02 -0.21581323038E+03  0.22251466304E+03  0.41800000000E+01 0.  1.
        -11    1    3    3    0    0  0.72977071228E+02 -0.40479935441E+02 -0.40183313658E+03  0.41040729495E+03  0.00000000000E+00 0.  1.
         11    1    3    3    0    0 -0.19053018195E+02 -0.45730828180E+02 -0.28196882899E+03  0.28628787378E+03  0.00000000000E+00 0. -1.
</event>
<event>
 8    1  0.5951278E-006  0.1471883E+03  0.7561462E-02  0.1203971E+00
         -4   -1    0    0    0  501 -0.00000000000E+00  0.00000000000E+00  0.23108208969E+03  0.23108208969E+03  0.00000000000E+00 0. -1.
          4   -1    0    0  501    0  0.00000000000E+00 -0.00000000000E+00 -0.17041523620E+03  0.17041523620E+03  0.00000000000E+00 0.  1.
         23    2    1    2    0    0 -0.13167444386E+03 -0.16757899578E+02  0.12474411125E+03  0.22094039260E+03  0.12503830384E+03 0.  0.
         23    2    1    2    0    0  0.13167444386E+03  0.16757899578E+02 -0.64077257755E+02  0.18055693329E+03  0.10428770222E+03 0.  0.
          5    1    3    3  502    0 -0.69165803916E+02 -0.55304628659E+01  0.13927330623E+03  0.15565673991E+03  0.41800000000E+01 0. -1.
         -5    1    3    3    0  502 -0.62508639940E+02 -0.11227436712E+02 -0.14529194979E+02  0.65283652694E+02  0.41800000000E+01 0. -1.
        -11    1    4    4    0    0 -0.13522219458E+02 -0.49656268078E+01 -0.24636209903E+02  0.28538582779E+02  0.00000000000E+00 0.  1.
         11    1    4    4    0    0  0.14519666331E+03  0.21723526385E+02 -0.39441047852E+02  0.15201835051E+03  0.00000000000E+00 0. -1.
</event>
<event>
 8    1  0.5951278E-006  0.1068616E+03  0.7561462E-02  0.1266495E+00
         -2   -1    0    0    0  501 -0.00000000000E+00  0.00000000000E+00  0.31264912894E+02  0.31264912894E+02  0.00000000000E+00 0.  1.
          2   -1    0    0  501    0  0.00000000000E+00 -0.00000000000E+00 -0.51437448592E+03  0.51437448592E+03  0.00000000000E+00 0. -1.
         23    2    1    2    0    0 -0.44379303997E+02  0.41320702653E+02 -0.23046958248E+03  0.26914714292E+03  0.12508810097E+03 0.  0.
         23    2    1    2    0    0  0.44379303997E+02 -0.41320702653E+02 -0.25263999055E+03  0.27649225589E+03  0.94573144463E+02 0.  0.
          5    1    3    3  502    0 -0.79821273342E+02  0.55742571749E+02 -0.13755285748E+03  0.16857322143E+03  0.41800000000E+01 0.  1.
         -5    1    3    3    0  502  0.35441969345E+02 -0.14421869096E+02 -0.92916725000E+02  0.10057392149E+03  0.41800000000E+01 0.  1.
        -11    1    4    4    0    0 -0.10088279409E+02 -0.12527547785E+01  0.41267193827E+01  0.10971444246E+02  0.00000000000E+00 0.  1.
         11    1    4    4    0    0  0.54467583406E+02 -0.40067947874E+02 -0.25676670993E+03  0.26552081165E+03  0.00000000000E+00 0. -1.
</event>
<event>
 8    1  0.5951278E-006  0.1049459E+03  0.7561462E-02  0.1270226E+00
         -1   -1    0    0    0  501 -0.00000000000E+00  0.00000000000E+00  0.33605286272E+03  0.33605286272E+03  0.00000000000E+00 0.  1.
          1   -1    0    0  501    0  0.00000000000E+00 -0.00000000000E+00 -0.39814384154E+02  0.39814384154E+02  0.00000000000E+00 0. -1.
         23    2    1    2    0    0 -0.14819685634E+02 -0.63844576706E+01  0.22957363800E+03  0.26193964407E+03  0.12509171630E+03 0.  0.
         23    2    1    2    0    0  0.14819685634E+02  0.63844576706E+01  0.66664840567E+02  0.11392760281E+03  0.90966550622E+02 0.  0.
          5    1    3    3  502    0 -0.29330929701E+02 -0.61821689025E+02  0.11926799094E+03  0.13756653203E+03  0.41800000000E+01 0.  1.
         -5    1    3    3    0  502  0.14511244067E+02  0.55437231355E+02  0.11030564706E+03  0.12437311204E+03  0.41800000000E+01 0.  1.
        -11    1    4    4    0    0 -0.24389871510E+02  0.29568247607E+02  0.54769096797E+02  0.66849091712E+02  0.00000000000E+00 0.  1.
         11    1    4    4    0    0  0.39209557144E+02 -0.23183789936E+02  0.11895743771E+02  0.47078511097E+02  0.00000000000E+00 0. -1.
</event>
<event>
 8    1  0.5951278E-006  0.1095263E+03  0.7561462E-02  0.1261450E+00
          2   -1    0    0  501    0  0.00000000000E+00  0.00000000000E+00  0.55548998217E+03  0.55548998217E+03  0.00000000000E+00 0. -1.
         -2   -1    0    0    0  501 -0.00000000000E+00 -0.00000000000E+00 -0.88330546813E+02  0.88330546813E+02  0.00000000000E+00 0.  1.
         23    2    1    2    0    0  0.48738714403E+02 -0.39735579279E+01 -0.28716072561E+02  0.13735637242E+03  0.12510359218E+03 0.  0.
         23    2    1    2    0    0 -0.48738714403E+02  0.39735579279E+01  0.49587550792E+03  0.50646415657E+03  0.90676188097E+02 0.  0.
          5    1    3    3  502    0  0.71805211387E+02 -0.33325243766E+02  0.13972239294E+02  0.80493826628E+02  0.41800000000E+01 0.  1.
         -5    1    3    3    0  502 -0.23066496984E+02  0.29351685838E+02 -0.42688311855E+02  0.56862545790E+02  0.41800000000E+01 0.  1.
        -11    1    4    4    0    0  0.14196936595E+01  0.40275078560E+02  0.16543337647E+03  0.17027125281E+03  0.00000000000E+00 0. -1.
         11    1    4    4    0    0 -0.50158408062E+02 -0.36301520632E+02  0.33044213145E+03  0.33619290376E+03  0.00000000000E+00 0.  1.
</event>
<event>
 8    1  0.5951278E-006  0.1104469E+03  0.7561462E-02  0.1259745E+00
          4   -1    0    0  501    0  0.00000000000E+00  0.00000000000E+00  0.10941283172E+03  0.10941283172E+03  0.00000000000E+00 0. -1.
         -4   -1    0    0    0  501 -0.00000000000E+00 -0.00000000000E+00 -0.18355223406E+03  0.18355223406E+03  0.00000000000E+00 0.  1.
         23    2    1    2    0    0  0.30603159240E+02  0.26852037133E+02 -0.12447930848E+03  0.18110595096E+03  0.12508669786E+03 0.  0.
         23    2    1    2    0    0 -0.30603159240E+02 -0.26852037133E+02  0.50339906145E+02  0.11185911482E+03  0.91218255646E+02 0.  0.
          5    1    3    3  502    0  0.66497565872E+02 -0.12571503267E+02 -0.33634471759E+02  0.75688301949E+02  0.41800000000E+01 0.  1.
         -5    1    3    3    0  502 -0.35894406632E+02  0.39423540401E+02 -0.90844836720E+02  0.10541764901E+03  0.41800000000E+01 0.  1.
        -11    1    4    4    0    0  0.13799029622E+02 -0.48347304094E+02  0.29608672029E+02  0.58348508901E+02  0.00000000000E+00 0. -1.
         11    1    4    4    0    0 -0.44402188862E+02  0.21495266960E+02  0.20731234117E+02  0.53510605916E+02  0.00000000000E+00 0.  1.
</event>
<event>
 8    1  0.5951278E-006  0.9541505E+02  0.7561462E-02  0.1290244E+00
         -2   -1    0    0    0  501 -0.00000000000E+00  0.00000000000E+00  0.15192849014E+03  0.15192849014E+03  0.00000000000E+00 0. -1.
          2   -1    0    0  501    0  0.00000000000E+00 -0.00000000000E+00 -0.86438141466E+02  0.86438141466E+02  0.00000000000E+00 0.  1.
         23    2    1    2    0    0  0.94236171169E+01 -0.11687264878E+00  0.75502002625E+02  0.14641356912E+03  0.12509021785E+03 0.  0.
         23    2    1    2    0    0 -0.94236171169E+01  0.11687264878E+00 -0.10011653953E+02  0.91953062490E+02  0.90919273356E+02 0.  0.
          5    1    3    3  502    0  0.57372958232E+01  0.62337717885E+02  0.38106489363E+02  0.73406297864E+02  0.41800000000E+01 0.  1.
         -5    1    3    3    0  502  0.36863212937E+01 -0.62454590534E+02  0.37395513262E+02  0.73007271251E+02  0.41800000000E+01 0.  1.
        -11    1    4    4    0    0  0.44419574629E+01  0.31114157783E+02  0.27208181764E+02  0.41570505837E+02  0.00000000000E+00 0. -1.
         11    1    4    4    0    0 -0.13865574580E+02 -0.30997285134E+02 -0.37219835717E+02  0.50382556653E+02  0.00000000000E+00 0.  1.
</event>
<event>
 8    1  0.5951278E-006  0.1304729E+03  0.7561462E-02  0.1226756E+00
         -2   -1    0    0    0  501 -0.00000000000E+00  0.00000000000E+00  0.20239041611E+02  0.20239041611E+02  0.00000000000E+00 0.  1.
          2   -1    0    0  501    0  0.00000000000E+00 -0.00000000000E+00 -0.95508301272E+03  0.95508301272E+03  0.00000000000E+00 0. -1.
         23    2    1    2    0    0  0.72003242901E+02  0.37656525040E+02 -0.47581831199E+03  0.49865130161E+03  0.12509026223E+03 0.  0.
         23    2    1    2    0    0 -0.72003242901E+02 -0.37656525040E+02 -0.45902565912E+03  0.47667075273E+03  0.99538785931E+02 0.  0.
          5    1    3    3  502    0  0.91908190916E+01  0.66467280674E+02 -0.13431303664E+03  0.15019931680E+03  0.41800000000E+01 0.  1.
         -5    1    3    3    0  502  0.62812423809E+02 -0.28810755634E+02 -0.34150527535E+03  0.34845198480E+03  0.41800000000E+01 0.  1.
        -11    1    4    4    0    0 -0.44346166504E+02 -0.69415360969E+02 -0.24308915633E+03  0.25666595557E+03  0.00000000000E+00 0.  1.
         11    1    4    4    0    0 -0.27657076396E+02  0.31758835928E+02 -0.21593650279E+03  0.22000479716E+03  0.00000000000E+00 0. -1.
</event>
<event>
 8    1  0.5951278E-006  0.1647056E+03  0.7561462E-02  0.1183484E+00
         -1   -1    0    0    0  501 -0.00000000000E+00  0.00000000000E+00  0.39412287147E+02  0.39412287147E+02  0.00000000000E+00 0.  1.
          1   -1    0    0  501    0  0.00000000000E+00 -0.00000000000E+00 -0.80384066051E+03  0.80384066051E+03  0.00000000000E+00 0. -1.
         23    2    1    2    0    0  0.97873887731E+02  0.83260334255E+02 -0.27048505197E+03  0.32467530595E+03  0.12546039134E+03 0.  0.
         23    2    1    2    0    0 -0.97873887731E+02 -0.83260334255E+02 -0.49394332139E+03  0.51857764170E+03  0.91821482055E+02 0.  0.
          5    1    3    3  502    0 -0.19261981078E+02  0.46725947357E+02 -0.12125509249E+03  0.13143290275E+03  0.41800000000E+01 0. -1.
         -5    1    3    3    0  502  0.11713586881E+03  0.36534386898E+02 -0.14922995948E+03  0.19324240320E+03  0.41800000000E+01 0. -1.
        -11    1    4    4    0    0  0.16641325761E+02 -0.16177344700E+02 -0.48210161306E+02  0.53505699302E+02  0.00000000000E+00 0. -1.
         11    1    4    4    0    0 -0.11451521349E+03 -0.67082989555E+02 -0.44573316008E+03  0.46507194240E+03  0.00000000000E+00 0.  1.
</event>
<event>
 8    1  0.5951278E-006  0.1471820E+03  0.7561462E-02  0.1203979E+00
          1   -1    0    0  501    0  0.00000000000E+00  0.00000000000E+00  0.31990712760E+03  0.31990712760E+03  0.00000000000E+00 0. -1.
         -1   -1    0    0    0  501 -0.00000000000E+00 -0.00000000000E+00 -0.98972562617E+02  0.98972562617E+02  0.00000000000E+00 0.  1.
         23    2    1    2    0    0  0.37943592064E+02 -0.97176326332E+02  0.28299794608E+01  0.16291117788E+03  0.12509631696E+03 0.  0.
         23    2    1    2    0    0 -0.37943592064E+02  0.97176326332E+02  0.21810458552E+03  0.25596851234E+03  0.84067321267E+02 0.  0.
          5    1    3    3  502    0 -0.37091724701E+02 -0.75752833884E+02  0.63347569974E+01  0.84687008620E+02  0.41800000000E+01 0. -1.
         -5    1    3    3    0  502  0.75035316766E+02 -0.21423492448E+02 -0.35047775365E+01  0.78224169260E+02  0.41800000000E+01 0. -1.
        -11    1    4    4    0    0  0.23564919845E+02  0.11292770064E+02  0.26771872085E+02  0.37410763664E+02  0.00000000000E+00 0.  1.
         11    1    4    4    0    0 -0.61508511909E+02  0.85883556268E+02  0.19133271344E+03  0.21855774867E+03  0.00000000000E+00 0. -1.
</event>
<event>
 8    1  0.5951278E-006  0.2228288E+03  0.7561462E-02  0.1131791E+00
          1   -1    0    0  501    0  0.00000000000E+00  0.00000000000E+00  0.39112839418E+03  0.39112839418E+03  0.00000000000E+00 0. -1.
         -1   -1    0    0    0  501 -0.00000000000E+00 -0.00000000000E+00 -0.17192731746E+03  0.17192731746E+03  0.00000000000E+00 0.  1.
         23    2    1    2    0    0  0.33172785362E+01  0.20261704154E+03 -0.17508489266E+02  0.23877928031E+03  0.12507728671E+03 0.  0.
         23    2    1    2    0    0 -0.33172785362E+01 -0.20261704154E+03  0.23670956599E+03  0.32427643134E+03  0.89772576178E+02 0.  0.
          5    1    3    3  502    0 -0.42851227771E+02  0.14891698210E+03 -0.46951627558E+02  0.16197043869E+03  0.41800000000E+01 0.  1.
         -5    1    3    3    0  502  0.46168506307E+02  0.53700059435E+02  0.29443138292E+02  0.76808841616E+02  0.41800000000E+01 0.  1.
        -11    1    4    4    0    0 -0.42816003045E+02 -0.78074437007E+02  0.75309840543E+02  0.11662075250E+03  0.00000000000E+00 0.  1.
         11    1    4    4    0    0  0.39498724509E+02 -0.12454260453E+03  0.16139972544E+03  0.20765567884E+03  0.00000000000E+00 0. -1.
</event>
<event>
 7    1  0.5951278E-006  0.1271066E+03  0.7561462E-02  0.1231813E+00
         -1   -1    0    0    0  501 -0.00000000000E+00  0.00000000000E+00  0.22917965283E+02  0.22917965283E+02  0.00000000000E+00 0.  1.
          1   -1    0    0  501    0  0.00000000000E+00 -0.00000000000E+00 -0.10662253058E+04  0.10662253058E+04  0.00000000000E+00 0. -1.
         23    2    1    2    0    0 -0.61670161264E+02 -0.69005681997E+02 -0.42454526981E+03  0.44396786339E+03  0.91125104472E+02 0.  0.
          5    1    1    2  502    0  0.10375271831E+03  0.49914403263E+02 -0.27301392303E+03  0.29632777254E+03  0.41800000000E+01 0. -1.
         -5    1    1    2    0  502 -0.42082557049E+02  0.19091278734E+02 -0.34574814766E+03  0.34884763514E+03  0.41800000000E+01 0.  1.
        -11    1    3    3    0    0 -0.51172458051E+02 -0.59010523923E+02 -0.42210255543E+03  0.42926848207E+03  0.00000000000E+00 0. -1.
         11    1    3    3    0    0 -0.10497703213E+02 -0.99951580744E+01 -0.24427143819E+01  0.14699381321E+02  0.00000000000E+00 0.  1.
</event>
<event>
 8    1  0.5951278E-006  0.1031183E+03  0.7561462E-02  0.1273872E+00
         -1   -1    0    0    0  501 -0.00000000000E+00  0.00000000000E+00  0.81701950723E+02  0.81701950723E+02  0.00000000000E+00 0.  1.
          1   -1    0    0  501    0  0.00000000000E+00 -0.00000000000E+00 -0.15163493581E+03  0.15163493581E+03  0.00000000000E+00 0. -1.
         23    2    1    2    0    0  0.19888809521E+02  0.24052583461E+02 -0.25469128979E+02  0.13142089843E+03  0.12509470212E+03 0.  0.
         23    2    1    2    0    0 -0.19888809521E+02 -0.24052583461E+02 -0.44463856108E+02  0.10191598810E+03  0.86230752149E+02 0.  0.
          5    1    3    3  502    0  0.36697732982E+02 -0.37124512565E+02 -0.40362859098E+02  0.66117969069E+02  0.41800000000E+01 0.  1.
         -5    1    3    3    0  502 -0.16808923461E+02  0.61177096025E+02  0.14893730119E+02  0.65302929359E+02  0.41800000000E+01 0.  1.
        -11    1    4    4    0    0 -0.54375061549E+01  0.31970474881E+02 -0.75844980575E+01  0.33304689581E+02  0.00000000000E+00 0.  1.
         11    1    4    4    0    0 -0.14451303366E+02 -0.56023058342E+02 -0.36879358050E+02  0.68611298524E+02  0.00000000000E+00 0. -1.
</event>
<event>
 8    1  0.5951278E-006  0.1055212E+03  0.7561462E-02  0.1269096E+00
         -1   -1    0    0    0  501 -0.00000000000E+00  0.00000000000E+00  0.69269403164E+02  0.69269403164E+02  0.00000000000E+00 0.  1.
          1   -1    0    0  501    0  0.00000000000E+00 -0.00000000000E+00 -0.20220383342E+03  0.20220383342E+03  0.00000000000E+00 0. -1.
         23    2    1    2    0    0  0.41690124594E+02  0.16085137121E+02 -0.54261338356E+02  0.14348572320E+03  0.12508821607E+03 0.  0.
         23    2    1    2    0    0 -0.41690124594E+02 -0.16085137121E+02 -0.78673091905E+02  0.12798751338E+03  0.90523754161E+02 0.  0.
          5    1    3    3  502    0  0.56500463315E+02  0.61868758521E+02 -0.41139470468E+02  0.93434330233E+02  0.41800000000E+01 0. -1.
         -5    1    3    3    0  502 -0.14810338721E+02 -0.45783621400E+02 -0.13121867888E+02  0.50051392971E+02  0.41800000000E+01 0. -1.
        -11    1    4    4    0    0 -0.15145917148E+02  0.25416620540E+02 -0.72541006506E+02  0.78342842882E+02  0.00000000000E+00 0. -1.
         11    1    4    4    0    0 -0.26544207446E+02 -0.41501757661E+02 -0.61320853986E+01  0.49644670501E+02  0.00000000000E+00 0.  1.
</event>
<event>
 8    1  0.5951278E-006  0.1242678E+03  0.7561462E-02  0.1236218E+00
         -1   -1    0    0    0  501 -0.00000000000E+00  0.00000000000E+00  0.38965629488E+02  0.38965629488E+02  0.00000000000E+00 0.  1.
          1   -1    0    0  501    0  0.00000000000E+00 -0.00000000000E+00 -0.53127414364E+03  0.53127414364E+03  0.00000000000E+00 0. -1.
         23    2    1    2    0    0  0.40622598413E+02  0.85746115213E+02 -0.26347750404E+03  0.30670738303E+03  0.12508569821E+03 0.  0.
         23    2    1    2    0    0 -0.40622598413E+02 -0.85746115213E+02 -0.22883101011E+03  0.26353239010E+03  0.89906049095E+02 0.  0.
          5    1    3    3  502    0  0.41648922297E+02 -0.17728132979E+02 -0.13029806018E+03  0.13799991418E+03  0.41800000000E+01 0.  1.
         -5    1    3    3    0  502 -0.10263238842E+01  0.10347424819E+03 -0.13317944385E+03  0.16870746885E+03  0.41800000000E+01 0.  1.
        -11    1    4    4    0    0 -0.31566185290E+02 -0.31777120852E+02 -0.22609710698E+02  0.50173782808E+02  0.00000000000E+00 0.  1.
         11    1    4    4    0    0 -0.90564131223E+01 -0.53968994360E+02 -0.20622129942E+03  0.21335860729E+03  0.00000000000E+00 0. -1.
</event>
<event>
 8    1  0.5951278E-006  0.1301650E+03  0.7561462E-02  0.1227211E+00
         -1   -1    0    0    0  501 -0.00000000000E+00  0.00000000000E+00  0.17454694403E+03  0.17454694403E+03  0.00000000000E+00 0.  1.
          1   -1    0    0  501    0  0.00000000000E+00 -0.00000000000E+00 -0.10790257925E+03  0.10790257925E+03  0.00000000000E+00 0. -1.
         23    2    1    2    0    0  0.24597470695E+02  0.71576281165E+02  0.70436870929E+02  0.16228314376E+03  0.12508503657E+03 0.  0.
         23    2    1    2    0    0 -0.24597470695E+02 -0.71576281165E+02 -0.37925061542E+01  0.12016637952E+03  0.93259723745E+02 0.  0.
          5    1    3    3  502    0  0.60401143708E+02  0.52083665693E+00  0.53564022693E+02  0.80840252097E+02  0.41800000000E+01 0. -1.
         -5    1    3    3    0  502 -0.35803673013E+02  0.71055444508E+02  0.16872848236E+02  0.81442891667E+02  0.41800000000E+01 0. -1.
        -11    1    4    4    0    0  0.94513023523E+01 -0.83497669559E+02 -0.27508851542E+01  0.84075890165E+02  0.00000000000E+00 0.  1.
         11    1    4    4    0    0 -0.34048773047E+02  0.11921388394E+02 -0.10416210000E+01  0.36090489351E+02  0.00000000000E+00 0. -1.
</event>
<event>
 8    1  0.5951278E-006  0.1165188E+03  0.7561462E-02  0.1248953E+00
         -1   -1    0    0    0  501 -0.00000000000E+00  0.00000000000E+00  0.24095946206E+02  0.24095946206E+02  0.00000000000E+00 0.  1.
          1   -1    0    0  501    0  0.00000000000E+00 -0.00000000000E+00 -0.57863305305E+03  0.57863305305E+03  0.00000000000E+00 0. -1.
         23    2    1    2    0    0  0.40590666363E+02 -0.17046171483E+02 -0.30396755073E+03  0.33163442046E+03  0.12508774032E+03 0.  0.
         23    2    1    2    0    0 -0.40590666363E+02  0.17046171483E+02 -0.25056955611E+03  0.27109457879E+03  0.93642907061E+02 0.  0.
          5    1    3    3  502    0  0.64139181264E+02  0.35388878444E+02 -0.14428136736E+03  0.16186658907E+03  0.41800000000E+01 0.  1.
         -5    1    3    3    0  502 -0.23548514901E+02 -0.52435049927E+02 -0.15968618337E+03  0.16976783139E+03  0.41800000000E+01 0.  1.
        -11    1    4    4    0    0  0.11642714262E+02  0.42400739920E+02 -0.13081205217E+03  0.13800423375E+03  0.00000000000E+00 0.  1.
         11    1    4    4    0    0 -0.52233380625E+02 -0.25354568437E+02 -0.11975750395E+03  0.13309034504E+03  0.00000000000E+00 0. -1.
</event>
<event>
 7    1  0.5951278E-006  0.2159307E+03  0.7561462E-02  0.1136954E+00
          2   -1    0    0  501    0  0.00000000000E+00  0.00000000000E+00  0.44073832144E+03  0.44073832144E+03  0.00000000000E+00 0. -1.
         -2   -1    0    0    0  501 -0.00000000000E+00 -0.00000000000E+00 -0.12158556555E+03  0.12158556555E+03  0.00000000000E+00 0.  1.
         23    2    1    2    0    0  0.14865333341E+03  0.10616554875E+03  0.81192921118E+02  0.23584206716E+03  0.12514093227E+03 0.  0.
          5    1    3    3  502    0 -0.78246953636E+01 -0.12058690764E+02 -0.11504059757E+02  0.18879980704E+02  0.41800000000E+01 0. -1.
         -5    1    3    3    0  502  0.15647802877E+03  0.11822423951E+03  0.92696980875E+02  0.21696208646E+03  0.41800000000E+01 0. -1.
        -11    1    1    2    0    0 -0.13607946987E+03 -0.24705857480E+02  0.12340639623E+03  0.18535679147E+03  0.00000000000E+00 0. -1.
         11    1    1    2    0    0 -0.12573863541E+02 -0.81459691268E+02  0.11455343854E+03  0.14112502835E+03  0.00000000000E+00 0.  1.
</event>
<event>
 8    1  0.5951278E-006  0.8400303E+02  0.7561462E-02  0.1318060E+00
          1   -1    0    0  501    0  0.00000000000E+00  0.00000000000E+00  0.50359192218E+02  0.50359192218E+02  0.00000000000E+00 0. -1.
         -1   -1    0    0    0  501 -0.00000000000E+00 -0.00000000000E+00 -0.42353849669E+03  0.42353849669E+03  0.00000000000E+00 0.  1.
         23    2    1    2    0    0 -0.98295949924E+00  0.18690440369E+02 -0.36139446307E+03  0.38286152843E+03  0.12500677279E+03 0.  0.
         23    2    1    2    0    0  0.98295949924E+00 -0.18690440369E+02 -0.11784841411E+02  0.91036160485E+02  0.88308557107E+02 0.  0.
          5    1    3    3  502    0 -0.16790700061E+02 -0.27649869744E+02 -0.20678562125E+02  0.38620179142E+02  0.41800000000E+01 0.  1.
         -5    1    3    3    0  502  0.15807740562E+02  0.46340310113E+02 -0.34071590094E+03  0.34424134929E+03  0.41800000000E+01 0.  1.
        -11    1    4    4    0    0 -0.29281907099E+02 -0.39754356573E+02 -0.19978545386E+02  0.53263319702E+02  0.00000000000E+00 0. -1.
         11    1    4    4    0    0  0.30264866598E+02  0.21063916204E+02  0.81937039757E+01  0.37772840784E+02  0.00000000000E+00 0.  1.
</event>
<event>
 8    1  0.5951278E-006  0.8878844E+02  0.7561462E-02  0.1305812E+00
          1   -1    0    0  501    0  0.00000000000E+00  0.00000000000E+00  0.30837505548E+02  0.30837505548E+02  0.00000000000E+00 0. -1.
         -1   -1    0    0    0  501 -0.00000000000E+00 -0.00000000000E+00 -0.46184276663E+03  0.46184276663E+03  0.00000000000E+00 0.  1.
         23    2    1    2    0    0  0.22574936558E+01  0.19960358603E+02 -0.32563328175E+03  0.34941078376E+03  0.12508936579E+03 0.  0.
         23    2    1    2    0    0 -0.22574936558E+01 -0.19960358603E+02 -0.10537197933E+03  0.14326948842E+03  0.94970416916E+02 0.  0.
          5    1    3    3  502    0 -0.37686172649E+02 -0.71949071207E+01 -0.28059944194E+03  0.28324112257E+03  0.41800000000E+01 0. -1.
         -5    1    3    3    0  502  0.39943666305E+02  0.27155265724E+02 -0.45033839806E+02  0.66169661191E+02  0.41800000000E+01 0. -1.
        -11    1    4    4    0    0  0.23493753112E+02 -0.47380833161E+02 -0.85994577191E+02  0.10095527273E+03  0.00000000000E+00 0.  1.
         11    1    4    4    0    0 -0.25751246768E+02  0.27420474558E+02 -0.19377402142E+02  0.42314215682E+02  0.00000000000E+00 0. -1.
</event>
<event>
 8    1  0.5951278E-006  0.1236736E+03  0.7561462E-02  0.1237157E+00
         -1   -1    0    0    0  501 -0.00000000000E+00  0.00000000000E+00  0.21384433415E+03  0.21384433415E+03  0.00000000000E+00 0.  1.
          1   -1    0    0  501    0  0.00000000000E+00 -0.00000000000E+00 -0.10062641526E+03  0.10062641526E+03  0.00000000000E+00 0. -1.
         23    2    1    2    0    0  0.75963630267E+02  0.26748365446E+02  0.12242929882E+03  0.19266828821E+03  0.12508472287E+03 0.  0.
         23    2    1    2    0    0 -0.75963630267E+02 -0.26748365446E+02 -0.92113799283E+01  0.12180246120E+03  0.90912275607E+02 0.  0.
          5    1    3    3  502    0 -0.12175872018E+02  0.51993694826E+02  0.65717806422E+02  0.84781475819E+02  0.41800000000E+01 0.  1.
         -5    1    3    3    0  502  0.88139502286E+02 -0.25245329380E+02  0.56711492397E+02  0.10788681239E+03  0.41800000000E+01 0.  1.
        -11    1    4    4    0    0 -0.77964063332E+02 -0.28431621802E+01  0.23279766748E+02  0.81415147744E+02  0.00000000000E+00 0.  1.
         11    1    4    4    0    0  0.20004330645E+01 -0.23905203266E+02 -0.32491146676E+02  0.40387313453E+02  0.00000000000E+00 0. -1.
</event>
<event>
 8    1  0.5951278E-006  0.1161177E+03  0.7561462E-02  0.1249643E+00
          2   -1    0    0  501    0  0.00000000000E+00  0.00000000000E+00  0.69930555179E+02  0.69930555179E+02  0.00000000000E+00 0. -1.
         -2   -1    0    0    0  501 -0.00000000000E+00 -0.00000000000E+00 -0.22801019270E+03  0.22801019270E+03  0.00000000000E+00 0.  1.
         23    2    1    2    0    0 -0.51935489827E+02  0.42067656091E+02 -0.91129223359E+02  0.16858071410E+03  0.12509172245E+03 0.  0.
         23    2    1    2    0    0  0.51935489827E+02 -0.42067656091E+02 -0.66950414158E+02  0.12936003377E+03  0.88230819950E+02 0.  0.
          5    1    3    3  502    0  0.34240845827E+02 -0.13970474267E+02 -0.13088611243E+02  0.39451157378E+02  0.41800000000E+01 0.  1.
         -5    1    3    3    0  502 -0.86176335654E+02  0.56038130358E+02 -0.78040612115E+02  0.12912955673E+03  0.41800000000E+01 0.  1.
        -11    1    4    4    0    0 -0.48652534843E+01  0.12476044970E+02  0.11904448544E+02  0.17917541257E+02  0.00000000000E+00 0. -1.
         11    1    4    4    0    0  0.56800743311E+02 -0.54543701061E+02 -0.78854862702E+02  0.11144249251E+03  0.00000000000E+00 0.  1.
</event>
<event>
 8    1  0.5951278E-006  0.1231313E+03  0.7561462E-02  0.1238019E+00
          2   -1    0    0  501    0  0.00000000000E+00  0.00000000000E+00  0.28619621718E+03  0.28619621718E+03  0.00000000000E+00 0. -1.
         -2   -1    0    0    0  501 -0.00000000000E+00 -0.00000000000E+00 -0.81650110150E+02  0.81650110150E+02  0.00000000000E+00 0.  1.
         23    2    1    2    0    0  0.79073512564E+02  0.82662525834E+01  0.24222051372E+02  0.15020449961E+03  0.12511487765E+03 0.  0.
         23    2    1    2    0    0 -0.79073512564E+02 -0.82662525834E+01  0.18032405566E+03  0.21764182772E+03  0.92359346060E+02 0.  0.
          5    1    3    3  502    0  0.42753261409E+02 -0.52354168942E+02  0.38624819918E+02  0.77962487649E+02  0.41800000000E+01 0.  1.
         -5    1    3    3    0  502  0.36320251155E+02  0.60620421525E+02 -0.14402768546E+02  0.72242011957E+02  0.41800000000E+01 0.  1.
        -11    1    4    4    0    0 -0.41920928694E+02  0.32165704306E+02  0.37976229892E+02  0.65070660308E+02  0.00000000000E+00 0.  1.
         11    1    4    4    0    0 -0.37152583870E+02 -0.40431956890E+02  0.14234782577E+03  0.15257116742E+03  0.00000000000E+00 0. -1.
</event>
<event>
 7    1  0.5951278E-006  0.1134900E+03  0.7561462E-02  0.1254240E+00
          2   -1    0    0  501    0  0.00000000000E+00  0.00000000000E+00  0.57587797502E+03  0.57587797502E+03  0.00000000000E+00 0. -1.
         -2   -1    0    0    0  501 -0.00000000000E+00 -0.00000000000E+00 -0.78904936692E+02  0.78904936692E+02  0.00000000000E+00 0.  1.
         23    2    1    2    0    0 -0.41211273021E+01  0.25966084287E+02  0.29333132552E+03  0.30831314337E+03  0.91227773307E+02 0.  0.
          5    1    1    2  502    0 -0.31039994507E+01  0.54863642276E+02  0.24789127502E+03  0.25394332180E+03  0.41800000000E+01 0. -1.
         -5    1    1    2    0  502  0.72251267529E+01 -0.80829726564E+02 -0.44249562211E+02  0.92526446537E+02  0.41800000000E+01 0.  1.
        -11    1    3    3    0    0  0.10964261160E+02 -0.30370478089E+02  0.15254657488E+03  0.15592638799E+03  0.00000000000E+00 0.  1.
         11    1    3    3    0    0 -0.15085388462E+02  0.56336562377E+02  0.14078475064E+03  0.15238675539E+03  0.00000000000E+00 0. -1.
</event>
<event>
 8    1  0.5951278E-006  0.1017407E+03  0.7561462E-02  0.1276677E+00
          1   -1    0    0  501    0  0.00000000000E+00  0.00000000000E+00  0.38048461093E+03  0.38048461093E+03  0.00000000000E+00 0. -1.
         -1   -1    0    0    0  501 -0.00000000000E+00 -0.00000000000E+00 -0.43881344220E+02  0.43881344220E+02  0.00000000000E+00 0.  1.
         23    2    1    2    0    0  0.12178343036E+02  0.13997159390E+02  0.73910152224E+02  0.14648236288E+03  0.12510051768E+03 0.  0.
         23    2    1    2    0    0 -0.12178343036E+02 -0.13997159390E+02  0.26269311449E+03  0.27788359227E+03  0.88698286015E+02 0.  0.
          5    1    3    3  502    0 -0.21492799830E+02  0.61949718741E+02  0.51979386403E+02  0.83779693885E+02  0.41800000000E+01 0.  1.
         -5    1    3    3    0  502  0.33671142865E+02 -0.47952559351E+02  0.21930765821E+02  0.62702668999E+02  0.41800000000E+01 0.  1.
        -11    1    4    4    0    0 -0.93726948535E+01 -0.45981338947E+02  0.21713801162E+03  0.22215095550E+03  0.00000000000E+00 0. -1.
         11    1    4    4    0    0 -0.28056481821E+01  0.31984179557E+02  0.45555102876E+02  0.55732636773E+02  0.00000000000E+00 0.  1.
</event>
<event>
 8    1  0.5951278E-006  0.1400170E+03  0.7561462E-02  0.1213306E+00
         -2   -1    0    0    0  501 -0.00000000000E+00  0.00000000000E+00  0.14625413739E+03  0.14625413739E+03  0.00000000000E+00 0.  1.
          2   -1    0    0  501    0  0.00000000000E+00 -0.00000000000E+00 -0.15248495157E+03  0.15248495157E+03  0.00000000000E+00 0. -1.
         23    2    1    2    0    0  0.72035513755E+02 -0.52894430309E+02  0.48187899650E+02  0.16111460285E+03  0.12509558578E+03 0.  0.
         23    2    1    2    0    0 -0.72035513755E+02  0.52894430309E+02 -0.54418713833E+02  0.13762448611E+03  0.89398919245E+02 0.  0.
          5    1    3    3  502    0  0.64653174975E+01  0.39533629943E+02  0.10628508126E+02  0.41655081464E+02  0.41800000000E+01 0. -1.
         -5    1    3    3    0  502  0.65570196257E+02 -0.92428060252E+02  0.37559391524E+02  0.11945952139E+03  0.41800000000E+01 0. -1.
        -11    1    4    4    0    0 -0.89343415613E+02  0.60027474122E+02 -0.44935515453E+02  0.11663937633E+03  0.00000000000E+00 0.  1.
         11    1    4    4    0    0  0.17307901858E+02 -0.71330438126E+01 -0.94831983805E+01  0.20985109775E+02  0.00000000000E+00 0. -1.
</event>
<event>
 8    1  0.5951278E-006  0.1100739E+03  0.7561462E-02  0.1260433E+00
          4   -1    0    0  501    0  0.00000000000E+00  0.00000000000E+00  0.21329499809E+03  0.21329499809E+03  0.00000000000E+00 0. -1.
         -4   -1    0    0    0  501 -0.00000000000E+00 -0.00000000000E+00 -0.66509919406E+02  0.66509919406E+02  0.00000000000E+00 0.  1.
         23    2    1    2    0    0  0.36373259132E+02 -0.26092028451E+01  0.44812313499E+02  0.13777372513E+03  0.12507451370E+03 0.  0.
         23    2    1    2    0    0 -0.36373259132E+02  0.26092028451E+01  0.10197276519E+03  0.14203119237E+03  0.91894465803E+02 0.  0.
          5    1    3    3  502    0  0.25640415661E+02  0.59734845537E+02  0.11470008246E+02  0.66141637232E+02  0.41800000000E+01 0.  1.
         -5    1    3    3    0  502  0.10732843471E+02 -0.62344048382E+02  0.33342305253E+02  0.71632087902E+02  0.41800000000E+01 0.  1.
        -11    1    4    4    0    0 -0.18208279800E+02  0.43341014977E+02  0.78835675401E+02  0.91788064303E+02  0.00000000000E+00 0. -1.
         11    1    4    4    0    0 -0.18164979331E+02 -0.40731812132E+02  0.23137089788E+02  0.50243128062E+02  0.00000000000E+00 0.  1.
</event>
<event>
 8    1  0.5951278E-006  0.1060887E+03  0.7561462E-02  0.1267989E+00
          1   -1    0    0  501    0  0.00000000000E+00  0.00000000000E+00  0.12341576901E+03  0.12341576901E+03  0.00000000000E+00 0. -1.
         -1   -1    0    0    0  501 -0.00000000000E+00 -0.00000000000E+00 -0.13002207616E+03  0.13002207616E+03  0.00000000000E+00 0.  1.
         23    2    1    2    0    0 -0.82074026896E+02 -0.19646683613E+02  0.64564869018E+01  0.15103504437E+03  0.12509100822E+03 0.  0.
         23    2    1    2    0    0  0.82074026896E+02  0.19646683613E+02 -0.13062794055E+02  0.10240280080E+03  0.56511582490E+02 0.  0.
          5    1    3    3  502    0  0.13359762657E+01 -0.41270313948E+02  0.40783664240E+02  0.58187656035E+02  0.41800000000E+01 0.  1.
         -5    1    3    3    0  502 -0.83410003162E+02  0.21623630335E+02 -0.34327177339E+02  0.92847388334E+02  0.41800000000E+01 0.  1.
        -11    1    4    4    0    0  0.46742436878E+02  0.10434121453E+02  0.21159844862E+02  0.52359004291E+02  0.00000000000E+00 0. -1.
         11    1    4    4    0    0  0.35331590019E+02  0.92125621604E+01 -0.34222638917E+02  0.50043796511E+02  0.00000000000E+00 0.  1.
</event>
<event>
 8    1  0.5951278E-006  0.9522141E+02  0.7561462E-02  0.1290678E+00
          4   -1    0    0  501    0  0.00000000000E+00  0.00000000000E+00  0.12977435908E+02  0.12977435908E+02  0.00000000000E+00 0.  1.
         -4   -1    0    0    0  501 -0.00000000000E+00 -0.00000000000E+00 -0.95423072379E+03  0.95423072379E+03  0.00000000000E+00 0. -1.
         23    2    1    2    0    0  0.10020784421E+02  0.23439507708E+02 -0.55251615230E+03  0.56707299711E+03  0.12509140200E+03 0.  0.
         23    2    1    2    0    0 -0.10020784421E+02 -0.23439507708E+02 -0.38873713558E+03  0.40013516258E+03  0.91333242133E+02 0.  0.
          5    1    3    3  502    0  0.53395206007E+02  0.20400809118E+02 -0.12714928340E+03  0.13946918551E+03  0.41800000000E+01 0. -1.
         -5    1    3    3    0  502 -0.43374421587E+02  0.30386985898E+01 -0.42536686890E+03  0.42760381160E+03  0.41800000000E+01 0. -1.
        -11    1    4    4    0    0  0.37384215496E+02 -0.20453371219E+01 -0.10058620141E+03  0.10732822037E+03  0.00000000000E+00 0.  1.
         11    1    4    4    0    0 -0.47404999917E+02 -0.21394170586E+02 -0.28815093416E+03  0.29280694222E+03  0.00000000000E+00 0. -1.
</event>
<event>
 8    1  0.5951278E-006  0.1309011E+03  0.7561462E-02  0.1226125E+00
         -1   -1    0    0    0  501 -0.00000000000E+00  0.00000000000E+00  0.85891038319E+02  0.85891038319E+02  0.00000000000E+00 0.  1.
          1   -1    0    0  501    0  0.00000000000E+00 -0.00000000000E+00 -0.38867577288E+03  0.38867577288E+03  0.00000000000E+00 0. -1.
         23    2    1    2    0    0 -0.10362663404E+02 -0.10601238378E+03 -0.27827798260E+02  0.16656022628E+03  0.12498764864E+03 0.  0.
         23    2    1    2    0    0  0.10362663404E+02  0.10601238378E+03 -0.27495693630E+03  0.30800658492E+03  0.88998478790E+02 0.  0.
          5    1    3    3  502    0  0.40283839563E+02 -0.12387869568E+02 -0.41334576684E+02  0.59179951606E+02  0.41800000000E+01 0. -1.
         -5    1    3    3    0  502 -0.50646502967E+02 -0.93624514216E+02  0.13506778424E+02  0.10738027467E+03  0.41800000000E+01 0. -1.
        -11    1    4    4    0    0 -0.10914968702E+02  0.10776384661E+02  0.93329543039E+00  0.15366783935E+02  0.00000000000E+00 0.  1.
         11    1    4    4    0    0  0.21277632106E+02  0.95235999122E+02 -0.27589023173E+03  0.29263980099E+03  0.00000000000E+00 0. -1.
</event>
<event>
 8    1  0.5951278E-006  0.9882818E+02  0.7561462E-02  0.1282780E+00
          2   -1    0    0  501    0  0.00000000000E+00  0.00000000000E+00  0.40312471753E+03  0.40312471753E+03  0.00000000000E+00 0. -1.
         -2   -1    0    0    0  501 -0.00000000000E+00 -0.00000000000E+00 -0.39449035321E+02  0.39449035321E+02  0.00000000000E+00 0.  1.
         23    2    1    2    0    0  0.13384025501E+01  0.64668068972E+02  0.20942754002E+03  0.25237039722E+03  0.12508865819E+03 0.  0.
         23    2    1    2    0    0 -0.13384025501E+01 -0.64668068972E+02  0.15424814219E+03  0.19020335564E+03  0.90559796044E+02 0.  0.
          5    1    3    3  502    0  0.37432801858E+02  0.79589221451E+02  0.86946987044E+02  0.12374534247E+03  0.41800000000E+01 0. -1.
         -5    1    3    3    0  502 -0.36094399307E+02 -0.14921152480E+02  0.12248055297E+03  0.12862505475E+03  0.41800000000E+01 0. -1.
        -11    1    4    4    0    0  0.12320448581E+02 -0.42828527742E+02  0.12712978477E+02  0.46343241833E+02  0.00000000000E+00 0.  1.
         11    1    4    4    0    0 -0.13658851131E+02 -0.21839541229E+02  0.14153516372E+03  0.14386011380E+03  0.00000000000E+00 0. -1.
</event>
<event>
 7    1  0.5951278E-006  0.9549518E+02  0.7561462E-02  0.1290065E+00
          2   -1    0    0  501    0  0.00000000000E+00  0.00000000000E+00  0.49391473830E+03  0.49391473830E+03  0.00000000000E+00 0. -1.
         -2   -1    0    0    0  501 -0.00000000000E+00 -0.00000000000E+00 -0.34936470969E+02  0.34936470969E+02  0.00000000000E+00 0.  1.
         23    2    1    2    0    0  0.28288551492E+02  0.23482571381E+02  0.29132349535E+03  0.30709422846E+03  0.89921148272E+02 0.  0.
          5    1    1    2  502    0  0.20603758829E+02 -0.38634701136E+02  0.16452716703E+03  0.17030506775E+03  0.41800000000E+01 0. -1.
         -5    1    1    2    0  502 -0.48892310321E+02  0.15152129755E+02  0.31276049496E+01  0.51451913058E+02  0.41800000000E+01 0.  1.
        -11    1    3    3    0    0 -0.22987961786E+00  0.53930715391E+02  0.13704845715E+03  0.14727815355E+03  0.00000000000E+00 0. -1.
         11    1    3    3    0    0  0.28518431110E+02 -0.30448144011E+02  0.15427503820E+03  0.15981607490E+03  0.00000000000E+00 0.  1.
</event>
<event>
 8    1  0.5951278E-006  0.7939671E+02  0.7561462E-02  0.1330772E+00
         -2   -1    0    0    0  501 -0.00000000000E+00  0.00000000000E+00  0.35051707620E+02  0.35051707620E+02  0.00000000000E+00 0.  1.
          2   -1    0    0  501    0  0.00000000000E+00 -0.00000000000E+00 -0.46474418876E+03  0.46474418876E+03  0.00000000000E+00 0. -1.
         23    2    1    2    0    0 -0.61445440051E+02  0.14681404491E+02 -0.19740652766E+03  0.24208974500E+03  0.12508805590E+03 0.  0.
         23    2    1    2    0    0  0.61445440051E+02 -0.14681404491E+02 -0.23228595348E+03  0.25770615138E+03  0.92003318066E+02 0.  0.
          5    1    3    3  502    0 -0.27023741735E+02  0.41658003348E+02 -0.19136166626E+03  0.19774334774E+03  0.41800000000E+01 0. -1.
         -5    1    3    3    0  502 -0.34421698316E+02 -0.26976598857E+02 -0.60448614026E+01  0.44346397263E+02  0.41800000000E+01 0. -1.
        -11    1    4    4    0    0  0.51205348114E+02 -0.59075972197E+01 -0.23766335351E+03  0.24318872709E+03  0.00000000000E+00 0. -1.
         11    1    4    4    0    0  0.10240091937E+02 -0.87738072714E+01  0.53774000346E+01  0.14517424291E+02  0.00000000000E+00 0.  1.
</event>
<event>
 7    1  0.5951278E-006  0.1644656E+03  0.7561462E-02  0.1183745E+00
          3   -1    0    0  501    0  0.00000000000E+00  0.00000000000E+00  0.60267192032E+03  0.60267192032E+03  0.00000000000E+00 0. -1.
         -3   -1    0    0    0  501 -0.00000000000E+00 -0.00000000000E+00 -0.78417254505E+02  0.78417254505E+02  0.00000000000E+00 0.  1.
         23    2    1    2    0    0  0.75951180250E+02 -0.13719025620E+03  0.40715476480E+03  0.44491142036E+03  0.87071357434E+02 0.  0.
          5    1    1    2  502    0 -0.34394066662E+02  0.62605120283E+02  0.13129230936E+03  0.14952423150E+03  0.41800000000E+01 0. -1.
         -5    1    1    2    0  502 -0.41557113587E+02  0.74585135916E+02 -0.14192408346E+02  0.86653522975E+02  0.41800000000E+01 0.  1.
        -11    1    3    3    0    0  0.83321639298E+01 -0.87712004348E+02  0.27178051599E+03  0.28570521440E+03  0.00000000000E+00 0. -1.
         11    1    3    3    0    0  0.67619016320E+02 -0.49478251851E+02  0.13537424881E+03  0.15920620596E+03  0.00000000000E+00 0.  1.
</event>
<event>
 8    1  0.5951278E-006  0.1509564E+03  0.7561462E-02  0.1199303E+00
          2   -1    0    0  501    0  0.00000000000E+00  0.00000000000E+00  0.47214597463E+03  0.47214597463E+03  0.00000000000E+00 0. -1.
         -2   -1    0    0    0  501 -0.00000000000E+00 -0.00000000000E+00 -0.48466639292E+02  0.48466639292E+02  0.00000000000E+00 0.  1.
         23    2    1    2    0    0 -0.29515206329E+02  0.10023372881E+03  0.24182245410E+03  0.29162127856E+03  0.12508766129E+03 0.  0.
         23    2    1    2    0    0  0.29515206329E+02 -0.10023372881E+03  0.18185688124E+03  0.22899133536E+03  0.91908425188E+02 0.  0.
          5    1    3    3  502    0 -0.72504542561E+02  0.26489162759E+02  0.12243187670E+03  0.14479510098E+03  0.41800000000E+01 0.  1.
         -5    1    3    3    0  502  0.42989336232E+02  0.73744566050E+02  0.11939057740E+03  0.14682617758E+03  0.41800000000E+01 0.  1.
        -11    1    4    4    0    0 -0.17229063902E+02  0.96394168154E+01  0.24721986896E+02  0.31637566840E+02  0.00000000000E+00 0.  1.
         11    1    4    4    0    0  0.46744270232E+02 -0.10987314562E+03  0.15713489435E+03  0.19735376852E+03  0.00000000000E+00 0. -1.
</event>
<event>
 8    1  0.5951278E-006  0.9368043E+02  0.7561462E-02  0.1294176E+00
          1   -1    0    0  501    0  0.00000000000E+00  0.00000000000E+00  0.47293401114E+03  0.47293401114E+03  0.00000000000E+00 0. -1.
         -1   -1    0    0    0  501 -0.00000000000E+00 -0.00000000000E+00 -0.38045398884E+02  0.38045398884E+02  0.00000000000E+00 0.  1.
         23    2    1    2    0    0  0.36006060957E+02  0.29910417602E+02  0.12291275868E+03  0.18262323619E+03  0.12669897648E+03 0.  0.
         23    2    1    2    0    0 -0.36006060957E+02 -0.29910417602E+02  0.31197585357E+03  0.32835617383E+03  0.91092119182E+02 0.  0.
          5    1    3    3  502    0 -0.18283327799E+02 -0.71959371244E+01 -0.18059105376E+02  0.27012317070E+02  0.41800000000E+01 0.  1.
         -5    1    3    3    0  502  0.54289388756E+02  0.37106354727E+02  0.14097186406E+03  0.15561091912E+03  0.41800000000E+01 0. -1.
        -11    1    4    4    0    0 -0.46714812676E+02 -0.56149286238E+02  0.24432051522E+03  0.25500496118E+03  0.00000000000E+00 0.  1.
         11    1    4    4    0    0  0.10708751719E+02  0.26238868636E+02  0.67655338348E+02  0.73351212653E+02  0.00000000000E+00 0. -1.
</event>
<event>
 8    1  0.5951278E-006  0.1263913E+03  0.7561462E-02  0.1232911E+00
          2   -1    0    0  501    0  0.00000000000E+00  0.00000000000E+00  0.59939839721E+03  0.59939839721E+03  0.00000000000E+00 0. -1.
         -2   -1    0    0    0  501 -0.00000000000E+00 -0.00000000000E+00 -0.43631156312E+02  0.43631156312E+02  0.00000000000E+00 0.  1.
         23    2    1    2    0    0  0.20996020986E+02 -0.61608061174E+02  0.10211434295E+03  0.17410077441E+03  0.12508938611E+03 0.  0.
         23    2    1    2    0    0 -0.20996020986E+02  0.61608061174E+02  0.45365289795E+03  0.46892877911E+03  0.99281730237E+02 0.  0.
          5    1    3    3  502    0  0.81474855264E+00 -0.94937943862E+02  0.45801063996E+02  0.10549448736E+03  0.41800000000E+01 0.  1.
         -5    1    3    3    0  502  0.20181272433E+02  0.33329882688E+02  0.56313278950E+02  0.68606287052E+02  0.41800000000E+01 0.  1.
        -11    1    4    4    0    0  0.16603270350E+02 -0.21605548331E+02  0.11459065566E+03  0.11778576599E+03  0.00000000000E+00 0.  1.
         11    1    4    4    0    0 -0.37599291336E+02  0.83213609506E+02  0.33906224229E+03  0.35114301312E+03  0.00000000000E+00 0. -1.
</event>
<event>
 8    1  0.5951278E-006  0.9912569E+02  0.7561462E-02  0.1282145E+00
          2   -1    0    0  501    0  0.00000000000E+00  0.00000000000E+00  0.51901301484E+03  0.51901301484E+03  0.00000000000E+00 0. -1.
         -2   -1    0    0    0  501 -0.00000000000E+00 -0.00000000000E+00 -0.29461446153E+02  0.29461446153E+02  0.00000000000E+00 0.  1.
         23    2    1    2    0    0 -0.29413734555E+02 -0.16896847513E+00  0.39147311284E+03  0.41202431482E+03  0.12509053358E+03 0.  0.
         23    2    1    2    0    0  0.29413734555E+02  0.16896847513E+00  0.98078455840E+02  0.13645014617E+03  0.90189037911E+02 0.  0.
          5    1    3    3  502    0  0.40607857338E+02  0.23941023037E-01  0.25830540959E+03  0.26151129168E+03  0.41800000000E+01 0. -1.
         -5    1    3    3    0  502 -0.70021591893E+02 -0.19290949817E+00  0.13316770325E+03  0.15051302314E+03  0.41800000000E+01 0. -1.
        -11    1    4    4    0    0  0.45288825610E+01 -0.39877576143E+02  0.19049522359E+02  0.44425399924E+02  0.00000000000E+00 0.  1.
         11    1    4    4    0    0  0.24884851995E+02  0.40046544618E+02  0.79028933481E+02  0.92024746247E+02  0.00000000000E+00 0. -1.
</event>
<event>
 8    1  0.5951278E-006  0.1068574E+03  0.7561462E-02  0.1266503E+00
         -3   -1    0    0    0  501 -0.00000000000E+00  0.00000000000E+00  0.10365217651E+03  0.10365217651E+03  0.00000000000E+00 0.  1.
          3   -1    0    0  501    0  0.00000000000E+00 -0.00000000000E+00 -0.23713318355E+03  0.23713318355E+03  0.00000000000E+00 0. -1.
         23    2    1    2    0    0  0.19950379666E+02 -0.15396206093E+02  0.47436351595E+02  0.13727198574E+03  0.12632628312E+03 0.  0.
         23    2    1    2    0    0 -0.19950379666E+02  0.15396206093E+02 -0.18091735864E+03  0.20351337432E+03  0.89730385383E+02 0.  0.
          5    1    3    3  502    0 -0.36496661472E+02 -0.49613968279E+02  0.31189264013E+02  0.69164982012E+02  0.41800000000E+01 0. -1.
         -5    1    3    3    0  502  0.56447041137E+02  0.34217762186E+02  0.16247087582E+02  0.68107003730E+02  0.41800000000E+01 0.  1.
        -11    1    4    4    0    0  0.27922211164E+02 -0.12324643415E+02 -0.10649916862E+03  0.11078636933E+03  0.00000000000E+00 0.  1.
         11    1    4    4    0    0 -0.47872590830E+02  0.27720849508E+02 -0.74418190017E+02  0.92727004996E+02  0.00000000000E+00 0. -1.
</event>
<event>
 8    1  0.5951278E-006  0.1372501E+03  0.7561462E-02  0.1217078E+00
         -1   -1    0    0    0  501 -0.00000000000E+00  0.00000000000E+00  0.15463112928E+03  0.15463112928E+03  0.00000000000E+00 0.  1.
          1   -1    0    0  501    0  0.00000000000E+00 -0.00000000000E+00 -0.13189133348E+03  0.13189133348E+03  0.00000000000E+00 0. -1.
         23    2    1    2    0    0  0.35621960778E+02 -0.83082912956E+02  0.30688537692E+02  0.15735441225E+03  0.12508769002E+03 0.  0.
         23    2    1    2    0    0 -0.35621960778E+02  0.83082912956E+02 -0.79487418898E+01  0.12916805052E+03  0.91921206810E+02 0.  0.
          5    1    3    3  502    0  0.24598758842E+02 -0.11555194938E+03  0.32998059217E+02  0.12273425054E+03  0.41800000000E+01 0.  1.
         -5    1    3    3    0  502  0.11023201936E+02  0.32469036427E+02 -0.23095215254E+01  0.34620161714E+02  0.41800000000E+01 0.  1.
        -11    1    4    4    0    0 -0.48205990639E+02  0.12166281919E+02  0.17608365284E+02  0.52743629730E+02  0.00000000000E+00 0.  1.
         11    1    4    4    0    0  0.12584029861E+02  0.70916631037E+02 -0.25557107173E+02  0.76424420785E+02  0.00000000000E+00 0. -1.
</event>
<event>
 8    1  0.5951278E-006  0.2174743E+03  0.7561462E-02  0.1135780E+00
         -2   -1    0    0    0  501 -0.00000000000E+00  0.00000000000E+00  0.12876139394E+03  0.12876139394E+03  0.00000000000E+00 0.  1.
          2   -1    0    0  501    0  0.00000000000E+00 -0.00000000000E+00 -0.38794105213E+03  0.38794105213E+03  0.00000000000E+00 0. -1.
         23    2    1    2    0    0 -0.11665620773E+03  0.15522692263E+03 -0.10702541746E+03  0.25456892515E+03  0.12508728695E+03 0.  0.
         23    2    1    2    0    0  0.11665620773E+03 -0.15522692263E+03 -0.15215424073E+03  0.26213352092E+03  0.88651009615E+02 0.  0.
          5    1    3    3  502    0 -0.12329962718E+02  0.11686793302E+03 -0.72307637295E+02  0.13804350242E+03  0.41800000000E+01 0. -1.
         -5    1    3    3    0  502 -0.10432624501E+03  0.38358989611E+02 -0.34717780168E+02  0.11652542273E+03  0.41800000000E+01 0. -1.
        -11    1    4    4    0    0  0.98728064241E+02 -0.75178596094E+02 -0.57167094721E+02  0.13662770106E+03  0.00000000000E+00 0.  1.
         11    1    4    4    0    0  0.17928143491E+02 -0.80048326535E+02 -0.94987146012E+02  0.12550581986E+03  0.00000000000E+00 0. -1.
</event>
<event>
 8    1  0.5951278E-006  0.1712287E+03  0.7561462E-02  0.1176573E+00
         -1   -1    0    0    0  501 -0.00000000000E+00  0.00000000000E+00  0.15345282045E+03  0.15345282045E+03  0.00000000000E+00 0.  1.
          1   -1    0    0  501    0  0.00000000000E+00 -0.00000000000E+00 -0.21862795330E+03  0.21862795330E+03  0.00000000000E+00 0. -1.
         23    2    1    2    0    0 -0.14531223225E+03  0.94722687555E+01 -0.13250042344E+02  0.19243704500E+03  0.12510429228E+03 0.  0.
         23    2    1    2    0    0  0.14531223225E+03 -0.94722687555E+01 -0.51925090512E+02  0.17964372876E+03  0.91489264610E+02 0.  0.
          5    1    3    3  502    0 -0.16508470232E+03  0.22703281201E+02 -0.45191122399E+01  0.16675218947E+03  0.41800000000E+01 0. -1.
         -5    1    3    3    0  502  0.19772470068E+02 -0.13231012446E+02 -0.87309301041E+01  0.25684855526E+02  0.41800000000E+01 0. -1.
        -11    1    4    4    0    0  0.73756609800E+02  0.16335000997E+02  0.16505286921E+02  0.77325896330E+02  0.00000000000E+00 0.  1.
         11    1    4    4    0    0  0.71555622452E+02 -0.25807269753E+02 -0.68430377433E+02  0.10231783243E+03  0.00000000000E+00 0. -1.
</event>
<event>
 8    1  0.5951278E-006  0.2674330E+03  0.7561462E-02  0.1102758E+00
         -2   -1    0    0    0  501 -0.00000000000E+00  0.00000000000E+00  0.74547507273E+02  0.74547507273E+02  0.00000000000E+00 0.  1.
          2   -1    0    0  501    0  0.00000000000E+00 -0.00000000000E+00 -0.12703042845E+04  0.12703042845E+04  0.00000000000E+00 0. -1.
         23    2    1    2    0    0  0.19239165975E+03 -0.15412666994E+03 -0.28612407285E+03  0.39784946030E+03  0.12509047471E+03 0.  0.
         23    2    1    2    0    0 -0.19239165975E+03  0.15412666994E+03 -0.90963270436E+03  0.94700233146E+03  0.92801820131E+02 0.  0.
          5    1    3    3  502    0  0.16114030883E+01 -0.57758387218E+02 -0.94036604621E+02  0.11044900779E+03  0.41800000000E+01 0. -1.
         -5    1    3    3    0  502  0.19078025666E+03 -0.96368282727E+02 -0.19208746823E+03  0.28740045251E+03  0.41800000000E+01 0. -1.
        -11    1    4    4    0    0 -0.14465041281E+03  0.15925237462E+03 -0.75902193728E+03  0.78892291259E+03  0.00000000000E+00 0.  1.
         11    1    4    4    0    0 -0.47741246940E+02 -0.51257046730E+01 -0.15061076708E+03  0.15807941886E+03  0.00000000000E+00 0. -1.
</event>
<event>
 8    1  0.5951278E-006  0.1609766E+03  0.7561462E-02  0.1187599E+00
         -2   -1    0    0    0  501 -0.00000000000E+00  0.00000000000E+00  0.68790475360E+02  0.68790475360E+02  0.00000000000E+00 0.  1.
          2   -1    0    0  501    0  0.00000000000E+00 -0.00000000000E+00 -0.56260170391E+03  0.56260170391E+03  0.00000000000E+00 0. -1.
         23    2    1    2    0    0 -0.13686664688E+03  0.78491477056E+02 -0.18751851461E+03  0.27514282514E+03  0.12508792870E+03 0.  0.
         23    2    1    2    0    0  0.13686664688E+03 -0.78491477056E+02 -0.30629271393E+03  0.35624935412E+03  0.90581370637E+02 0.  0.
          5    1    3    3  502    0 -0.12524282851E+03  0.83778299266E+02 -0.87638843950E+02  0.17436343908E+03  0.41800000000E+01 0.  1.
         -5    1    3    3    0  502 -0.11623818370E+02 -0.52868222098E+01 -0.99879670664E+02  0.10077938606E+03  0.41800000000E+01 0.  1.
        -11    1    4    4    0    0  0.78214594777E+02 -0.44394078595E+02 -0.25730165285E+03  0.27256650126E+03  0.00000000000E+00 0. -1.
         11    1    4    4    0    0  0.58652052100E+02 -0.34097398461E+02 -0.48991061089E+02  0.83682852867E+02  0.00000000000E+00 0.  1.
</event>
<event>
 8    1  0.5951278E-006  0.1799221E+03  0.7561462E-02  0.1167878E+00
          2   -1    0    0  501    0  0.00000000000E+00  0.00000000000E+00  0.81009090068E+03  0.81009090068E+03  0.00000000000E+00 0. -1.
         -2   -1    0    0    0  501 -0.00000000000E+00 -0.00000000000E+00 -0.54310998573E+02  0.54310998573E+02  0.00000000000E+00 0.  1.
         23    2    1    2    0    0 -0.16431416312E+03  0.69205517902E+02  0.35693926711E+03  0.41814202135E+03  0.12509421132E+03 0.  0.
         23    2    1    2    0    0  0.16431416312E+03 -0.69205517902E+02  0.39884063500E+03  0.44625987791E+03  0.91024604327E+02 0.  0.
          5    1    3    3  502    0 -0.79412767034E+02  0.43435606987E+02  0.29817331732E+03  0.31163735187E+03  0.41800000000E+01 0. -1.
         -5    1    3    3    0  502 -0.84901396082E+02  0.25769910915E+02  0.58765949787E+02  0.10650466947E+03  0.41800000000E+01 0. -1.
        -11    1    4    4    0    0  0.46907285829E+02 -0.33671497745E+02  0.23260873894E+03  0.23966828879E+03  0.00000000000E+00 0. -1.
         11    1    4    4    0    0  0.11740687729E+03 -0.35534020157E+02  0.16623189607E+03  0.20659158912E+03  0.00000000000E+00 0.  1.
</event>
<event>
 8    1  0.5951278E-006  0.1311395E+03  0.7561462E-02  0.1225775E+00
         -2   -1    0    0    0  501 -0.00000000000E+00  0.00000000000E+00  0.36230297991E+03  0.36230297991E+03  0.00000000000E+00 0.  1.
          2   -1    0    0  501    0  0.00000000000E+00 -0.00000000000E+00 -0.68044450551E+02  0.68044450551E+02  0.00000000000E+00 0. -1.
         23    2    1    2    0    0 -0.81933138853E+02  0.60205667423E+02  0.22544827309E+03  0.27715218798E+03  0.12509456356E+03 0.  0.
         23    2    1    2    0    0  0.81933138853E+02 -0.60205667423E+02  0.68810256273E+02  0.15319524248E+03  0.91630613434E+02 0.  0.
          5    1    3    3  502    0 -0.76205185046E+02 -0.19837435047E+02  0.89977796072E+02  0.11964209227E+03  0.41800000000E+01 0.  1.
         -5    1    3    3    0  502 -0.57279538066E+01  0.80043102471E+02  0.13547047702E+03  0.15751009571E+03  0.41800000000E+01 0.  1.
        -11    1    4    4    0    0  0.42075664943E+02 -0.41280171837E+02  0.87315730059E+02  0.10534918549E+03  0.00000000000E+00 0.  1.
         11    1    4    4    0    0  0.39857473910E+02 -0.18925495586E+02 -0.18505473786E+02  0.47846056992E+02  0.00000000000E+00 0. -1.
</event>
<event>
 8    1  0.5951278E-006  0.1314533E+03  0.7561462E-02  0.1225315E+00
         -1   -1    0    0    0  501 -0.00000000000E+00  0.00000000000E+00  0.34800318634E+02  0.34800318634E+02  0.00000000000E+00 0.  1.
          1   -1    0    0  501    0  0.00000000000E+00 -0.00000000000E+00 -0.73629902885E+03  0.73629902885E+03  0.00000000000E+00 0. -1.
         23    2    1    2    0    0  0.45102089985E+02 -0.10514917264E+03 -0.31217970127E+03  0.35523836255E+03  0.12509029265E+03 0.  0.
         23    2    1    2    0    0 -0.45102089985E+02  0.10514917264E+03 -0.38931900895E+03  0.41586098494E+03  0.90997368293E+02 0.  0.
          5    1    3    3  502    0  0.16243015500E+01 -0.26015931840E+02  0.37213605557E+01  0.26660607447E+02  0.41800000000E+01 0. -1.
         -5    1    3    3    0  502  0.43477788435E+02 -0.79133240798E+02 -0.31590106182E+03  0.32857775510E+03  0.41800000000E+01 0. -1.
        -11    1    4    4    0    0 -0.74054286934E+01 -0.16862673616E+02 -0.44969300651E+02  0.48594527846E+02  0.00000000000E+00 0. -1.
         11    1    4    4    0    0 -0.37696661291E+02  0.12201184625E+03 -0.34434970830E+03  0.36726645709E+03  0.00000000000E+00 0.  1.
</event>
<event>
 8    1  0.5951278E-006  0.1215082E+03  0.7561462E-02  0.1240630E+00
          2   -1    0    0  501    0  0.00000000000E+00  0.00000000000E+00  0.52862634548E+03  0.52862634548E+03  0.00000000000E+00 0. -1.
         -2   -1    0    0    0  501 -0.00000000000E+00 -0.00000000000E+00 -0.54388649263E+02  0.54388649263E+02  0.00000000000E+00 0.  1.
         23    2    1    2    0    0 -0.32809143729E+02 -0.65474585698E+02  0.66883393909E+02  0.15963924100E+03  0.12509171676E+03 0.  0.
         23    2    1    2    0    0  0.32809143729E+02  0.65474585698E+02  0.40735430231E+03  0.42337575374E+03  0.89141123876E+02 0.  0.
          5    1    3    3  502    0  0.34788705703E+02  0.10307118388E+02  0.40700065112E+02  0.54685084201E+02  0.41800000000E+01 0.  1.
         -5    1    3    3    0  502 -0.67597849432E+02 -0.75781704086E+02  0.26183328797E+02  0.10495415680E+03  0.41800000000E+01 0.  1.
        -11    1    4    4    0    0 -0.10874702545E+02  0.59829966180E+02  0.14323759434E+03  0.15561135062E+03  0.00000000000E+00 0.  1.
         11    1    4    4    0    0  0.43683846274E+02  0.56446195178E+01  0.26411670796E+03  0.26776440312E+03  0.00000000000E+00 0. -1.
</event>
<event>
 8    1  0.5951278E-006  0.1019115E+03  0.7561462E-02  0.1276327E+00
         -1   -1    0    0    0  501 -0.00000000000E+00  0.00000000000E+00  0.21049445395E+03  0.21049445395E+03  0.00000000000E+00 0.  1.
          1   -1    0    0  501    0  0.00000000000E+00 -0.00000000000E+00 -0.58877411657E+02  0.58877411657E+02  0.00000000000E+00 0. -1.
         23    2    1    2    0    0 -0.83235104210E+00  0.27065404385E+02  0.94166517615E+02  0.15889600451E+03  0.12508948112E+03 0.  0.
         23    2    1    2    0    0  0.83235104210E+00 -0.27065404385E+02  0.57450524674E+02  0.11047586109E+03  0.90394270700E+02 0.  0.
          5    1    3    3  502    0  0.54029260402E+02  0.44316571588E+02  0.57207968243E+02  0.90406545822E+02  0.41800000000E+01 0.  1.
         -5    1    3    3    0  502 -0.54861611444E+02 -0.17251167203E+02  0.36958549372E+02  0.68489458691E+02  0.41800000000E+01 0.  1.
        -11    1    4    4    0    0  0.34226326048E+02 -0.25581854883E+02  0.63467811291E+02  0.76511670770E+02  0.00000000000E+00 0.  1.
         11    1    4    4    0    0 -0.33393975006E+02 -0.14835495016E+01 -0.60172866164E+01  0.33964190320E+02  0.00000000000E+00 0. -1.
</event>
<event>
 8    1  0.5951278E-006  0.1857394E+03  0.7561462E-02  0.1162361E+00
          1   -1    0    0  501    0  0.00000000000E+00  0.00000000000E+00  0.26667500451E+03  0.26667500451E+03  0.00000000000E+00 0. -1.
         -1   -1    0    0    0  501 -0.00000000000E+00 -0.00000000000E+00 -0.14330789931E+03  0.14330789931E+03  0.00000000000E+00 0.  1.
         23    2    1    2    0    0 -0.12342254707E+03  0.98018605247E+02  0.20192672279E+02  0.20222831463E+03  0.12509106732E+03 0.  0.
         23    2    1    2    0    0  0.12342254707E+03 -0.98018605247E+02  0.10317443292E+03  0.20775458918E+03  0.87614117681E+02 0.  0.
          5    1    3    3  502    0 -0.14859572379E+03  0.73975973195E+02  0.19243659521E+02  0.16715539049E+03  0.41800000000E+01 0.  1.
         -5    1    3    3    0  502  0.25173176720E+02  0.24042632053E+02  0.94901275769E+00  0.35072924135E+02  0.41800000000E+01 0.  1.
        -11    1    4    4    0    0  0.47219031411E+02 -0.78670385680E+02  0.89074959657E+02  0.12787890736E+03  0.00000000000E+00 0. -1.
         11    1    4    4    0    0  0.76203515662E+02 -0.19348219567E+02  0.14099473264E+02  0.79875681819E+02  0.00000000000E+00 0.  1.
</event>
<event>
 8    1  0.5951278E-006  0.1190219E+03  0.7561462E-02  0.1244719E+00
         -1   -1    0    0    0  501 -0.00000000000E+00  0.00000000000E+00  0.12551689911E+04  0.12551689911E+04  0.00000000000E+00 0.  1.
          1   -1    0    0  501    0  0.00000000000E+00 -0.00000000000E+00 -0.13590197379E+02  0.13590197379E+02  0.00000000000E+00 0. -1.
         23    2    1    2    0    0 -0.47317836299E+02 -0.39392948702E+02  0.88951231234E+03  0.90037263528E+03  0.12509175235E+03 0.  0.
         23    2    1    2    0    0  0.47317836299E+02  0.39392948702E+02  0.35206648142E+03  0.36838655325E+03  0.89258407067E+02 0.  0.
          5    1    3    3  502    0 -0.73261155199E+02 -0.64109144586E+02  0.74863516616E+03  0.75494984184E+03  0.41800000000E+01 0.  1.
         -5    1    3    3    0  502  0.25943318900E+02  0.24716195884E+02  0.14087714618E+03  0.14542279344E+03  0.41800000000E+01 0.  1.
        -11    1    4    4    0    0  0.68379186789E+02  0.46049989075E+02  0.31117981087E+03  0.32191487908E+03  0.00000000000E+00 0.  1.
         11    1    4    4    0    0 -0.21061350490E+02 -0.66570403732E+01  0.40886670549E+02  0.46471674164E+02  0.00000000000E+00 0. -1.
</event>
<event>
 8    1  0.5951278E-006  0.1077901E+03  0.7561462E-02  0.1264718E+00
         -2   -1    0    0    0  501 -0.00000000000E+00  0.00000000000E+00  0.11089113158E+03  0.11089113158E+03  0.00000000000E+00 0.  1.
          2   -1    0    0  501    0  0.00000000000E+00 -0.00000000000E+00 -0.14232722425E+03  0.14232722425E+03  0.00000000000E+00 0. -1.
         23    2    1    2    0    0 -0.42843020172E+02 -0.33943285149E+02  0.39245212975E+02  0.14204053483E+03  0.12509059041E+03 0.  0.
         23    2    1    2    0    0  0.42843020172E+02  0.33943285149E+02 -0.70681305652E+02  0.11117782100E+03  0.66158823519E+02 0.  0.
          5    1    3    3  502    0  0.15290308496E+02 -0.67335774877E+02  0.16437505716E+02  0.71102490156E+02  0.41800000000E+01 0.  1.
         -5    1    3    3    0  502 -0.58133328668E+02  0.33392489728E+02  0.22807707260E+02  0.70938044678E+02  0.41800000000E+01 0.  1.
        -11    1    4    4    0    0  0.44792017319E+02  0.47644272988E+02 -0.72014521110E+02  0.97274831353E+02  0.00000000000E+00 0. -1.
         11    1    4    4    0    0 -0.19489971468E+01 -0.13700987839E+02  0.13332154587E+01  0.13902989646E+02  0.00000000000E+00 0.  1.
</event>
<event>
 8    1  0.5951278E-006  0.1857105E+03  0.7561462E-02  0.1162388E+00
         -1   -1    0    0    0  501 -0.00000000000E+00  0.00000000000E+00  0.12208810674E+03  0.12208810674E+03  0.00000000000E+00 0.  1.
          1   -1    0    0  501    0  0.00000000000E+00 -0.00000000000E+00 -0.29545071180E+03  0.29545071180E+03  0.00000000000E+00 0. -1.
         23    2    1    2    0    0 -0.13892351609E+03 -0.57158472371E+02 -0.49244657624E+02  0.20159158162E+03  0.12508914897E+03 0.  0.
         23    2    1    2    0    0  0.13892351609E+03  0.57158472371E+02 -0.12411794743E+03  0.21594723692E+03  0.93065084594E+02 0.  0.
          5    1    3    3  502    0  0.23601088957E+02 -0.91149825037E+01 -0.10386740756E+02  0.27666786758E+02  0.41800000000E+01 0. -1.
         -5    1    3    3    0  502 -0.16252460505E+03 -0.48043489867E+02 -0.38857916869E+02  0.17392479486E+03  0.41800000000E+01 0. -1.
        -11    1    4    4    0    0  0.71037341023E+02 -0.19684976871E+02 -0.44242414273E+02  0.85972049846E+02  0.00000000000E+00 0.  1.
         11    1    4    4    0    0  0.67886175070E+02  0.76843449242E+02 -0.79875533160E+02  0.12997518707E+03  0.00000000000E+00 0. -1.
</event>
<event>
 7    1  0.5951278E-006  0.2081823E+03  0.7561462E-02  0.1143014E+00
         -1   -1    0    0    0  501 -0.00000000000E+00  0.00000000000E+00  0.11416208441E+03  0.11416208441E+03  0.00000000000E+00 0.  1.
          1   -1    0    0  501    0  0.00000000000E+00 -0.00000000000E+00 -0.71168637639E+03  0.71168637639E+03  0.00000000000E+00 0. -1.
         23    2    1    2    0    0 -0.92325075177E+01 -0.19206554342E+03 -0.44588598014E+03  0.49427389243E+03  0.92292801929E+02 0.  0.
          5    1    1    2  502    0  0.95680881179E+01 -0.14277734559E+02 -0.12175890984E+03  0.12303701289E+03  0.41800000000E+01 0. -1.
         -5    1    1    2    0  502 -0.33558060020E+00  0.20634327798E+03 -0.29879401988E+02  0.20853755548E+03  0.41800000000E+01 0.  1.
        -11    1    3    3    0    0 -0.14730681924E+01 -0.39864756182E+02 -0.26076973962E+02  0.47658968583E+02  0.00000000000E+00 0.  1.
         11    1    3    3    0    0 -0.77594393253E+01 -0.15220078724E+03 -0.41980900618E+03  0.44661492385E+03  0.00000000000E+00 0. -1.
</event>
<event>
 8    1  0.3043298E-005  0.3495822E+03  0.7561462E-02  0.1062787E+00
          3   -1    0    0  501    0  0.00000000000E+00  0.00000000000E+00  0.42791147906E+03  0.42791147906E+03  0.00000000000E+00 0. -1.
         -3   -1    0    0    0  501 -0.00000000000E+00 -0.00000000000E+00 -0.30952221026E+03  0.30952221026E+03  0.00000000000E+00 0.  1.
         23    2    1    2    0    0 -0.30777245880E+03  0.15093573319E+03  0.87009679283E+01  0.36500523497E+03  0.12509049828E+03 0.  0.
         23    2    1    2    0    0  0.30777245880E+03 -0.15093573319E+03  0.10968830088E+03  0.37242845435E+03  0.95738959198E+02 0.  0.
          5    1    3    3  502    0 -0.76564508283E+02  0.45115052284E+02 -0.52681660125E+02  0.10339401136E+03  0.41800000000E+01 0.  1.
         -5    1    3    3    0  502 -0.23120795052E+03  0.10582068091E+03  0.61382628054E+02  0.26161122361E+03  0.41800000000E+01 0.  1.
        -11    1    4    4    0    0  0.20059272862E+03 -0.45802802509E+02  0.65318537194E+02  0.21587461822E+03  0.00000000000E+00 0. -1.
         11    1    4    4    0    0  0.10717973019E+03 -0.10513293068E+03  0.44369763686E+02  0.15655383613E+03  0.00000000000E+00 0.  1.
</event>
<event>
 8    1  0.5951278E-006  0.9875509E+02  0.7561462E-02  0.1282936E+00
         -1   -1    0    0    0  501 -0.00000000000E+00  0.00000000000E+00  0.74941208343E+02  0.74941208343E+02  0.00000000000E+00 0.  1.
          1   -1    0    0  501    0  0.00000000000E+00 -0.00000000000E+00 -0.17300964757E+03  0.17300964757E+03  0.00000000000E+00 0. -1.
         23    2    1    2    0    0  0.76393465526E+01  0.53467125221E+01 -0.25350673574E+02  0.12797662455E+03  0.12509361626E+03 0.  0.
         23    2    1    2    0    0 -0.76393465526E+01 -0.53467125221E+01 -0.72717765651E+02  0.11997423136E+03  0.94968393685E+02 0.  0.
          5    1    3    3  502    0 -0.17766264469E+02 -0.48398661467E+02  0.17466949362E+02  0.54595213206E+02  0.41800000000E+01 0.  1.
         -5    1    3    3    0  502  0.25405611021E+02  0.53745373989E+02 -0.42817622937E+02  0.73381411342E+02  0.41800000000E+01 0.  1.
        -11    1    4    4    0    0 -0.44561351064E+02  0.10863538076E+02 -0.12565210785E+02  0.47556440050E+02  0.00000000000E+00 0.  1.
         11    1    4    4    0    0  0.36922004511E+02 -0.16210250598E+02 -0.60152554866E+02  0.72417791312E+02  0.00000000000E+00 0. -1.
</event>
<event>
 8    1  0.5951278E-006  0.5446900E+02  0.7561462E-02  0.1422627E+00
          1   -1    0    0  501    0  0.00000000000E+00  0.00000000000E+00  0.26919607038E+03  0.26919607038E+03  0.00000000000E+00 0. -1.
         -1   -1    0    0    0  501 -0.00000000000E+00 -0.00000000000E+00 -0.65861354774E+02  0.65861354774E+02  0.00000000000E+00 0.  1.
         23    2    1    2    0    0 -0.78757556028E+00 -0.27541589963E+02  0.21676071125E+02  0.12991253105E+03  0.12509298227E+03 0.  0.
         23    2    1    2    0    0  0.78757556028E+00  0.27541589963E+02  0.18165864448E+03  0.20514489410E+03  0.91243657356E+02 0.  0.
          5    1    3    3  502    0 -0.15404544899E+02  0.53833418214E+01  0.68583000761E+02  0.70621390287E+02  0.41800000000E+01 0. -1.
         -5    1    3    3    0  502  0.14616969339E+02 -0.32924931784E+02 -0.46906929636E+02  0.59291140768E+02  0.41800000000E+01 0. -1.
        -11    1    4    4    0    0  0.14001230867E+02 -0.92193702612E+01 -0.24460741971E+01  0.16941503263E+02  0.00000000000E+00 0.  1.
         11    1    4    4    0    0 -0.13213655307E+02  0.36760960224E+02  0.18410471868E+03  0.18820339084E+03  0.00000000000E+00 0. -1.
</event>
<event>
 8    1  0.5951278E-006  0.1272442E+03  0.7561462E-02  0.1231603E+00
          1   -1    0    0  501    0  0.00000000000E+00  0.00000000000E+00  0.71518060837E+03  0.71518060837E+03  0.00000000000E+00 0. -1.
         -1   -1    0    0    0  501 -0.00000000000E+00 -0.00000000000E+00 -0.24304541903E+02  0.24304541903E+02  0.00000000000E+00 0.  1.
         23    2    1    2    0    0 -0.44755154227E+02 -0.60887172384E+02  0.37756783092E+03  0.40486505743E+03  0.12509187101E+03 0.  0.
         23    2    1    2    0    0  0.44755154227E+02  0.60887172384E+02  0.31330823554E+03  0.33462009284E+03  0.89990468831E+02 0.  0.
          5    1    3    3  502    0  0.22671751139E+02 -0.67880297278E+02  0.25329219678E+03  0.26324162362E+03  0.41800000000E+01 0. -1.
         -5    1    3    3    0  502 -0.67426905366E+02  0.69931248947E+01  0.12427563414E+03  0.14162343381E+03  0.41800000000E+01 0. -1.
        -11    1    4    4    0    0 -0.24943458459E+02  0.28955296247E+02  0.73301313078E+02  0.82666001473E+02  0.00000000000E+00 0.  1.
         11    1    4    4    0    0  0.69698612685E+02  0.31931876137E+02  0.24000692247E+03  0.25195409136E+03  0.00000000000E+00 0. -1.
</event>
<event>
 8    1  0.5951278E-006  0.1546006E+03  0.7561462E-02  0.1194931E+00
         -1   -1    0    0    0  501 -0.00000000000E+00  0.00000000000E+00  0.18873074722E+04  0.18873074722E+04  0.00000000000E+00 0.  1.
          1   -1    0    0  501    0  0.00000000000E+00 -0.00000000000E+00 -0.17698018929E+02  0.17698018929E+02  0.00000000000E+00 0. -1.
         23    2    1    2    0    0  0.57739784653E+02 -0.12865801706E+03  0.11783278725E+04  0.11933099521E+04  0.12508116743E+03 0.  0.
         23    2    1    2    0    0 -0.57739784653E+02  0.12865801706E+03  0.69128158069E+03  0.71169553901E+03  0.93560399498E+02 0.  0.
          5    1    3    3  502    0 -0.95640333468E+01 -0.70147904982E+02  0.22745477794E+03  0.23825479579E+03  0.41800000000E+01 0.  1.
         -5    1    3    3    0  502  0.67303818000E+02 -0.58510112080E+02  0.95087309460E+03  0.95505515630E+03  0.41800000000E+01 0.  1.
        -11    1    4    4    0    0 -0.36399326473E+02  0.27505615360E+02  0.83190666994E+02  0.94879697085E+02  0.00000000000E+00 0. -1.
         11    1    4    4    0    0 -0.21340458179E+02  0.10115240170E+03  0.60809091370E+03  0.61681584192E+03  0.00000000000E+00 0.  1.
</event>
<event>
 8    1  0.5951278E-006  0.1007030E+03  0.7561462E-02  0.1278825E+00
         -1   -1    0    0    0  501 -0.00000000000E+00  0.00000000000E+00  0.10245721126E+03  0.10245721126E+03  0.00000000000E+00 0.  1.
          1   -1    0    0  501    0  0.00000000000E+00 -0.00000000000E+00 -0.12982000616E+03  0.12982000616E+03  0.00000000000E+00 0. -1.
         23    2    1    2    0    0  0.13660006355E+02  0.24714403146E+02  0.99813394264E+01  0.12862566440E+03  0.12509011515E+03 0.  0.
         23    2    1    2    0    0 -0.13660006355E+02 -0.24714403146E+02 -0.37344134322E+02  0.10365155302E+03  0.92475199808E+02 0.  0.
          5    1    3    3  502    0 -0.12276343758E+02 -0.39916834544E+02  0.34856292931E+02  0.54557271312E+02  0.41800000000E+01 0.  1.
         -5    1    3    3    0  502  0.25936350113E+02  0.64631237690E+02 -0.24874953505E+02  0.74068393086E+02  0.41800000000E+01 0.  1.
        -11    1    4    4    0    0  0.33552606023E+02 -0.25986438163E+02  0.15512835446E+01  0.42467385368E+02  0.00000000000E+00 0.  1.
         11    1    4    4    0    0 -0.47212612378E+02  0.12720350173E+01 -0.38895417867E+02  0.61184167656E+02  0.00000000000E+00 0. -1.
</event>
<event>
 8    1  0.5951278E-006  0.9733860E+02  0.7561462E-02  0.1285994E+00
          2   -1    0    0  501    0  0.00000000000E+00  0.00000000000E+00  0.20764959089E+03  0.20764959089E+03  0.00000000000E+00 0. -1.
         -2   -1    0    0    0  501 -0.00000000000E+00 -0.00000000000E+00 -0.83146191960E+02  0.83146191960E+02  0.00000000000E+00 0.  1.
         23    2    1    2    0    0  0.31038757003E+02 -0.30001896217E+02  0.96736488657E+00  0.13233103986E+03  0.12508816931E+03 0.  0.
         23    2    1    2    0    0 -0.31038757003E+02  0.30001896217E+02  0.12353603405E+03  0.15846474300E+03  0.89366687599E+02 0.  0.
          5    1    3    3  502    0 -0.32532279902E+02 -0.46513920387E+02 -0.24230874435E+02  0.61858723728E+02  0.41800000000E+01 0.  1.
         -5    1    3    3    0  502  0.63571036905E+02  0.16512024169E+02  0.25198239322E+02  0.70472316127E+02  0.41800000000E+01 0.  1.
        -11    1    4    4    0    0 -0.19119836465E+02 -0.15686320053E+02  0.10477923364E+03  0.10765833263E+03  0.00000000000E+00 0. -1.
         11    1    4    4    0    0 -0.11918920538E+02  0.45688216270E+02  0.18756800408E+02  0.50806410366E+02  0.00000000000E+00 0.  1.
</event>
<event>
 8    1  0.5951278E-006  0.9243939E+02  0.7561462E-02  0.1297050E+00
          1   -1    0    0  501    0  0.00000000000E+00  0.00000000000E+00  0.14049115681E+03  0.14049115681E+03  0.00000000000E+00 0. -1.
         -1   -1    0    0    0  501 -0.00000000000E+00 -0.00000000000E+00 -0.11840285542E+03  0.11840285542E+03  0.00000000000E+00 0.  1.
         23    2    1    2    0    0 -0.57047615072E+02  0.30307482630E+02 -0.83135700060E+01  0.14103392646E+03  0.12509388106E+03 0.  0.
         23    2    1    2    0    0  0.57047615072E+02 -0.30307482630E+02  0.30401871402E+02  0.11786008576E+03  0.93775008094E+02 0.  0.
          5    1    3    3  502    0 -0.65138700014E+02  0.34562262225E+02  0.45195232869E+02  0.86589154539E+02  0.41800000000E+01 0.  1.
         -5    1    3    3    0  502  0.80910849423E+01 -0.42547795957E+01 -0.53508802875E+02  0.54444771926E+02  0.41800000000E+01 0.  1.
        -11    1    4    4    0    0  0.46680044284E+01  0.24626336111E+02 -0.15197829651E+02  0.29312467001E+02  0.00000000000E+00 0.  1.
         11    1    4    4    0    0  0.52379610644E+02 -0.54933818741E+02  0.45599701053E+02  0.88547618764E+02  0.00000000000E+00 0. -1.
</event>
<event>
 8    1  0.5951278E-006  0.9837604E+02  0.7561462E-02  0.1283748E+00
          2   -1    0    0  501    0  0.00000000000E+00  0.00000000000E+00  0.37822938706E+03  0.37822938706E+03  0.00000000000E+00 0.  1.
         -2   -1    0    0    0  501 -0.00000000000E+00 -0.00000000000E+00 -0.62853775598E+02  0.62853775598E+02  0.00000000000E+00 0. -1.
         23    2    1    2    0    0 -0.43006330349E+02 -0.11957496047E+02  0.27739496131E+02  0.13568090132E+03  0.12508917289E+03 0.  0.
         23    2    1    2    0    0  0.43006330349E+02  0.11957496047E+02  0.28763611534E+03  0.30540226135E+03  0.92430948433E+02 0.  0.
          5    1    3    3  502    0 -0.63895718918E+02  0.25858712563E+02  0.51549471372E+02  0.86175149030E+02  0.41800000000E+01 0. -1.
         -5    1    3    3    0  502  0.20889388570E+02 -0.37816208610E+02 -0.23809975242E+02  0.49505752286E+02  0.41800000000E+01 0. -1.
        -11    1    4    4    0    0  0.22613537249E+02  0.42164234531E+02  0.24353383216E+03  0.24818928693E+03  0.00000000000E+00 0.  1.
         11    1    4    4    0    0  0.20392793100E+02 -0.30206738484E+02  0.44102283180E+02  0.57212974420E+02  0.00000000000E+00 0. -1.
</event>
<event>
 8    1  0.5951278E-006  0.1348058E+03  0.7561462E-02  0.1220494E+00
          2   -1    0    0  501    0  0.00000000000E+00  0.00000000000E+00  0.29917570815E+03  0.29917570815E+03  0.00000000000E+00 0.  1.
         -2   -1    0    0    0  501 -0.00000000000E+00 -0.00000000000E+00 -0.15519891904E+03  0.15519891904E+03  0.00000000000E+00 0. -1.
         23    2    1    2    0    0 -0.10903279865E+03 -0.29232731166E+02 -0.77538383358E+02  0.18548397609E+03  0.12509756488E+03 0.  0.
         23    2    1    2    0    0  0.10903279865E+03  0.29232731166E+02  0.22151517247E+03  0.26889065110E+03  0.10242317542E+03 0.  0.
          5    1    3    3  502    0 -0.93219956680E+02 -0.58682404793E+02 -0.10842805540E+02  0.11076381985E+03  0.41800000000E+01 0. -1.
         -5    1    3    3    0  502 -0.15812841972E+02  0.29449673627E+02 -0.66695577818E+02  0.74720156239E+02  0.41800000000E+01 0. -1.
        -11    1    4    4    0    0  0.93033168185E+02  0.44898642957E+02  0.94784258550E+02  0.14019669822E+03  0.00000000000E+00 0. -1.
         11    1    4    4    0    0  0.15999630467E+02 -0.15665911791E+02  0.12673091392E+03  0.12869395289E+03  0.00000000000E+00 0.  1.
</event>
<event>
 8    1  0.5951278E-006  0.1009907E+03  0.7561462E-02  0.1278226E+00
         -2   -1    0    0    0  501 -0.00000000000E+00  0.00000000000E+00  0.11964767754E+03  0.11964767754E+03  0.00000000000E+00 0.  1.
          2   -1    0    0  501    0  0.00000000000E+00 -0.00000000000E+00 -0.11603152454E+03  0.11603152454E+03  0.00000000000E+00 0. -1.
         23    2    1    2    0    0  0.39272852032E+02 -0.17874982324E+02  0.13814566444E+02  0.13303755454E+03  0.12508507814E+03 0.  0.
         23    2    1    2    0    0 -0.39272852032E+02  0.17874982324E+02 -0.10198413444E+02  0.10264164753E+03  0.92571206494E+02 0.  0.
          5    1    3    3  502    0  0.58040302176E+02  0.20480916390E+02 -0.32646914127E+02  0.69795687652E+02  0.41800000000E+01 0.  1.
         -5    1    3    3    0  502 -0.18767450144E+02 -0.38355898714E+02  0.46461480570E+02  0.63241866891E+02  0.41800000000E+01 0.  1.
        -11    1    4    4    0    0 -0.45099447247E+02 -0.26714520109E+02  0.99697588166E+01  0.53357490735E+02  0.00000000000E+00 0. -1.
         11    1    4    4    0    0  0.58265952148E+01  0.44589502433E+02 -0.20168172261E+02  0.49284156799E+02  0.00000000000E+00 0.  1.
</event>
<event>
 8    1  0.5951278E-006  0.6942922E+02  0.7561462E-02  0.1362045E+00
          2   -1    0    0  501    0  0.00000000000E+00  0.00000000000E+00  0.25662874141E+02  0.25662874141E+02  0.00000000000E+00 0. -1.
         -2   -1    0    0    0  501 -0.00000000000E+00 -0.00000000000E+00 -0.54673442222E+03  0.54673442222E+03  0.00000000000E+00 0.  1.
         23    2    1    2    0    0 -0.47359551109E+02 -0.10177297284E+02 -0.28885450064E+03  0.31848111174E+03  0.12508713578E+03 0.  0.
         23    2    1    2    0    0  0.47359551109E+02  0.10177297284E+02 -0.23221704745E+03  0.25391618462E+03  0.90565817102E+02 0.  0.
          5    1    3    3  502    0 -0.19627607985E+02 -0.63457939877E+01 -0.28940570517E+03  0.29017003064E+03  0.41800000000E+01 0. -1.
         -5    1    3    3    0  502 -0.27731943124E+02 -0.38315032968E+01  0.55120452963E+00  0.28311081106E+02  0.41800000000E+01 0. -1.
        -11    1    4    4    0    0  0.54093201749E+02  0.34572802532E+02 -0.21205290812E+03  0.22155764260E+03  0.00000000000E+00 0.  1.
         11    1    4    4    0    0 -0.67336506401E+01 -0.24395505248E+02 -0.20164139321E+02  0.32358542022E+02  0.00000000000E+00 0. -1.
</event>
<event>
 7    1  0.5951278E-006  0.1314881E+03  0.7561462E-02  0.1225264E+00
          2   -1    0    0  501    0  0.00000000000E+00  0.00000000000E+00  0.49139812845E+03  0.49139812845E+03  0.00000000000E+00 0. -1.
         -2   -1    0    0    0  501 -0.00000000000E+00 -0.00000000000E+00 -0.39538665274E+02  0.39538665274E+02  0.00000000000E+00 0.  1.
         23    2    1    2    0    0  0.21841035879E+00 -0.40428851999E+02  0.19087551944E+03  0.21604725434E+03  0.92781530541E+02 0.  0.
          5    1    1    2  502    0  0.24392734503E+02 -0.61883816694E+02  0.13598562292E+03  0.15144033249E+03  0.41800000000E+01 0. -1.
         -5    1    1    2    0  502 -0.24611144862E+02  0.10231266869E+03  0.12499832082E+03  0.16344920690E+03  0.41800000000E+01 0.  1.
        -11    1    3    3    0    0  0.20581194242E+01 -0.65671343745E+02  0.17301423150E+03  0.18506994771E+03  0.00000000000E+00 0.  1.
         11    1    3    3    0    0 -0.18397090654E+01  0.25242491746E+02  0.17861287938E+02  0.30977306626E+02  0.00000000000E+00 0. -1.
</event>
<event>
 8    1  0.5951278E-006  0.1447523E+03  0.7561462E-02  0.1207074E+00
          3   -1    0    0  501    0  0.00000000000E+00  0.00000000000E+00  0.13260320505E+03  0.13260320505E+03  0.00000000000E+00 0. -1.
         -3   -1    0    0    0  501 -0.00000000000E+00 -0.00000000000E+00 -0.28375037395E+03  0.28375037395E+03  0.00000000000E+00 0.  1.
         23    2    1    2    0    0 -0.21442406821E+02 -0.98803788991E+02 -0.21593445289E+03  0.26473755927E+03  0.11504921475E+03 0.  0.
         23    2    1    2    0    0  0.21442406821E+02  0.98803788991E+02  0.64787283994E+02  0.15161601973E+03  0.92563814427E+02 0.  0.
          5    1    3    3  502    0  0.11680299876E+02  0.23029471652E+02 -0.28258458060E+02  0.38507126895E+02  0.41800000000E+01 0. -1.
         -5    1    3    3    0  502 -0.33122706697E+02 -0.12183326064E+03 -0.18767599483E+03  0.22623043238E+03  0.41800000000E+01 0.  1.
        -11    1    4    4    0    0  0.57967865077E+02  0.66941956459E+02  0.43916395530E+02  0.98844062606E+02  0.00000000000E+00 0. -1.
         11    1    4    4    0    0 -0.36525458256E+02  0.31861832532E+02  0.20870888463E+02  0.52771957121E+02  0.00000000000E+00 0.  1.
</event>
<event>
 8    1  0.5951278E-006  0.9778832E+02  0.7561462E-02  0.1285017E+00
          2   -1    0    0  501    0  0.00000000000E+00  0.00000000000E+00  0.10736888009E+03  0.10736888009E+03  0.00000000000E+00 0. -1.
         -2   -1    0    0    0  501 -0.00000000000E+00 -0.00000000000E+00 -0.17639260677E+03  0.17639260677E+03  0.00000000000E+00 0.  1.
         23    2    1    2    0    0  0.26197267949E+02  0.34983312935E+02 -0.10786201735E+03  0.17085699820E+03  0.12509104690E+03 0.  0.
         23    2    1    2    0    0 -0.26197267949E+02 -0.34983312935E+02  0.38838290668E+02  0.11290448867E+03  0.96586136207E+02 0.  0.
          5    1    3    3  502    0  0.46959864463E+02  0.48931509012E+02 -0.86994710384E+01  0.68503099498E+02  0.41800000000E+01 0.  1.
         -5    1    3    3    0  502 -0.20762596514E+02 -0.13948196077E+02 -0.99162546310E+02  0.10235389870E+03  0.41800000000E+01 0.  1.
        -11    1    4    4    0    0 -0.29267944523E+01 -0.64564790282E+02  0.38572074390E+02  0.75266082618E+02  0.00000000000E+00 0.  1.
         11    1    4    4    0    0 -0.23270473497E+02  0.29581477348E+02  0.26621627810E+00  0.37638406049E+02  0.00000000000E+00 0. -1.
</event>
<event>
 8    1  0.5951278E-006  0.2025931E+03  0.7561462E-02  0.1147569E+00
         -1   -1    0    0    0  501 -0.00000000000E+00  0.00000000000E+00  0.76747020026E+02  0.76747020026E+02  0.00000000000E+00 0.  1.
          1   -1    0    0  501    0  0.00000000000E+00 -0.00000000000E+00 -0.57575317875E+03  0.57575317875E+03  0.00000000000E+00 0. -1.
         23    2    1    2    0    0 -0.62891542826E+02  0.16722828732E+03 -0.28880075062E+03  0.36190443865E+03  0.12509317693E+03 0.  0.
         23    2    1    2    0    0  0.62891542826E+02 -0.16722828732E+03 -0.21020540810E+03  0.29059576012E+03  0.91317774641E+02 0.  0.
          5    1    3    3  502    0 -0.51152271614E+00  0.15277181978E+03 -0.18619185972E+03  0.24088248504E+03  0.41800000000E+01 0. -1.
         -5    1    3    3    0  502 -0.62380020110E+02  0.14456467541E+02 -0.10260889091E+03  0.12102195361E+03  0.41800000000E+01 0. -1.
        -11    1    4    4    0    0  0.12147817530E+01 -0.86915818066E+02 -0.47781217948E+02  0.99191128199E+02  0.00000000000E+00 0.  1.
         11    1    4    4    0    0  0.61676761073E+02 -0.80312469259E+02 -0.16242419015E+03  0.19140463192E+03  0.00000000000E+00 0. -1.
</event>
<event>
 8    1  0.5951278E-006  0.9172570E+02  0.7561462E-02  0.1298726E+00
          2   -1    0    0  501    0  0.00000000000E+00  0.00000000000E+00  0.34325887851E+03  0.34325887851E+03  0.00000000000E+00 0. -1.
         -2   -1    0    0    0  501 -0.00000000000E+00 -0.00000000000E+00 -0.35135098896E+02  0.35135098896E+02  0.00000000000E+00 0.  1.
         23    2    1    2    0    0 -0.30464698402E+01 -0.29340621196E+01  0.14372900654E+03  0.19060098550E+03  0.12511122513E+03 0.  0.
         23    2    1    2    0    0  0.30464698402E+01  0.29340621196E+01  0.16439477307E+03  0.18779299190E+03  0.90678976036E+02 0.  0.
          5    1    3    3  502    0  0.73858435536E+01 -0.48484285971E+02  0.13390813535E+03  0.14266792836E+03  0.41800000000E+01 0. -1.
         -5    1    3    3    0  502 -0.10432313394E+02  0.45550223851E+02  0.98208711903E+01  0.47933057138E+02  0.41800000000E+01 0. -1.
        -11    1    4    4    0    0 -0.29589590473E+02 -0.29158380447E+02  0.52851597303E+02  0.67223852553E+02  0.00000000000E+00 0. -1.
         11    1    4    4    0    0  0.32636060313E+02  0.32092442566E+02  0.11154317577E+03  0.12056913935E+03  0.00000000000E+00 0.  1.
</event>
<event>
 8    1  0.5951278E-006  0.1804436E+03  0.7561462E-02  0.1167374E+00
          2   -1    0    0  501    0  0.00000000000E+00  0.00000000000E+00  0.13453172374E+04  0.13453172374E+04  0.00000000000E+00 0.  1.
         -2   -1    0    0    0  501 -0.00000000000E+00 -0.00000000000E+00 -0.32651148394E+02  0.32651148394E+02  0.00000000000E+00 0. -1.
         23    2    1    2    0    0  0.17126201434E+03  0.21660471798E+02  0.83573191120E+03  0.86249598736E+03  0.12510654347E+03 0.  0.
         23    2    1    2    0    0 -0.17126201434E+03 -0.21660471798E+02  0.47693417778E+03  0.51547239840E+03  0.91900652833E+02 0.  0.
          5    1    3    3  502    0  0.12923123730E+03  0.21003352224E+02  0.33067915487E+03  0.35567967241E+03  0.41800000000E+01 0.  1.
         -5    1    3    3    0  502  0.42030777041E+02  0.65711957421E+00  0.50505275633E+03  0.50681631495E+03  0.41800000000E+01 0.  1.
        -11    1    4    4    0    0 -0.54037016778E+02  0.27383632777E+02  0.22892612661E+03  0.23680589936E+03  0.00000000000E+00 0.  1.
         11    1    4    4    0    0 -0.11722499756E+03 -0.49044104575E+02  0.24800805117E+03  0.27866649905E+03  0.00000000000E+00 0. -1.
</event>
<event>
 8    1  0.5951278E-006  0.1786812E+03  0.7561462E-02  0.1169085E+00
          1   -1    0    0  501    0  0.00000000000E+00  0.00000000000E+00  0.80004447896E+03  0.80004447896E+03  0.00000000000E+00 0. -1.
         -1   -1    0    0    0  501 -0.00000000000E+00 -0.00000000000E+00 -0.54777583779E+02  0.54777583779E+02  0.00000000000E+00 0.  1.
         23    2    1    2    0    0  0.45883544290E+01 -0.17745898946E+03  0.41502956322E+03  0.46841190654E+03  0.12508968747E+03 0.  0.
         23    2    1    2    0    0 -0.45883544290E+01  0.17745898946E+03  0.33023733196E+03  0.38641015619E+03  0.93505975480E+02 0.  0.
          5    1    3    3  502    0  0.13648031676E+02 -0.50365592258E+02  0.27124234729E+03  0.27624779640E+03  0.41800000000E+01 0.  1.
         -5    1    3    3    0  502 -0.90596772468E+01 -0.12709339720E+03  0.14378721593E+03  0.19216411015E+03  0.41800000000E+01 0.  1.
        -11    1    4    4    0    0 -0.66721920035E+00  0.61467647896E+02  0.21199684819E+03  0.22072920188E+03  0.00000000000E+00 0. -1.
         11    1    4    4    0    0 -0.39211352286E+01  0.11599134156E+03  0.11824048377E+03  0.16568095431E+03  0.00000000000E+00 0.  1.
</event>
<event>
 8    1  0.5951278E-006  0.1394448E+03  0.7561462E-02  0.1214078E+00
          1   -1    0    0  501    0  0.00000000000E+00  0.00000000000E+00  0.40369017731E+03  0.40369017731E+03  0.00000000000E+00 0. -1.
         -1   -1    0    0    0  501 -0.00000000000E+00 -0.00000000000E+00 -0.74585134758E+02  0.74585134758E+02  0.00000000000E+00 0.  1.
         23    2    1    2    0    0  0.47057382336E+02  0.10762798954E+03  0.83567152587E+02  0.19086539839E+03  0.12509176611E+03 0.  0.
         23    2    1    2    0    0 -0.47057382336E+02 -0.10762798954E+03  0.24553788996E+03  0.28740991367E+03  0.92289878673E+02 0.  0.
          5    1    3    3  502    0  0.12870824840E+02 -0.62880246553E+01 -0.25430523790E+02  0.29485273043E+02  0.41800000000E+01 0.  1.
         -5    1    3    3    0  502  0.34186557495E+02  0.11391601419E+03  0.10899767638E+03  0.16138012535E+03  0.41800000000E+01 0.  1.
        -11    1    4    4    0    0 -0.39666236363E+02 -0.12227755190E+03  0.23513754809E+03  0.26798297806E+03  0.00000000000E+00 0. -1.
         11    1    4    4    0    0 -0.73911459727E+01  0.14649562365E+02  0.10400341868E+02  0.19426935612E+02  0.00000000000E+00 0.  1.
</event>
<event>
 8    1  0.5951278E-006  0.1328040E+03  0.7561462E-02  0.1223353E+00
         -2   -1    0    0    0  501 -0.00000000000E+00  0.00000000000E+00  0.34306333759E+03  0.34306333759E+03  0.00000000000E+00 0.  1.
          2   -1    0    0  501    0  0.00000000000E+00 -0.00000000000E+00 -0.89331069260E+02  0.89331069260E+02  0.00000000000E+00 0. -1.
         23    2    1    2    0    0 -0.80599425143E+02  0.52230051862E+01  0.27182935101E+03  0.30993945756E+03  0.12509086363E+03 0.  0.
         23    2    1    2    0    0  0.80599425143E+02 -0.52230051862E+01 -0.18097082688E+02  0.12245494929E+03  0.90245016960E+02 0.  0.
          5    1    3    3  502    0 -0.50098957267E+02 -0.59000527942E+02  0.13436131162E+03  0.15511738225E+03  0.41800000000E+01 0.  1.
         -5    1    3    3    0  502 -0.30500467876E+02  0.64223533128E+02  0.13746803939E+03  0.15482207531E+03  0.41800000000E+01 0.  1.
        -11    1    4    4    0    0  0.96410376146E+02 -0.16012920146E+02 -0.24996704052E+01  0.97763094224E+02  0.00000000000E+00 0.  1.
         11    1    4    4    0    0 -0.15810951002E+02  0.10789914960E+02 -0.15597412283E+02  0.24691855061E+02  0.00000000000E+00 0. -1.
</event>
<event>
 8    1  0.5951278E-006  0.1239945E+03  0.7561462E-02  0.1236649E+00
          3   -1    0    0  501    0  0.00000000000E+00  0.00000000000E+00  0.13017350160E+03  0.13017350160E+03  0.00000000000E+00 0. -1.
         -3   -1    0    0    0  501 -0.00000000000E+00 -0.00000000000E+00 -0.14080683571E+03  0.14080683571E+03  0.00000000000E+00 0.  1.
         23    2    1    2    0    0 -0.76757261288E+02  0.23296596467E+02 -0.80738258744E+01  0.14881829575E+03  0.12508912789E+03 0.  0.
         23    2    1    2    0    0  0.76757261288E+02 -0.23296596467E+02 -0.25595082339E+01  0.12216204157E+03  0.92101057270E+02 0.  0.
          5    1    3    3  502    0 -0.23093922254E+02 -0.43742206746E+02 -0.32632625161E+02  0.59405980515E+02  0.41800000000E+01 0. -1.
         -5    1    3    3    0  502 -0.53663339035E+02  0.67038803213E+02  0.24558799286E+02  0.89412315231E+02  0.41800000000E+01 0. -1.
        -11    1    4    4    0    0  0.33380692099E+02  0.29148627224E+02 -0.24520659370E+02  0.50647564699E+02  0.00000000000E+00 0.  1.
         11    1    4    4    0    0  0.43376569189E+02 -0.52445223691E+02  0.21961151136E+02  0.71514476869E+02  0.00000000000E+00 0. -1.
</event>
<event>
 8    1  0.5951278E-006  0.1758657E+03  0.7561462E-02  0.1171865E+00
         -2   -1    0    0    0  501 -0.00000000000E+00  0.00000000000E+00  0.16452093941E+03  0.16452093941E+03  0.00000000000E+00 0.  1.
          2   -1    0    0  501    0  0.00000000000E+00 -0.00000000000E+00 -0.24584908813E+03  0.24584908813E+03  0.00000000000E+00 0. -1.
         23    2    1    2    0    0 -0.16911401686E+03  0.77064625845E+01 -0.32951162294E+02  0.21304568163E+03  0.12507494993E+03 0.  0.
         23    2    1    2    0    0  0.16911401686E+03 -0.77064625845E+01 -0.48376986423E+02  0.19732434591E+03  0.89093346612E+02 0.  0.
          5    1    3    3  502    0 -0.65615169424E+02 -0.13031770589E+02 -0.73880911220E+02  0.99754894346E+02  0.41800000000E+01 0.  1.
         -5    1    3    3    0  502 -0.10349884743E+03  0.20738233174E+02  0.40929748927E+02  0.11329078728E+03  0.41800000000E+01 0.  1.
        -11    1    4    4    0    0  0.52438305268E+02 -0.29802769295E+02  0.15788344020E+02  0.62347836562E+02  0.00000000000E+00 0.  1.
         11    1    4    4    0    0  0.11667571159E+03  0.22096306710E+02 -0.64165330444E+02  0.13497650935E+03  0.00000000000E+00 0. -1.
</event>
<event>
 8    1  0.5951278E-006  0.1638950E+03  0.7561462E-02  0.1184368E+00
          1   -1    0    0  501    0  0.00000000000E+00  0.00000000000E+00  0.15459996309E+03  0.15459996309E+03  0.00000000000E+00 0. -1.
         -1   -1    0    0    0  501 -0.00000000000E+00 -0.00000000000E+00 -0.19017594894E+03  0.19017594894E+03  0.00000000000E+00 0.  1.
         23    2    1    2    0    0  0.78195923486E+02  0.95823702350E+02 -0.64887038108E+02  0.18749675884E+03  0.12509165631E+03 0.  0.
         23    2    1    2    0    0 -0.78195923486E+02 -0.95823702350E+02  0.29311052254E+02  0.15727915318E+03  0.92632660872E+02 0.  0.
          5    1    3    3  502    0  0.53135758515E+02 -0.20247803914E+02 -0.18482282996E+02  0.59937046816E+02  0.41800000000E+01 0.  1.
         -5    1    3    3    0  502  0.25060164971E+02  0.11607150626E+03 -0.46404755111E+02  0.12755971202E+03  0.41800000000E+01 0.  1.
        -11    1    4    4    0    0 -0.70740010497E+02 -0.16967789924E+02 -0.21635034793E+00  0.72746833522E+02  0.00000000000E+00 0.  1.
         11    1    4    4    0    0 -0.74559129885E+01 -0.78855912426E+02  0.29527402602E+02  0.84532319662E+02  0.00000000000E+00 0. -1.
</event>
<event>
 8    1  0.5951278E-006  0.1261596E+03  0.7561462E-02  0.1233268E+00
         -1   -1    0    0    0  501 -0.00000000000E+00  0.00000000000E+00  0.15410240025E+03  0.15410240025E+03  0.00000000000E+00 0.  1.
          1   -1    0    0  501    0  0.00000000000E+00 -0.00000000000E+00 -0.24537615608E+03  0.24537615608E+03  0.00000000000E+00 0. -1.
         23    2    1    2    0    0 -0.86904687778E+02  0.70780431277E+02  0.70502553882E+02  0.18216933551E+03  0.12511100066E+03 0.  0.
         23    2    1    2    0    0  0.86904687778E+02 -0.70780431277E+02 -0.16177630971E+03  0.21730922082E+03  0.92138096679E+02 0.  0.
          5    1    3    3  502    0 -0.12504000929E+02 -0.14580481310E+01  0.77044790982E+02  0.78178310042E+02  0.41800000000E+01 0.  1.
         -5    1    3    3    0  502 -0.74400686849E+02  0.72238479408E+02 -0.65422371003E+01  0.10399102546E+03  0.41800000000E+01 0.  1.
        -11    1    4    4    0    0  0.76002121047E+02 -0.13786671146E+02 -0.51923138112E+02  0.93072052606E+02  0.00000000000E+00 0.  1.
         11    1    4    4    0    0  0.10902566732E+02 -0.56993760131E+02 -0.10985317160E+03  0.12423716821E+03  0.00000000000E+00 0. -1.
</event>
<event>
 8    1  0.5951278E-006  0.1112691E+03  0.7561462E-02  0.1258238E+00
         -1   -1    0    0    0  501 -0.00000000000E+00  0.00000000000E+00  0.33418780725E+03  0.33418780725E+03  0.00000000000E+00 0.  1.
          1   -1    0    0  501    0  0.00000000000E+00 -0.00000000000E+00 -0.14621660650E+03  0.14621660650E+03  0.00000000000E+00 0. -1.
         23    2    1    2    0    0 -0.38497610789E+02 -0.21081862834E+02  0.30031994841E+03  0.32860958030E+03  0.12595901666E+03 0.  0.
         23    2    1    2    0    0  0.38497610789E+02  0.21081862834E+02 -0.11234874766E+03  0.15179483345E+03  0.92157036541E+02 0.  0.
          5    1    3    3  502    0  0.34122356364E+02  0.20090090263E+02  0.45655294429E+02  0.60579082528E+02  0.41800000000E+01 0. -1.
         -5    1    3    3    0  502 -0.72619967153E+02 -0.41171953097E+02  0.25466465398E+03  0.26803049777E+03  0.41800000000E+01 0.  1.
        -11    1    4    4    0    0  0.91941154250E+01  0.54166318650E+02 -0.43937555515E+02  0.70349346970E+02  0.00000000000E+00 0. -1.
         11    1    4    4    0    0  0.29303495364E+02 -0.33084455815E+02 -0.68411192143E+02  0.81445486477E+02  0.00000000000E+00 0.  1.
</event>
<event>
 8    1  0.5951278E-006  0.1490024E+03  0.7561462E-02  0.1201704E+00
         -1   -1    0    0    0  501 -0.00000000000E+00  0.00000000000E+00  0.17914749267E+03  0.17914749267E+03  0.00000000000E+00 0.  1.
          1   -1    0    0  501    0  0.00000000000E+00 -0.00000000000E+00 -0.14380666520E+03  0.14380666520E+03  0.00000000000E+00 0. -1.
         23    2    1    2    0    0 -0.22841338840E+02 -0.11375116425E+03  0.60608543862E+02  0.17310113686E+03  0.11326762054E+03 0.  0.
         23    2    1    2    0    0  0.22841338840E+02  0.11375116425E+03 -0.25267716391E+02  0.14985302101E+03  0.91413436014E+02 0.  0.
          5    1    3    3  502    0 -0.18719358200E+01 -0.12915292942E+03  0.67588008497E+02  0.14584099086E+03  0.41800000000E+01 0. -1.
         -5    1    3    3    0  502 -0.20969403020E+02  0.15401765168E+02 -0.69794646354E+01  0.27260146000E+02  0.41800000000E+01 0.  1.
        -11    1    4    4    0    0 -0.22749282347E+02  0.33751715057E+01  0.10369724736E+02  0.25228016591E+02  0.00000000000E+00 0. -1.
         11    1    4    4    0    0  0.45590621187E+02  0.11037599275E+03 -0.35637441127E+02  0.12462500441E+03  0.00000000000E+00 0.  1.
</event>
<event>
 8    1  0.5951278E-006  0.1707881E+03  0.7561462E-02  0.1177029E+00
         -1   -1    0    0    0  501 -0.00000000000E+00  0.00000000000E+00  0.53583809465E+03  0.53583809465E+03  0.00000000000E+00 0.  1.
          1   -1    0    0  501    0  0.00000000000E+00 -0.00000000000E+00 -0.65243443123E+02  0.65243443123E+02  0.00000000000E+00 0. -1.
         23    2    1    2    0    0 -0.11148329034E+03 -0.94109410132E+02  0.31253715353E+03  0.36690076632E+03  0.12510633433E+03 0.  0.
         23    2    1    2    0    0  0.11148329034E+03  0.94109410132E+02  0.15805749800E+03  0.23418077146E+03  0.92592418404E+02 0.  0.
          5    1    3    3  502    0  0.19845941523E+02 -0.40504409808E+02  0.11562222711E+03  0.12417906591E+03  0.41800000000E+01 0. -1.
         -5    1    3    3    0  502 -0.13132923186E+03 -0.53605000324E+02  0.19691492642E+03  0.24272170040E+03  0.41800000000E+01 0. -1.
        -11    1    4    4    0    0  0.54771420148E+02  0.78188619966E+02  0.42542671170E+02  0.10451434173E+03  0.00000000000E+00 0. -1.
         11    1    4    4    0    0  0.56711870193E+02  0.15920790165E+02  0.11551482683E+03  0.12966642973E+03  0.00000000000E+00 0.  1.
</event>
<event>
 8    1  0.5951278E-006  0.7054967E+02  0.7561462E-02  0.1358234E+00
          2   -1    0    0  501    0  0.00000000000E+00  0.00000000000E+00  0.12287377722E+03  0.12287377722E+03  0.00000000000E+00 0. -1.
         -2   -1    0    0    0  501 -0.00000000000E+00 -0.00000000000E+00 -0.15656825434E+03  0.15656825434E+03  0.00000000000E+00 0.  1.
         23    2    1    2    0    0 -0.13311292544E+02  0.41488812753E+02 -0.93769147685E+02  0.16229452896E+03  0.12509336105E+03 0.  0.
         23    2    1    2    0    0  0.13311292544E+02 -0.41488812753E+02  0.60074670570E+02  0.11714750260E+03  0.90642480266E+02 0.  0.
          5    1    3    3  502    0  0.63689081303E+01  0.61100161092E+02 -0.11269478333E+03  0.12841876524E+03  0.41800000000E+01 0.  1.
         -5    1    3    3    0  502 -0.19680200674E+02 -0.19611348339E+02  0.18925635649E+02  0.33875763711E+02  0.41800000000E+01 0.  1.
        -11    1    4    4    0    0  0.21087899738E+02 -0.22134365810E+02 -0.18579450496E+02  0.35774650884E+02  0.00000000000E+00 0.  1.
         11    1    4    4    0    0 -0.77766071947E+01 -0.19354446943E+02  0.78654121066E+02  0.81372851717E+02  0.00000000000E+00 0. -1.
</event>
<event>
 7    1  0.5951278E-006  0.1989666E+03  0.7561462E-02  0.1150614E+00
         -2   -1    0    0    0  501 -0.00000000000E+00  0.00000000000E+00  0.34679341679E+02  0.34679341679E+02  0.00000000000E+00 0.  1.
          2   -1    0    0  501    0  0.00000000000E+00 -0.00000000000E+00 -0.14605501806E+04  0.14605501806E+04  0.00000000000E+00 0. -1.
         23    2    1    2    0    0 -0.10515331884E+02  0.14597366190E+03 -0.49692009302E+03  0.53291391468E+03  0.12509508160E+03 0.  0.
          5    1    3    3  502    0 -0.11981762416E+02  0.50300417264E+02 -0.38516495438E+02  0.64611821119E+02  0.41800000000E+01 0.  1.
         -5    1    3    3    0  502  0.14664305318E+01  0.95673244639E+02 -0.45840359759E+03  0.46830209356E+03  0.41800000000E+01 0.  1.
        -11    1    1    2    0    0  0.10308054011E+03 -0.42643345131E+02 -0.45530903772E+03  0.46877539661E+03  0.00000000000E+00 0.  1.
         11    1    1    2    0    0 -0.92565208227E+02 -0.10333031677E+03 -0.47364170821E+03  0.49354021102E+03  0.00000000000E+00 0. -1.
</event>
<event>
 8    1  0.5951278E-006  0.1198178E+03  0.7561462E-02  0.1243398E+00
         -2   -1    0    0    0  501 -0.00000000000E+00  0.00000000000E+00  0.39751188228E+02  0.39751188228E+02  0.00000000000E+00 0.  1.
          2   -1    0    0  501    0  0.00000000000E+00 -0.00000000000E+00 -0.41397336541E+03  0.41397336541E+03  0.00000000000E+00 0. -1.
         23    2    1    2    0    0 -0.20840321733E+02  0.60632169749E+02 -0.16853095562E+03  0.21945520971E+03  0.12508927631E+03 0.  0.
         23    2    1    2    0    0  0.20840321733E+02 -0.60632169749E+02 -0.20569122156E+03  0.23426934393E+03  0.91992759822E+02 0.  0.
          5    1    3    3  502    0  0.39904007875E+02  0.60883893239E+02 -0.57635634973E+02  0.92943623338E+02  0.41800000000E+01 0. -1.
         -5    1    3    3    0  502 -0.60744329608E+02 -0.25172349069E+00 -0.11089532065E+03  0.12651158637E+03  0.41800000000E+01 0. -1.
        -11    1    4    4    0    0  0.66391468190E+00  0.21371828439E+02 -0.16246320028E+02  0.26854026663E+02  0.00000000000E+00 0.  1.
         11    1    4    4    0    0  0.20176407051E+02 -0.82003998188E+02 -0.18944490153E+03  0.20741531727E+03  0.00000000000E+00 0. -1.
</event>
<event>
 8    1  0.5951278E-006  0.1285089E+03  0.7561462E-02  0.1229685E+00
         -1   -1    0    0    0  501 -0.00000000000E+00  0.00000000000E+00  0.35415830878E+03  0.35415830878E+03  0.00000000000E+00 0.  1.
          1   -1    0    0  501    0  0.00000000000E+00 -0.00000000000E+00 -0.84098750870E+02  0.84098750870E+02  0.00000000000E+00 0. -1.
         23    2    1    2    0    0 -0.89963196688E+02 -0.69153387069E+02  0.23447860740E+03  0.28896880729E+03  0.12508871474E+03 0.  0.
         23    2    1    2    0    0  0.89963196688E+02  0.69153387069E+02  0.35580950519E+02  0.14928825237E+03  0.90251928255E+02 0.  0.
          5    1    3    3  502    0  0.56029754679E+01 -0.44541747179E+01 -0.13259170234E+02  0.15636847566E+02  0.41800000000E+01 0.  1.
         -5    1    3    3    0  502 -0.95566172156E+02 -0.64699212351E+02  0.24773777763E+03  0.27333195972E+03  0.41800000000E+01 0.  1.
        -11    1    4    4    0    0  0.98396646921E+02  0.46026884192E+02  0.32832353826E+01  0.10867913244E+03  0.00000000000E+00 0. -1.
         11    1    4    4    0    0 -0.84334502328E+01  0.23126502877E+02  0.32297715136E+02  0.40609119926E+02  0.00000000000E+00 0.  1.
</event>
<event>
 8    1  0.5951278E-006  0.1589802E+03  0.7561462E-02  0.1189853E+00
         -2   -1    0    0    0  501 -0.00000000000E+00  0.00000000000E+00  0.41174854953E+02  0.41174854953E+02  0.00000000000E+00 0.  1.
          2   -1    0    0  501    0  0.00000000000E+00 -0.00000000000E+00 -0.80869544380E+03  0.80869544380E+03  0.00000000000E+00 0. -1.
         23    2    1    2    0    0 -0.12530424887E+03  0.55898296728E+02 -0.28640784503E+03  0.34132473137E+03  0.12508934483E+03 0.  0.
         23    2    1    2    0    0  0.12530424887E+03 -0.55898296728E+02 -0.48111274382E+03  0.50854556738E+03  0.91232381749E+02 0.  0.
          5    1    3    3  502    0 -0.10205418638E+03  0.83286093282E+02 -0.27227353173E+03  0.30249294004E+03  0.41800000000E+01 0.  1.
         -5    1    3    3    0  502 -0.23250062488E+02 -0.27387796554E+02 -0.14134313304E+02  0.38831791336E+02  0.41800000000E+01 0.  1.
        -11    1    4    4    0    0  0.81393363522E+02 -0.32698826426E+01 -0.15282795709E+03  0.17318185883E+03  0.00000000000E+00 0.  1.
         11    1    4    4    0    0  0.43910885349E+02 -0.52628414086E+02 -0.32828478673E+03  0.33536370856E+03  0.00000000000E+00 0. -1.
</event>
<event>
 8    1  0.5951278E-006  0.1895515E+03  0.7561462E-02  0.1158866E+00
         -1   -1    0    0    0  501 -0.00000000000E+00  0.00000000000E+00  0.42006565604E+03  0.42006565604E+03  0.00000000000E+00 0.  1.
          1   -1    0    0  501    0  0.00000000000E+00 -0.00000000000E+00 -0.96035209771E+02  0.96035209771E+02  0.00000000000E+00 0. -1.
         23    2    1    2    0    0  0.13145438002E+03 -0.10550293141E+03  0.18281735669E+03  0.27835318334E+03  0.12508871333E+03 0.  0.
         23    2    1    2    0    0 -0.13145438002E+03  0.10550293141E+03  0.14121308958E+03  0.23774768247E+03  0.90397462862E+02 0.  0.
          5    1    3    3  502    0  0.15375952179E+03 -0.10459760476E+03  0.15287243801E+03  0.24076981573E+03  0.41800000000E+01 0.  1.
         -5    1    3    3    0  502 -0.22305141773E+02 -0.90532665343E+00  0.29944918688E+02  0.37583367612E+02  0.41800000000E+01 0.  1.
        -11    1    4    4    0    0 -0.95006827928E+02  0.89675880077E+02  0.52977354936E+02  0.14097751933E+03  0.00000000000E+00 0. -1.
         11    1    4    4    0    0 -0.36447552092E+02  0.15827051332E+02  0.88235734641E+02  0.96770163145E+02  0.00000000000E+00 0.  1.
</event>
<event>
 8    1  0.5951278E-006  0.1591559E+03  0.7561462E-02  0.1189653E+00
          2   -1    0    0  501    0  0.00000000000E+00  0.00000000000E+00  0.80605947755E+03  0.80605947755E+03  0.00000000000E+00 0. -1.
         -2   -1    0    0    0  501 -0.00000000000E+00 -0.00000000000E+00 -0.37835492596E+02  0.37835492596E+02  0.00000000000E+00 0.  1.
         23    2    1    2    0    0  0.12898594367E+03 -0.45426914450E+02  0.39378164785E+03  0.43521598497E+03  0.12509192285E+03 0.  0.
         23    2    1    2    0    0 -0.12898594367E+03  0.45426914450E+02  0.37444233710E+03  0.40867898518E+03  0.90058152843E+02 0.  0.
          5    1    3    3  502    0  0.14261367552E+03 -0.98513262808E+01  0.34279322819E+03  0.37143018021E+03  0.41800000000E+01 0. -1.
         -5    1    3    3    0  502 -0.13627731849E+02 -0.35575588169E+02  0.50988419664E+02  0.63785804759E+02  0.41800000000E+01 0. -1.
        -11    1    4    4    0    0 -0.51797059678E+02  0.22296676041E+02  0.27482572702E+03  0.28055170180E+03  0.00000000000E+00 0. -1.
         11    1    4    4    0    0 -0.77188883994E+02  0.23130238409E+02  0.99616610077E+02  0.12812728337E+03  0.00000000000E+00 0.  1.
</event>
<event>
 8    1  0.5951278E-006  0.1440558E+03  0.7561462E-02  0.1207973E+00
          3   -1    0    0  501    0  0.00000000000E+00  0.00000000000E+00  0.14042227842E+03  0.14042227842E+03  0.00000000000E+00 0. -1.
         -3   -1    0    0    0  501 -0.00000000000E+00 -0.00000000000E+00 -0.25482160882E+03  0.25482160882E+03  0.00000000000E+00 0.  1.
         23    2    1    2    0    0  0.10047350960E+03  0.60033247718E+02 -0.16551106227E+03  0.23820295163E+03  0.12509123659E+03 0.  0.
         23    2    1    2    0    0 -0.10047350960E+03 -0.60033247718E+02  0.51111731870E+02  0.15704093561E+03  0.91381230893E+02 0.  0.
          5    1    3    3  502    0 -0.18177367545E+02 -0.16976223283E+02 -0.48153968374E+02  0.54358862368E+02  0.41800000000E+01 0.  1.
         -5    1    3    3    0  502  0.11865087715E+03  0.77009471000E+02 -0.11735709389E+03  0.18384408927E+03  0.41800000000E+01 0.  1.
        -11    1    4    4    0    0 -0.49183404229E+02 -0.10953456580E+02 -0.22136990762E+02  0.55036640728E+02  0.00000000000E+00 0.  1.
         11    1    4    4    0    0 -0.51290105373E+02 -0.49079791137E+02  0.73248722633E+02  0.10200429488E+03  0.00000000000E+00 0. -1.
</event>
<event>
 8    1  0.5951278E-006  0.1337906E+03  0.7561462E-02  0.1221937E+00
         -2   -1    0    0    0  501 -0.00000000000E+00  0.00000000000E+00  0.12222634780E+03  0.12222634780E+03  0.00000000000E+00 0.  1.
          2   -1    0    0  501    0  0.00000000000E+00 -0.00000000000E+00 -0.21351909512E+03  0.21351909512E+03  0.00000000000E+00 0. -1.
         23    2    1    2    0    0  0.35995401357E+02  0.93447882598E+02  0.19209711915E+02  0.16135864930E+03  0.12505768665E+03 0.  0.
         23    2    1    2    0    0 -0.35995401357E+02 -0.93447882598E+02 -0.11050245923E+03  0.17438679362E+03  0.90397923724E+02 0.  0.
          5    1    3    3  502    0 -0.61346482270E+01 -0.19193027739E+02  0.34383522667E+02  0.40071252209E+02  0.41800000000E+01 0.  1.
         -5    1    3    3    0  502  0.42130049584E+02  0.11264091034E+03 -0.15173810751E+02  0.12128739709E+03  0.41800000000E+01 0.  1.
        -11    1    4    4    0    0  0.23108042860E+02 -0.43622249473E+02 -0.73861790400E+02  0.88839441551E+02  0.00000000000E+00 0. -1.
         11    1    4    4    0    0 -0.59103444216E+02 -0.49825633124E+02 -0.36640668831E+02  0.85547352074E+02  0.00000000000E+00 0.  1.
</event>
<event>
 7    1  0.5951278E-006  0.1632435E+03  0.7561462E-02  0.1185083E+00
         -1   -1    0    0    0  501 -0.00000000000E+00  0.00000000000E+00  0.23414587401E+03  0.23414587401E+03  0.00000000000E+00 0.  1.
          1   -1    0    0  501    0  0.00000000000E+00 -0.00000000000E+00 -0.36783745432E+03  0.36783745432E+03  0.00000000000E+00 0. -1.
         23    2    1    2    0    0  0.61729129474E+02  0.92127990878E+02 -0.28733728673E+03  0.32127153396E+03  0.91403665464E+02 0.  0.
          5    1    1    2  502    0 -0.10918339454E+03 -0.16853883508E+01  0.17822746880E+02  0.11072026410E+03  0.41800000000E+01 0. -1.
         -5    1    1    2    0  502  0.47454265061E+02 -0.90442602527E+02  0.13582295954E+03  0.16999153027E+03  0.41800000000E+01 0.  1.
        -11    1    3    3    0    0  0.80767743162E+01  0.37727348385E+02 -0.20636564587E+03  0.20994134155E+03  0.00000000000E+00 0. -1.
         11    1    3    3    0    0  0.53652355158E+02  0.54400642492E+02 -0.80971640864E+02  0.11133019241E+03  0.00000000000E+00 0.  1.
</event>
<event>
 8    1  0.5951278E-006  0.1218358E+03  0.7561462E-02  0.1240099E+00
          3   -1    0    0  501    0  0.00000000000E+00  0.00000000000E+00  0.86089171337E+02  0.86089171337E+02  0.00000000000E+00 0. -1.
         -3   -1    0    0    0  501 -0.00000000000E+00 -0.00000000000E+00 -0.40954966050E+03  0.40954966050E+03  0.00000000000E+00 0.  1.
         23    2    1    2    0    0  0.35589168349E+02 -0.69194683283E+02 -0.34468167317E+03  0.37483922355E+03  0.12507795405E+03 0.  0.
         23    2    1    2    0    0 -0.35589168349E+02  0.69194683283E+02  0.21221184015E+02  0.12079960828E+03  0.89931716386E+02 0.  0.
          5    1    3    3  502    0  0.88896341783E+01 -0.90079791775E+02 -0.13626763549E+03  0.16364515075E+03  0.41800000000E+01 0.  1.
         -5    1    3    3    0  502  0.26699534170E+02  0.20885108491E+02 -0.20841403769E+03  0.21119407280E+03  0.41800000000E+01 0.  1.
        -11    1    4    4    0    0 -0.45995049648E+02  0.86925620092E+02  0.16760007667E+02  0.99762246754E+02  0.00000000000E+00 0.  1.
         11    1    4    4    0    0  0.10405881299E+02 -0.17730936808E+02  0.44611763472E+01  0.21037361529E+02  0.00000000000E+00 0. -1.
</event>
<event>
 8    1  0.5951278E-006  0.1302697E+03  0.7561462E-02  0.1227056E+00
         -2   -1    0    0    0  501 -0.00000000000E+00  0.00000000000E+00  0.64358603997E+02  0.64358603997E+02  0.00000000000E+00 0.  1.
          2   -1    0    0  501    0  0.00000000000E+00 -0.00000000000E+00 -0.52599359235E+03  0.52599359235E+03  0.00000000000E+00 0. -1.
         23    2    1    2    0    0  0.16180963048E+02  0.89970749186E+02 -0.54341617389E+02  0.16418128087E+03  0.12508366134E+03 0.  0.
         23    2    1    2    0    0 -0.16180963048E+02 -0.89970749186E+02 -0.40729337096E+03  0.42617091547E+03  0.85890627502E+02 0.  0.
          5    1    3    3  502    0 -0.35597753985E+02  0.96002658301E+02 -0.32479265334E+02  0.10749923519E+03  0.41800000000E+01 0. -1.
         -5    1    3    3    0  502  0.51778717034E+02 -0.60319091146E+01 -0.21862352056E+02  0.56682045681E+02  0.41800000000E+01 0. -1.
        -11    1    4    4    0    0  0.19623186027E+02 -0.27874321565E+02 -0.42900854318E+02  0.54795351388E+02  0.00000000000E+00 0. -1.
         11    1    4    4    0    0 -0.35804149075E+02 -0.62096427621E+02 -0.36439251664E+03  0.37137556409E+03  0.00000000000E+00 0.  1.
</event>
<event>
 8    1  0.5951278E-006  0.1604176E+03  0.7561462E-02  0.1188226E+00
          2   -1    0    0  501    0  0.00000000000E+00  0.00000000000E+00  0.28845067771E+03  0.28845067771E+03  0.00000000000E+00 0. -1.
         -2   -1    0    0    0  501 -0.00000000000E+00 -0.00000000000E+00 -0.19679243323E+03  0.19679243323E+03  0.00000000000E+00 0.  1.
         23    2    1    2    0    0  0.11575727831E+03  0.74750415358E+02 -0.11485661768E+03  0.21869452938E+03  0.12509149642E+03 0.  0.
         23    2    1    2    0    0 -0.11575727831E+03 -0.74750415358E+02  0.20651486216E+03  0.26654858157E+03  0.97017451841E+02 0.  0.
          5    1    3    3  502    0  0.86115836587E+02  0.13326257750E+02 -0.12200941190E+03  0.14999098456E+03  0.41800000000E+01 0. -1.
         -5    1    3    3    0  502  0.29641441725E+02  0.61424157608E+02  0.71527942203E+01  0.68703544818E+02  0.41800000000E+01 0. -1.
        -11    1    4    4    0    0 -0.14580549991E+02 -0.61521894032E+02  0.54556590200E+02  0.83510223432E+02  0.00000000000E+00 0. -1.
         11    1    4    4    0    0 -0.10117672832E+03 -0.13228521326E+02  0.15195827196E+03  0.18303835813E+03  0.00000000000E+00 0.  1.
</event>
<event>
 8    1  0.5951278E-006  0.1779685E+03  0.7561462E-02  0.1169784E+00
         -2   -1    0    0    0  501 -0.00000000000E+00  0.00000000000E+00  0.83755085725E+02  0.83755085725E+02  0.00000000000E+00 0.  1.
          2   -1    0    0  501    0  0.00000000000E+00 -0.00000000000E+00 -0.47306960618E+03  0.47306960618E+03  0.00000000000E+00 0. -1.
         23    2    1    2    0    0 -0.16191849625E+02  0.15263532324E+03 -0.11378134545E+03  0.22838276030E+03  0.12511104163E+03 0.  0.
         23    2    1    2    0    0  0.16191849625E+02 -0.15263532324E+03 -0.27553317501E+03  0.32844193160E+03  0.91628892875E+02 0.  0.
          5    1    3    3  502    0  0.80887262054E+01 -0.20349274621E+02 -0.20624454133E+02  0.30370396400E+02  0.41800000000E+01 0. -1.
         -5    1    3    3    0  502 -0.24280575830E+02  0.17298459786E+03 -0.93156891314E+02  0.19801236390E+03  0.41800000000E+01 0. -1.
        -11    1    4    4    0    0  0.27604067195E+02 -0.66153243175E+02 -0.52190444351E+02  0.88668362959E+02  0.00000000000E+00 0.  1.
         11    1    4    4    0    0 -0.11412217570E+02 -0.86482080064E+02 -0.22334273066E+03  0.23977356864E+03  0.00000000000E+00 0. -1.
</event>
<event>
 8    1  0.5951278E-006  0.1314074E+03  0.7561462E-02  0.1225382E+00
          1   -1    0    0  501    0  0.00000000000E+00  0.00000000000E+00  0.22566900625E+03  0.22566900625E+03  0.00000000000E+00 0. -1.
         -1   -1    0    0    0  501 -0.00000000000E+00 -0.00000000000E+00 -0.35553661780E+03  0.35553661780E+03  0.00000000000E+00 0.  1.
         23    2    1    2    0    0  0.29327032330E+02  0.89602926939E+02 -0.31797919835E+03  0.35446671825E+03  0.12508846640E+03 0.  0.
         23    2    1    2    0    0 -0.29327032330E+02 -0.89602926939E+02  0.18811158679E+03  0.22673890580E+03  0.84473682146E+02 0.  0.
          5    1    3    3  502    0 -0.49331005391E+02  0.31163983465E+02 -0.11409546875E+03  0.12821852575E+03  0.41800000000E+01 0.  1.
         -5    1    3    3    0  502  0.78658037721E+02  0.58438943474E+02 -0.20388372960E+03  0.22624819250E+03  0.41800000000E+01 0.  1.
        -11    1    4    4    0    0 -0.41654124853E+02 -0.51783035924E+02  0.50426578133E+02  0.83422950733E+02  0.00000000000E+00 0.  1.
         11    1    4    4    0    0  0.12327092522E+02 -0.37819891015E+02  0.13768500866E+03  0.14331595507E+03  0.00000000000E+00 0. -1.
</event>
<event>
 8    1  0.5951278E-006  0.9029791E+02  0.7561462E-02  0.1302132E+00
          3   -1    0    0  501    0  0.00000000000E+00  0.00000000000E+00  0.24419711045E+03  0.24419711045E+03  0.00000000000E+00 0. -1.
         -3   -1    0    0    0  501 -0.00000000000E+00 -0.00000000000E+00 -0.60304242109E+02  0.60304242109E+02  0.00000000000E+00 0.  1.
         23    2    1    2    0    0  0.39015477946E+01  0.19205302203E+01  0.34827138009E+02  0.12992445910E+03  0.12509406468E+03 0.  0.
         23    2    1    2    0    0 -0.39015477946E+01 -0.19205302203E+01  0.14906573033E+03  0.17457689346E+03  0.90761166035E+02 0.  0.
          5    1    3    3  502    0  0.64290648805E+02 -0.24910825536E+01  0.17685568287E+02  0.66856149617E+02  0.41800000000E+01 0. -1.
         -5    1    3    3    0  502 -0.60389101010E+02  0.44116127739E+01  0.17141569722E+02  0.63068309480E+02  0.41800000000E+01 0. -1.
        -11    1    4    4    0    0  0.17408775079E+02  0.18856959935E+02  0.14157962141E+03  0.14388689860E+03  0.00000000000E+00 0. -1.
         11    1    4    4    0    0 -0.21310322873E+02 -0.20777490156E+02  0.74861089165E+01  0.30689994865E+02  0.00000000000E+00 0.  1.
</event>
<event>
 7    1  0.5951278E-006  0.7500358E+02  0.7561462E-02  0.1343860E+00
          2   -1    0    0  501    0  0.00000000000E+00  0.00000000000E+00  0.20051761341E+02  0.20051761341E+02  0.00000000000E+00 0. -1.
         -2   -1    0    0    0  501 -0.00000000000E+00 -0.00000000000E+00 -0.49660859822E+03  0.49660859822E+03  0.00000000000E+00 0.  1.
         23    2    1    2    0    0  0.39238456756E+02 -0.86437423337E+01 -0.42405881356E+03  0.44394701159E+03  0.12509476794E+03 0.  0.
          5    1    3    3  502    0  0.40159613974E+02  0.36462473469E+02 -0.36736892941E+03  0.37137542899E+03  0.41800000000E+01 0. -1.
         -5    1    3    3    0  502 -0.92115721780E+00 -0.45106215802E+02 -0.56689884159E+02  0.72571582596E+02  0.41800000000E+01 0. -1.
        -11    1    1    2    0    0  0.13386390357E+00  0.10859051983E+02 -0.12110508493E+02  0.16266571411E+02  0.00000000000E+00 0. -1.
         11    1    1    2    0    0 -0.39372320660E+02 -0.22153096490E+01 -0.40387514826E+02  0.56446776567E+02  0.00000000000E+00 0.  1.
</event>
<event>
 8    1  0.5951278E-006  0.1075737E+03  0.7561462E-02  0.1265130E+00
         -2   -1    0    0    0  501 -0.00000000000E+00  0.00000000000E+00  0.20520431840E+03  0.20520431840E+03  0.00000000000E+00 0.  1.
          2   -1    0    0  501    0  0.00000000000E+00 -0.00000000000E+00 -0.85186669971E+02  0.85186669971E+02  0.00000000000E+00 0. -1.
         23    2    1    2    0    0  0.22177228815E+02  0.21085937170E+02  0.14695323496E+03  0.19467815947E+03  0.12396727909E+03 0.  0.
         23    2    1    2    0    0 -0.22177228815E+02 -0.21085937170E+02 -0.26935586537E+02  0.95712828898E+02  0.86596614075E+02 0.  0.
          5    1    3    3  502    0 -0.47434060094E+02  0.29465249373E+02  0.50822909492E+02  0.75621633855E+02  0.41800000000E+01 0. -1.
         -5    1    3    3    0  502  0.69611288909E+02 -0.83793122036E+01  0.96130325471E+02  0.11905652562E+03  0.41800000000E+01 0.  1.
        -11    1    4    4    0    0  0.22981259086E+02 -0.34812231213E+02 -0.24663950097E+02  0.48459675459E+02  0.00000000000E+00 0. -1.
         11    1    4    4    0    0 -0.45158487902E+02  0.13726294043E+02 -0.22716364396E+01  0.47253153438E+02  0.00000000000E+00 0.  1.
</event>
<event>
 8    1  0.5951278E-006  0.1091790E+03  0.7561462E-02  0.1262098E+00
         -1   -1    0    0    0  501 -0.00000000000E+00  0.00000000000E+00  0.86863574403E+02  0.86863574403E+02  0.00000000000E+00 0.  1.
          1   -1    0    0  501    0  0.00000000000E+00 -0.00000000000E+00 -0.19804734467E+03  0.19804734467E+03  0.00000000000E+00 0. -1.
         23    2    1    2    0    0  0.61914125877E+02 -0.17797275872E+02 -0.19436920244E+02  0.14204038986E+03  0.12509027329E+03 0.  0.
         23    2    1    2    0    0 -0.61914125877E+02  0.17797275872E+02 -0.91746850019E+02  0.14287052921E+03  0.88568626592E+02 0.  0.
          5    1    3    3  502    0  0.73280419280E+02  0.14526450675E+02 -0.54707244753E+02  0.92689765603E+02  0.41800000000E+01 0. -1.
         -5    1    3    3    0  502 -0.11366293403E+02 -0.32323726547E+02  0.35270324509E+02  0.49350624257E+02  0.41800000000E+01 0. -1.
        -11    1    4    4    0    0 -0.12950319074E+02 -0.34814874617E+02 -0.37877901851E+02  0.53052066005E+02  0.00000000000E+00 0.  1.
         11    1    4    4    0    0 -0.48963806802E+02  0.52612150489E+02 -0.53868948167E+02  0.89818463204E+02  0.00000000000E+00 0. -1.
</event>
<event>
 8    1  0.5951278E-006  0.1207943E+03  0.7561462E-02  0.1241792E+00
         -1   -1    0    0    0  501 -0.00000000000E+00  0.00000000000E+00  0.35757958637E+02  0.35757958637E+02  0.00000000000E+00 0.  1.
          1   -1    0    0  501    0  0.00000000000E+00 -0.00000000000E+00 -0.48103695497E+03  0.48103695497E+03  0.00000000000E+00 0. -1.
         23    2    1    2    0    0  0.50771127383E+02  0.28323763334E+02 -0.15697513531E+03  0.20896928436E+03  0.12508807200E+03 0.  0.
         23    2    1    2    0    0 -0.50771127383E+02 -0.28323763334E+02 -0.28830386103E+03  0.30782562925E+03  0.90871110879E+02 0.  0.
          5    1    3    3  502    0  0.33186526914E+02 -0.47361087956E+02 -0.85535534061E+02  0.10333546443E+03  0.41800000000E+01 0. -1.
         -5    1    3    3    0  502  0.17584600469E+02  0.75684851290E+02 -0.71439601248E+02  0.10563381994E+03  0.41800000000E+01 0. -1.
        -11    1    4    4    0    0 -0.71949665668E+02 -0.19595121582E+01 -0.16599911564E+03  0.18093175639E+03  0.00000000000E+00 0.  1.
         11    1    4    4    0    0  0.21178538285E+02 -0.26364251176E+02 -0.12230474538E+03  0.12689387285E+03  0.00000000000E+00 0. -1.
</event>
<event>
 8    1  0.5951278E-006  0.6507053E+02  0.7561462E-02  0.1377706E+00
         -4   -1    0    0    0  501 -0.00000000000E+00  0.00000000000E+00  0.30545102795E+03  0.30545102795E+03  0.00000000000E+00 0.  1.
          4   -1    0    0  501    0  0.00000000000E+00 -0.00000000000E+00 -0.48275753735E+02  0.48275753735E+02  0.00000000000E+00 0. -1.
         23    2    1    2    0    0 -0.26374961808E+02 -0.31821682182E+02  0.19842793664E+03  0.23817822815E+03  0.12508782618E+03 0.  0.
         23    2    1    2    0    0  0.26374961808E+02  0.31821682182E+02  0.58747337570E+02  0.11554855353E+03  0.90509449692E+02 0.  0.
          5    1    3    3  502    0 -0.31574480318E+02 -0.13458297798E+02  0.21173477805E+03  0.21453941881E+03  0.41800000000E+01 0.  1.
         -5    1    3    3    0  502  0.51995185100E+01 -0.18363384384E+02 -0.13306841411E+02  0.23638809342E+02  0.41800000000E+01 0.  1.
        -11    1    4    4    0    0  0.27720530742E+02  0.50335624585E+02  0.38443140560E+01  0.57592375168E+02  0.00000000000E+00 0. -1.
         11    1    4    4    0    0 -0.13455689345E+01 -0.18513942403E+02  0.54903023514E+02  0.57956178359E+02  0.00000000000E+00 0.  1.
</event>
<event>
 8    1  0.5951278E-006  0.2438781E+03  0.7561462E-02  0.1117236E+00
          2   -1    0    0  501    0  0.00000000000E+00  0.00000000000E+00  0.49906558568E+03  0.49906558568E+03  0.00000000000E+00 0. -1.
         -2   -1    0    0    0  501 -0.00000000000E+00 -0.00000000000E+00 -0.15829566197E+03  0.15829566197E+03  0.00000000000E+00 0.  1.
         23    2    1    2    0    0  0.19028006615E+03  0.11299341632E+03  0.17053580144E+02  0.25477984162E+03  0.12509167597E+03 0.  0.
         23    2    1    2    0    0 -0.19028006615E+03 -0.11299341632E+03  0.32371634357E+03  0.40258140603E+03  0.91134525199E+02 0.  0.
          5    1    3    3  502    0  0.41432916891E+02  0.92695393510E+02  0.23711333777E+02  0.10434952003E+03  0.41800000000E+01 0.  1.
         -5    1    3    3    0  502  0.14884714925E+03  0.20298022808E+02 -0.66577536321E+01  0.15043032159E+03  0.41800000000E+01 0.  1.
        -11    1    4    4    0    0 -0.15680525839E+02  0.13140907586E+02  0.12103726327E+02  0.23771044019E+02  0.00000000000E+00 0.  1.
         11    1    4    4    0    0 -0.17459954031E+03 -0.12613432390E+03  0.31161261725E+03  0.37881036201E+03  0.00000000000E+00 0. -1.
</event>
<event>
 8    1  0.5951278E-006  0.1127438E+03  0.7561462E-02  0.1255572E+00
         -1   -1    0    0    0  501 -0.00000000000E+00  0.00000000000E+00  0.12118204135E+03  0.12118204135E+03  0.00000000000E+00 0.  1.
          1   -1    0    0  501    0  0.00000000000E+00 -0.00000000000E+00 -0.12041093043E+03  0.12041093043E+03  0.00000000000E+00 0. -1.
         23    2    1    2    0    0 -0.38576554794E+02 -0.27186272448E+01  0.37250374637E+02  0.13612149878E+03  0.12508369400E+03 0.  0.
         23    2    1    2    0    0  0.38576554794E+02  0.27186272448E+01 -0.36479263713E+02  0.10547147300E+03  0.91093103042E+02 0.  0.
          5    1    3    3  502    0  0.28866674707E+02  0.41069162468E+02  0.15818701908E+02  0.52798340358E+02  0.41800000000E+01 0. -1.
         -5    1    3    3    0  502 -0.67443229501E+02 -0.43787789712E+02  0.21431672728E+02  0.83323158422E+02  0.41800000000E+01 0. -1.
        -11    1    4    4    0    0  0.66071611569E+02  0.81377086784E+01 -0.39300292412E+02  0.77305841575E+02  0.00000000000E+00 0.  1.
         11    1    4    4    0    0 -0.27495056775E+02 -0.54190814336E+01  0.28210286999E+01  0.28165631425E+02  0.00000000000E+00 0. -1.
</event>
<event>
 8    1  0.5951278E-006  0.1128040E+03  0.7561462E-02  0.1255464E+00
         -2   -1    0    0    0  501 -0.00000000000E+00  0.00000000000E+00  0.47824117781E+02  0.47824117781E+02  0.00000000000E+00 0. -1.
          2   -1    0    0  501    0  0.00000000000E+00 -0.00000000000E+00 -0.30459066368E+03  0.30459066368E+03  0.00000000000E+00 0.  1.
         23    2    1    2    0    0 -0.45264784847E+02  0.23874567771E+02 -0.12048530430E+03  0.18101082161E+03  0.12501725183E+03 0.  0.
         23    2    1    2    0    0  0.45264784847E+02 -0.23874567771E+02 -0.13628124160E+03  0.17140395985E+03  0.90486711216E+02 0.  0.
          5    1    3    3  502    0 -0.86877129841E+02  0.21965222545E+02 -0.10019887339E+03  0.13448937995E+03  0.41800000000E+01 0. -1.
         -5    1    3    3    0  502  0.41612344994E+02  0.19093452256E+01 -0.20286430907E+02  0.46521441659E+02  0.41800000000E+01 0. -1.
        -11    1    4    4    0    0 -0.14153718219E+02  0.16845187609E+02 -0.70504851914E+02  0.73858122292E+02  0.00000000000E+00 0.  1.
         11    1    4    4    0    0  0.59418503066E+02 -0.40719755380E+02 -0.65776389685E+02  0.97545837558E+02  0.00000000000E+00 0. -1.
</event>
<event>
 8    1  0.5951278E-006  0.2318911E+03  0.7561462E-02  0.1125316E+00
          1   -1    0    0  501    0  0.00000000000E+00  0.00000000000E+00  0.22042681817E+03  0.22042681817E+03  0.00000000000E+00 0. -1.
         -1   -1    0    0    0  501 -0.00000000000E+00 -0.00000000000E+00 -0.28171110932E+03  0.28171110932E+03  0.00000000000E+00 0.  1.
         23    2    1    2    0    0 -0.20550100563E+03 -0.68350933848E+02  0.27744852652E+02  0.25163481332E+03  0.12509112259E+03 0.  0.
         23    2    1    2    0    0  0.20550100563E+03  0.68350933848E+02 -0.89029143805E+02  0.25050311417E+03  0.89011843537E+02 0.  0.
          5    1    3    3  502    0 -0.20314859980E+03 -0.41641872511E+02  0.53519913858E+02  0.21420843290E+03  0.41800000000E+01 0. -1.
         -5    1    3    3    0  502 -0.23524058304E+01 -0.26709061337E+02 -0.25775061206E+02  0.37426380414E+02  0.41800000000E+01 0. -1.
        -11    1    4    4    0    0  0.51519380505E+02 -0.15628319069E+02 -0.43715300642E+02  0.69350691668E+02  0.00000000000E+00 0.  1.
         11    1    4    4    0    0  0.15398162513E+03  0.83979252917E+02 -0.45313843162E+02  0.18115242250E+03  0.00000000000E+00 0. -1.
</event>
<event>
 8    1  0.5951278E-006  0.9945975E+02  0.7561462E-02  0.1281436E+00
          1   -1    0    0  501    0  0.00000000000E+00  0.00000000000E+00  0.41927796328E+03  0.41927796328E+03  0.00000000000E+00 0. -1.
         -1   -1    0    0    0  501 -0.00000000000E+00 -0.00000000000E+00 -0.13616393893E+03  0.13616393893E+03  0.00000000000E+00 0.  1.
         23    2    1    2    0    0 -0.51425733220E+01  0.54336288184E+02 -0.92827735308E+02  0.16505142632E+03  0.12508439796E+03 0.  0.
         23    2    1    2    0    0  0.51425733220E+01 -0.54336288184E+02  0.37594175965E+03  0.39039047589E+03  0.89964652733E+02 0.  0.
          5    1    3    3  502    0 -0.41284764548E+02  0.21848935655E+02  0.12879824724E+02  0.48633014075E+02  0.41800000000E+01 0. -1.
         -5    1    3    3    0  502  0.36142191226E+02  0.32487352529E+02 -0.10570756003E+03  0.11641841224E+03  0.41800000000E+01 0. -1.
        -11    1    4    4    0    0  0.13186841584E+02  0.22451872521E+02  0.65353701023E+02  0.70349737797E+02  0.00000000000E+00 0.  1.
         11    1    4    4    0    0 -0.80442682623E+01 -0.76788160705E+02  0.31058805863E+03  0.32004073810E+03  0.00000000000E+00 0. -1.
</event>
<event>
 8    1  0.5951278E-006  0.1426278E+03  0.7561462E-02  0.1209836E+00
          2   -1    0    0  501    0  0.00000000000E+00  0.00000000000E+00  0.46093189414E+03  0.46093189414E+03  0.00000000000E+00 0. -1.
         -2   -1    0    0    0  501 -0.00000000000E+00 -0.00000000000E+00 -0.64711268919E+02  0.64711268919E+02  0.00000000000E+00 0.  1.
         23    2    1    2    0    0 -0.34334900236E+01 -0.11890141928E+03  0.11650468757E+03  0.20825475003E+03  0.12508941731E+03 0.  0.
         23    2    1    2    0    0  0.34334900236E+01  0.11890141928E+03  0.27971593765E+03  0.31738841303E+03  0.91351314100E+02 0.  0.
          5    1    3    3  502    0  0.35209669778E+02 -0.10621029211E+02 -0.89049037785E+01  0.38069631187E+02  0.41800000000E+01 0. -1.
         -5    1    3    3    0  502 -0.38643159802E+02 -0.10828039007E+03  0.12540959135E+03  0.17018511884E+03  0.41800000000E+01 0. -1.
        -11    1    4    4    0    0 -0.26822746166E+02  0.76815007266E+02  0.92793970051E+02  0.12341282725E+03  0.00000000000E+00 0. -1.
         11    1    4    4    0    0  0.30256236189E+02  0.42086412016E+02  0.18692196760E+03  0.19397558578E+03  0.00000000000E+00 0.  1.
</event>
<event>
 8    1  0.5951278E-006  0.1339542E+03  0.7561462E-02  0.1221704E+00
          2   -1    0    0  501    0  0.00000000000E+00  0.00000000000E+00  0.16767416546E+03  0.16767416546E+03  0.00000000000E+00 0. -1.
         -2   -1    0    0    0  501 -0.00000000000E+00 -0.00000000000E+00 -0.12987343099E+03  0.12987343099E+03  0.00000000000E+00 0.  1.
         23    2    1    2    0    0 -0.29201733653E+02 -0.84293925082E+02 -0.38064370687E+02  0.15828443944E+03  0.12508741103E+03 0.  0.
         23    2    1    2    0    0  0.29201733653E+02  0.84293925082E+02  0.75865105161E+02  0.13926315701E+03  0.75369129391E+02 0.  0.
          5    1    3    3  502    0  0.36714154534E+02 -0.76324257235E+02 -0.34846802108E+02  0.91679296478E+02  0.41800000000E+01 0.  1.
         -5    1    3    3    0  502 -0.65915888187E+02 -0.79696678474E+01 -0.32175685798E+01  0.66605142959E+02  0.41800000000E+01 0.  1.
        -11    1    4    4    0    0  0.45403349309E+02  0.18846638507E+02  0.36059332652E+02  0.60966674362E+02  0.00000000000E+00 0. -1.
         11    1    4    4    0    0 -0.16201615656E+02  0.65447286576E+02  0.39805772509E+02  0.78296482648E+02  0.00000000000E+00 0.  1.
</event>
<event>
 8    1  0.5951278E-006  0.1198134E+03  0.7561462E-02  0.1243405E+00
         -2   -1    0    0    0  501 -0.00000000000E+00  0.00000000000E+00  0.69384188674E+03  0.69384188674E+03  0.00000000000E+00 0.  1.
          2   -1    0    0  501    0  0.00000000000E+00 -0.00000000000E+00 -0.99764370666E+02  0.99764370666E+02  0.00000000000E+00 0. -1.
         23    2    1    2    0    0  0.10979413559E+03 -0.10802146034E+02  0.61499044226E+03  0.63720685167E+03  0.12509152318E+03 0.  0.
         23    2    1    2    0    0 -0.10979413559E+03  0.10802146034E+02 -0.20912926186E+02  0.15639940574E+03  0.10886682260E+03 0.  0.
          5    1    3    3  502    0  0.48654068534E+01 -0.20788798685E+02  0.11580563274E+02  0.24646058110E+02  0.41800000000E+01 0. -1.
         -5    1    3    3    0  502  0.10492872874E+03  0.99866526517E+01  0.60340987899E+03  0.61256079356E+03  0.41800000000E+01 0. -1.
        -11    1    4    4    0    0 -0.87286690139E+02  0.17244598081E+02  0.35133921106E+02  0.95659473398E+02  0.00000000000E+00 0.  1.
         11    1    4    4    0    0 -0.22507445454E+02 -0.64424520468E+01 -0.56046847292E+02  0.60739932340E+02  0.00000000000E+00 0. -1.
</event>
<event>
 8    1  0.5951278E-006  0.8320952E+02  0.7561462E-02  0.1320182E+00
         -2   -1    0    0    0  501 -0.00000000000E+00  0.00000000000E+00  0.16795489571E+03  0.16795489571E+03  0.00000000000E+00 0.  1.
          2   -1    0    0  501    0  0.00000000000E+00 -0.00000000000E+00 -0.15235594244E+03  0.15235594244E+03  0.00000000000E+00 0. -1.
         23    2    1    2    0    0  0.25418596960E+02 -0.11607191895E+02  0.12244964308E+03  0.17726038388E+03  0.12508595697E+03 0.  0.
         23    2    1    2    0    0 -0.25418596960E+02  0.11607191895E+02 -0.10685068981E+03  0.14305045427E+03  0.90914963459E+02 0.  0.
          5    1    3    3  502    0  0.52419189528E+02 -0.13206202492E+02  0.25518819749E+01  0.54278538269E+02  0.41800000000E+01 0. -1.
         -5    1    3    3    0  502 -0.27000592568E+02  0.15990105971E+01  0.11989776110E+03  0.12298184562E+03  0.41800000000E+01 0. -1.
        -11    1    4    4    0    0 -0.36244799210E+02  0.40277954559E+02 -0.96556473053E+02  0.11072105302E+03  0.00000000000E+00 0. -1.
         11    1    4    4    0    0  0.10826202250E+02 -0.28670762664E+02 -0.10294216752E+02  0.32329401254E+02  0.00000000000E+00 0.  1.
</event>
<event>
 8    1  0.5951278E-006  0.1145206E+03  0.7561462E-02  0.1252420E+00
         -2   -1    0    0    0  501 -0.00000000000E+00  0.00000000000E+00  0.40077850067E+02  0.40077850067E+02  0.00000000000E+00 0.  1.
          2   -1    0    0  501    0  0.00000000000E+00 -0.00000000000E+00 -0.44085572040E+03  0.44085572040E+03  0.00000000000E+00 0. -1.
         23    2    1    2    0    0  0.50882998929E+02  0.96900936859E+01 -0.12066638605E+03  0.18135655787E+03  0.12508735693E+03 0.  0.
         23    2    1    2    0    0 -0.50882998929E+02 -0.96900936859E+01 -0.28011148428E+03  0.29957701259E+03  0.92741389655E+02 0.  0.
          5    1    3    3  502    0 -0.40241271452E+02 -0.46662101360E+01 -0.53173498498E+02  0.66977808173E+02  0.41800000000E+01 0.  1.
         -5    1    3    3    0  502  0.91124270380E+02  0.14356303822E+02 -0.67492887555E+02  0.11437874970E+03  0.41800000000E+01 0.  1.
        -11    1    4    4    0    0 -0.19021530187E+02  0.35738021151E+02 -0.58622485988E+02  0.71243390078E+02  0.00000000000E+00 0.  1.
         11    1    4    4    0    0 -0.31861468742E+02 -0.45428114837E+02 -0.22148899829E+03  0.22833362252E+03  0.00000000000E+00 0. -1.
</event>
<event>
 8    1  0.5951278E-006  0.1424277E+03  0.7561462E-02  0.1210099E+00
         -1   -1    0    0    0  501 -0.00000000000E+00  0.00000000000E+00  0.38254494571E+03  0.38254494571E+03  0.00000000000E+00 0.  1.
          1   -1    0    0  501    0  0.00000000000E+00 -0.00000000000E+00 -0.72592696600E+02  0.72592696600E+02  0.00000000000E+00 0. -1.
         23    2    1    2    0    0 -0.11770457969E+03 -0.42321618849E+02  0.19752349398E+03  0.26515201694E+03  0.12507827115E+03 0.  0.
         23    2    1    2    0    0  0.11770457969E+03  0.42321618849E+02  0.11242875514E+03  0.18998562537E+03  0.88367558328E+02 0.  0.
          5    1    3    3  502    0 -0.40613132614E+02  0.21185519923E+02  0.25785081456E+01  0.46069229420E+02  0.41800000000E+01 0.  1.
         -5    1    3    3    0  502 -0.77091447074E+02 -0.63507138773E+02  0.19494498583E+03  0.21908278752E+03  0.41800000000E+01 0.  1.
        -11    1    4    4    0    0  0.10442742150E+03  0.11165573173E+02  0.11534362354E+03  0.15599329433E+03  0.00000000000E+00 0.  1.
         11    1    4    4    0    0  0.13277158189E+02  0.31156045676E+02 -0.29148684026E+01  0.33992331040E+02  0.00000000000E+00 0. -1.
</event>
<event>
 8    1  0.5951278E-006  0.1391313E+03  0.7561462E-02  0.1214503E+00
         -3   -1    0    0    0  501 -0.00000000000E+00  0.00000000000E+00  0.70348699195E+02  0.70348699195E+02  0.00000000000E+00 0.  1.
          3   -1    0    0  501    0  0.00000000000E+00 -0.00000000000E+00 -0.35188767096E+03  0.35188767096E+03  0.00000000000E+00 0. -1.
         23    2    1    2    0    0  0.12740629969E-01 -0.10611272878E+03 -0.95915292853E+02  0.19001828636E+03  0.12508914572E+03 0.  0.
         23    2    1    2    0    0 -0.12740629969E-01  0.10611272878E+03 -0.18562367891E+03  0.23221808379E+03  0.90604508141E+02 0.  0.
          5    1    3    3  502    0 -0.45459679460E+02 -0.76452736486E+02 -0.10180113346E+03  0.13524994102E+03  0.41800000000E+01 0.  1.
         -5    1    3    3    0  502  0.45472420090E+02 -0.29659992297E+02  0.58858406043E+01  0.54768345342E+02  0.41800000000E+01 0.  1.
        -11    1    4    4    0    0  0.30671370361E+02  0.76191287158E+01 -0.21010766177E+02  0.37950446342E+02  0.00000000000E+00 0.  1.
         11    1    4    4    0    0 -0.30684110991E+02  0.98493600067E+02 -0.16461291274E+03  0.19426763745E+03  0.00000000000E+00 0. -1.
</event>
<event>
 8    1  0.5951278E-006  0.2252691E+03  0.7561462E-02  0.1130015E+00
         -1   -1    0    0    0  501 -0.00000000000E+00  0.00000000000E+00  0.12814383241E+03  0.12814383241E+03  0.00000000000E+00 0.  1.
          1   -1    0    0  501    0  0.00000000000E+00 -0.00000000000E+00 -0.57227811331E+03  0.57227811331E+03  0.00000000000E+00 0. -1.
         23    2    1    2    0    0 -0.19372889214E+03  0.11105685725E+03 -0.90275207537E+02  0.27140818148E+03  0.12509308010E+03 0.  0.
         23    2    1    2    0    0  0.19372889214E+03 -0.11105685725E+03 -0.35385907336E+03  0.42901376423E+03  0.94720942270E+02 0.  0.
          5    1    3    3  502    0 -0.15587189286E+03  0.69716550557E+02 -0.11910980094E+03  0.20823319016E+03  0.41800000000E+01 0.  1.
         -5    1    3    3    0  502 -0.37856999277E+02  0.41340306696E+02  0.28834593400E+02  0.63174991322E+02  0.41800000000E+01 0.  1.
        -11    1    4    4    0    0  0.83169091858E+02 -0.53354824746E+02 -0.76692231859E+02  0.12508210740E+03  0.00000000000E+00 0.  1.
         11    1    4    4    0    0  0.11055980028E+03 -0.57702032507E+02 -0.27716684150E+03  0.30393165683E+03  0.00000000000E+00 0. -1.
</event>
<event>
 8    1  0.5951278E-006  0.8690627E+02  0.7561462E-02  0.1310521E+00
         -1   -1    0    0    0  501 -0.00000000000E+00  0.00000000000E+00  0.40123645797E+03  0.40123645797E+03  0.00000000000E+00 0.  1.
          1   -1    0    0  501    0  0.00000000000E+00 -0.00000000000E+00 -0.30688101422E+02  0.30688101422E+02  0.00000000000E+00 0. -1.
         23    2    1    2    0    0  0.14950540199E+02 -0.13735453687E+02  0.22585581191E+03  0.25898318897E+03  0.12509701457E+03 0.  0.
         23    2    1    2    0    0 -0.14950540199E+02  0.13735453687E+02  0.14469254463E+03  0.17294137042E+03  0.92523531008E+02 0.  0.
          5    1    3    3  502    0 -0.29160981828E+02  0.79745998436E+01  0.20179061348E+03  0.20408547522E+03  0.41800000000E+01 0. -1.
         -5    1    3    3    0  502  0.44111522027E+02 -0.21710053531E+02  0.24065198427E+02  0.54897713752E+02  0.41800000000E+01 0. -1.
        -11    1    4    4    0    0 -0.39207434957E+02  0.41494095864E+02  0.98439650455E+02  0.11379520082E+03  0.00000000000E+00 0.  1.
         11    1    4    4    0    0  0.24256894758E+02 -0.27758642177E+02  0.46252894177E+02  0.59146169602E+02  0.00000000000E+00 0. -1.
</event>
<event>
 8    1  0.5951278E-006  0.1093003E+03  0.7561462E-02  0.1261871E+00
          1   -1    0    0  501    0  0.00000000000E+00  0.00000000000E+00  0.36275239022E+02  0.36275239022E+02  0.00000000000E+00 0. -1.
         -1   -1    0    0    0  501 -0.00000000000E+00 -0.00000000000E+00 -0.75892665887E+03  0.75892665887E+03  0.00000000000E+00 0.  1.
         23    2    1    2    0    0  0.36328509648E+01 -0.89453464578E+02 -0.59445071066E+03  0.61403130636E+03  0.12509067855E+03 0.  0.
         23    2    1    2    0    0 -0.36328509648E+01  0.89453464578E+02 -0.12820070920E+03  0.18117059153E+03  0.91499953374E+02 0.  0.
          5    1    3    3  502    0 -0.93064918095E+00 -0.88159025765E+01 -0.43622129526E+03  0.43633138448E+03  0.41800000000E+01 0.  1.
         -5    1    3    3    0  502  0.45635001457E+01 -0.80637562002E+02 -0.15822941540E+03  0.17769992188E+03  0.41800000000E+01 0.  1.
        -11    1    4    4    0    0  0.43262531496E+02  0.32274522329E+02 -0.57425460845E+02  0.78809739096E+02  0.00000000000E+00 0. -1.
         11    1    4    4    0    0 -0.46895382461E+02  0.57178942249E+02 -0.70775248350E+02  0.10236085244E+03  0.00000000000E+00 0.  1.
</event>
<event>
 7    1  0.5951278E-006  0.7693614E+02  0.7561462E-02  0.1337978E+00
         -2   -1    0    0    0  501 -0.00000000000E+00  0.00000000000E+00  0.22695475569E+02  0.22695475569E+02  0.00000000000E+00 0.  1.
          2   -1    0    0  501    0  0.00000000000E+00 -0.00000000000E+00 -0.85837903141E+03  0.85837903141E+03  0.00000000000E+00 0. -1.
         23    2    1    2    0    0  0.51019521453E+01 -0.10163412849E+02 -0.45928987416E+03  0.46809631438E+03  0.89652920504E+02 0.  0.
          5    1    1    2  502    0 -0.25428280385E+02  0.27206730754E+02 -0.38339904529E+03  0.38522604269E+03  0.41800000000E+01 0. -1.
         -5    1    1    2    0  502  0.20326328240E+02 -0.17043317905E+02  0.70053636089E+01  0.27752149903E+02  0.41800000000E+01 0.  1.
        -11    1    3    3    0    0 -0.34765182286E+02  0.19493049444E+02 -0.17350527779E+03  0.17802437557E+03  0.00000000000E+00 0.  1.
         11    1    3    3    0    0  0.39867134431E+02 -0.29656462293E+02 -0.28578459636E+03  0.29007193881E+03  0.00000000000E+00 0. -1.
</event>
<event>
 8    1  0.5951278E-006  0.1017976E+03  0.7561462E-02  0.1276561E+00
          2   -1    0    0  501    0  0.00000000000E+00  0.00000000000E+00  0.13863364803E+03  0.13863364803E+03  0.00000000000E+00 0. -1.
         -2   -1    0    0    0  501 -0.00000000000E+00 -0.00000000000E+00 -0.10471447207E+03  0.10471447207E+03  0.00000000000E+00 0.  1.
         23    2    1    2    0    0 -0.24783735757E+02  0.16155144536E+02 -0.26189421832E+02  0.13118154026E+03  0.12508992140E+03 0.  0.
         23    2    1    2    0    0  0.24783735757E+02 -0.16155144536E+02  0.60108597794E+02  0.11216657984E+03  0.89961524286E+02 0.  0.
          5    1    3    3  502    0  0.37879654657E+02 -0.30999794526E+02 -0.26607286327E+01  0.49197635862E+02  0.41800000000E+01 0.  1.
         -5    1    3    3    0  502 -0.62663390414E+02  0.47154939062E+02 -0.23528693199E+02  0.81983904394E+02  0.41800000000E+01 0.  1.
        -11    1    4    4    0    0  0.38015240000E+02  0.15937760060E+02  0.65143484437E+02  0.77089845197E+02  0.00000000000E+00 0. -1.
         11    1    4    4    0    0 -0.13231504243E+02 -0.32092904595E+02 -0.50348866428E+01  0.35076734646E+02  0.00000000000E+00 0.  1.
</event>
<event>
 8    1  0.5951278E-006  0.9069488E+02  0.7561462E-02  0.1301178E+00
         -1   -1    0    0    0  501 -0.00000000000E+00  0.00000000000E+00  0.12437320010E+03  0.12437320010E+03  0.00000000000E+00 0.  1.
          1   -1    0    0  501    0  0.00000000000E+00 -0.00000000000E+00 -0.95154878804E+02  0.95154878804E+02  0.00000000000E+00 0. -1.
         23    2    1    2    0    0  0.10920627601E+02 -0.34562824820E+01  0.17749838025E+02  0.12686030998E+03  0.12508907028E+03 0.  0.
         23    2    1    2    0    0 -0.10920627601E+02  0.34562824820E+01  0.11468483276E+02  0.92667768925E+02  0.91239154386E+02 0.  0.
          5    1    3    3  502    0 -0.56758091208E+02  0.33571166792E+01  0.27324642825E+01  0.57076176387E+02  0.41800000000E+01 0.  1.
         -5    1    3    3    0  502  0.67678718809E+02 -0.68133991612E+01  0.15017373742E+02  0.69784133597E+02  0.41800000000E+01 0.  1.
        -11    1    4    4    0    0  0.17907976167E+02  0.16716667761E+02  0.42006492043E+02  0.48628057386E+02  0.00000000000E+00 0.  1.
         11    1    4    4    0    0 -0.28828603768E+02 -0.13260385279E+02 -0.30538008766E+02  0.44039711538E+02  0.00000000000E+00 0. -1.
</event>
<event>
 8    1  0.5951278E-006  0.1575962E+03  0.7561462E-02  0.1191438E+00
          2   -1    0    0  501    0  0.00000000000E+00  0.00000000000E+00  0.33322371145E+02  0.33322371145E+02  0.00000000000E+00 0.  1.
         -2   -1    0    0    0  501 -0.00000000000E+00 -0.00000000000E+00 -0.83812176404E+03  0.83812176404E+03  0.00000000000E+00 0. -1.
         23    2    1    2    0    0  0.53556251391E+02  0.11174572109E+03 -0.49074601837E+03  0.52137779358E+03  0.12509105022E+03 0.  0.
         23    2    1    2    0    0 -0.53556251391E+02 -0.11174572109E+03 -0.31405337452E+03  0.35006634160E+03  0.92528607621E+02 0.  0.
          5    1    3    3  502    0  0.86209607012E+02  0.11348583926E+03 -0.41352281544E+03  0.43741253222E+03  0.41800000000E+01 0.  1.
         -5    1    3    3    0  502 -0.32653355621E+02 -0.17401181643E+01 -0.77223202929E+02  0.83965261359E+02  0.41800000000E+01 0.  1.
        -11    1    4    4    0    0 -0.58742145433E+01 -0.84553962123E+02 -0.25820001965E+03  0.27175564218E+03  0.00000000000E+00 0. -1.
         11    1    4    4    0    0 -0.47682036848E+02 -0.27191758969E+02 -0.55853354862E+02  0.78310699416E+02  0.00000000000E+00 0.  1.
</event>
<event>
 8    1  0.5951278E-006  0.1213188E+03  0.7561462E-02  0.1240937E+00
          1   -1    0    0  501    0  0.00000000000E+00  0.00000000000E+00  0.18017076132E+03  0.18017076132E+03  0.00000000000E+00 0. -1.
         -1   -1    0    0    0  501 -0.00000000000E+00 -0.00000000000E+00 -0.14413383507E+03  0.14413383507E+03  0.00000000000E+00 0.  1.
         23    2    1    2    0    0  0.10508456337E+03  0.11511115263E+02 -0.34030951700E+02  0.16727384136E+03  0.12508861297E+03 0.  0.
         23    2    1    2    0    0 -0.10508456337E+03 -0.11511115263E+02  0.70067877950E+02  0.15703075504E+03  0.92595244336E+02 0.  0.
          5    1    3    3  502    0  0.50892554642E+02  0.45714877085E+02 -0.66339594221E+02  0.95385094571E+02  0.41800000000E+01 0.  1.
         -5    1    3    3    0  502  0.54192008731E+02 -0.34203761823E+02  0.32308642522E+02  0.71888746788E+02  0.41800000000E+01 0.  1.
        -11    1    4    4    0    0 -0.34587486864E+02 -0.18170119330E+02  0.76529555888E+02  0.85925667926E+02  0.00000000000E+00 0. -1.
         11    1    4    4    0    0 -0.70497076509E+02  0.66590040679E+01 -0.64616779382E+01  0.71105087113E+02  0.00000000000E+00 0.  1.
</event>
<event>
 8    1  0.5951278E-006  0.3426924E+03  0.7561462E-02  0.1065655E+00
         -1   -1    0    0    0  501 -0.00000000000E+00  0.00000000000E+00  0.20792192517E+03  0.20792192517E+03  0.00000000000E+00 0.  1.
          1   -1    0    0  501    0  0.00000000000E+00 -0.00000000000E+00 -0.58352940655E+03  0.58352940655E+03  0.00000000000E+00 0. -1.
         23    2    1    2    0    0  0.14007130497E+03 -0.29720533340E+03 -0.23459309911E+03  0.42264076013E+03  0.12506122219E+03 0.  0.
         23    2    1    2    0    0 -0.14007130497E+03  0.29720533340E+03 -0.14101438228E+03  0.36881057159E+03  0.90472100863E+02 0.  0.
          5    1    3    3  502    0  0.80370851281E+02 -0.27444657875E+03 -0.17579420753E+03  0.33571040217E+03  0.41800000000E+01 0.  1.
         -5    1    3    3    0  502  0.59700453689E+02 -0.22758754645E+02 -0.58798891581E+02  0.86930357959E+02  0.41800000000E+01 0.  1.
        -11    1    4    4    0    0 -0.13488164024E+03  0.22056839521E+03 -0.79759309853E+02  0.27056426473E+03  0.00000000000E+00 0.  1.
         11    1    4    4    0    0 -0.51896647260E+01  0.76636938183E+02 -0.61255072426E+02  0.98246306861E+02  0.00000000000E+00 0. -1.
</event>
<event>
 8    1  0.5951278E-006  0.1136779E+03  0.7561462E-02  0.1253907E+00
          1   -1    0    0  501    0  0.00000000000E+00  0.00000000000E+00  0.51257008732E+03  0.51257008732E+03  0.00000000000E+00 0. -1.
         -1   -1    0    0    0  501 -0.00000000000E+00 -0.00000000000E+00 -0.40415745716E+02  0.40415745716E+02  0.00000000000E+00 0.  1.
         23    2    1    2    0    0  0.55543510093E+02 -0.76130906505E+02  0.21846364618E+03  0.26880829947E+03  0.12510212117E+03 0.  0.
         23    2    1    2    0    0 -0.55543510093E+02  0.76130906505E+02  0.25369069543E+03  0.28417753357E+03  0.86700087675E+02 0.  0.
          5    1    3    3  502    0  0.37746518965E+02 -0.25850494912E+02  0.21651254161E+01  0.45991389947E+02  0.41800000000E+01 0. -1.
         -5    1    3    3    0  502  0.17796991128E+02 -0.50280411592E+02  0.21629852076E+03  0.22281690952E+03  0.41800000000E+01 0. -1.
        -11    1    4    4    0    0  0.16783614149E+02  0.47060997945E+02  0.92681442855E+02  0.10529139130E+03  0.00000000000E+00 0.  1.
         11    1    4    4    0    0 -0.72327124242E+02  0.29069908560E+02  0.16100925257E+03  0.17888614228E+03  0.00000000000E+00 0. -1.
</event>
<event>
 8    1  0.5951278E-006  0.9637951E+02  0.7561462E-02  0.1288099E+00
          1   -1    0    0  501    0  0.00000000000E+00  0.00000000000E+00  0.70886242073E+02  0.70886242073E+02  0.00000000000E+00 0. -1.
         -1   -1    0    0    0  501 -0.00000000000E+00 -0.00000000000E+00 -0.17905963250E+03  0.17905963250E+03  0.00000000000E+00 0.  1.
         23    2    1    2    0    0  0.42856189882E+01 -0.13058579369E+02 -0.84181226737E+02  0.15140121039E+03  0.12508778736E+03 0.  0.
         23    2    1    2    0    0 -0.42856189882E+01  0.13058579369E+02 -0.23992163688E+02  0.98544664185E+02  0.94586118938E+02 0.  0.
          5    1    3    3  502    0 -0.82230035956E+01  0.43542501537E+02  0.51740461378E+01  0.44808597184E+02  0.41800000000E+01 0. -1.
         -5    1    3    3    0  502  0.12508622584E+02 -0.56601080905E+02 -0.89355272875E+02  0.10659261320E+03  0.41800000000E+01 0. -1.
        -11    1    4    4    0    0 -0.27269133387E+01 -0.38477102096E+02 -0.26702462830E+02  0.46914229859E+02  0.00000000000E+00 0.  1.
         11    1    4    4    0    0 -0.15587056495E+01  0.51535681464E+02  0.27102991425E+01  0.51630434326E+02  0.00000000000E+00 0. -1.
</event>
<event>
 7    1  0.5951278E-006  0.1632729E+03  0.7561462E-02  0.1185050E+00
          2   -1    0    0  501    0  0.00000000000E+00  0.00000000000E+00  0.28501205011E+03  0.28501205011E+03  0.00000000000E+00 0. -1.
         -2   -1    0    0    0  501 -0.00000000000E+00 -0.00000000000E+00 -0.14816472092E+03  0.14816472092E+03  0.00000000000E+00 0.  1.
         23    2    1    2    0    0  0.12235407600E+02 -0.32364903262E+02  0.17272556540E+03  0.19811136189E+03  0.90646558712E+02 0.  0.
          5    1    1    2  502    0 -0.10281315801E+03  0.79275971678E+02 -0.26261509836E+02  0.13252307137E+03  0.41800000000E+01 0. -1.
         -5    1    1    2    0  502  0.90577750413E+02 -0.46911068415E+02 -0.96167263739E+01  0.10254233777E+03  0.41800000000E+01 0.  1.
        -11    1    3    3    0    0  0.87104892535E+01 -0.63062472722E+02  0.93899119281E+02  0.11344510871E+03  0.00000000000E+00 0. -1.
         11    1    3    3    0    0  0.35249183463E+01  0.30697569460E+02  0.78826446121E+02  0.84666253183E+02  0.00000000000E+00 0.  1.
</event>
<event>
 8    1  0.5951278E-006  0.3882142E+03  0.7561462E-02  0.1047939E+00
         -1   -1    0    0    0  501 -0.00000000000E+00  0.00000000000E+00  0.66953466917E+02  0.66953466917E+02  0.00000000000E+00 0.  1.
          1   -1    0    0  501    0  0.00000000000E+00 -0.00000000000E+00 -0.25026448323E+04  0.25026448323E+04  0.00000000000E+00 0. -1.
         23    2    1    2    0    0  0.15689270133E+03  0.34158349601E+03 -0.16102882636E+04  0.16583037554E+04  0.12509375965E+03 0.  0.
         23    2    1    2    0    0 -0.15689270133E+03 -0.34158349601E+03 -0.82540310175E+03  0.91129454381E+03  0.88729142510E+02 0.  0.
          5    1    3    3  502    0  0.22869493436E+02  0.19737956245E+03 -0.85067481915E+03  0.87358275265E+03  0.41800000000E+01 0. -1.
         -5    1    3    3    0  502  0.13402320789E+03  0.14420393357E+03 -0.75961344449E+03  0.78472100275E+03  0.41800000000E+01 0. -1.
        -11    1    4    4    0    0 -0.10426352767E+03 -0.28511258369E+03 -0.58939577802E+03  0.66298374922E+03  0.00000000000E+00 0.  1.
         11    1    4    4    0    0 -0.52629173664E+02 -0.56470912320E+02 -0.23600732373E+03  0.24831079459E+03  0.00000000000E+00 0. -1.
</event>
<event>
 8    1  0.1299103E-005  0.2036383E+03  0.7561462E-02  0.1146705E+00
          1   -1    0    0  501    0  0.00000000000E+00  0.00000000000E+00  0.16335374852E+04  0.16335374852E+04  0.00000000000E+00 0. -1.
         -1   -1    0    0    0  501 -0.00000000000E+00 -0.00000000000E+00 -0.26856772840E+02  0.26856772840E+02  0.00000000000E+00 0.  1.
         23    2    1    2    0    0  0.16432924784E+03 -0.64365248982E+02  0.73239978654E+03  0.76367791625E+03  0.12509006947E+03 0.  0.
         23    2    1    2    0    0 -0.16432924784E+03  0.64365248982E+02  0.87428092586E+03  0.89671634182E+03  0.92661067332E+02 0.  0.
          5    1    3    3  502    0  0.21541332573E+02 -0.61316152955E+02  0.33746516834E+03  0.34369159411E+03  0.41800000000E+01 0.  1.
         -5    1    3    3    0  502  0.14278791527E+03 -0.30490960270E+01  0.39493461820E+03  0.41998632214E+03  0.41800000000E+01 0.  1.
        -11    1    4    4    0    0 -0.11034726085E+03 -0.60870231712E+01  0.49585122350E+03  0.50801772181E+03  0.00000000000E+00 0.  1.
         11    1    4    4    0    0 -0.53981986989E+02  0.70452272154E+02  0.37842970236E+03  0.38869862001E+03  0.00000000000E+00 0. -1.
</event>
<event>
 8    1  0.5951278E-006  0.1147493E+03  0.7561462E-02  0.1252019E+00
         -1   -1    0    0    0  501 -0.00000000000E+00  0.00000000000E+00  0.13394779049E+03  0.13394779049E+03  0.00000000000E+00 0.  1.
          1   -1    0    0  501    0  0.00000000000E+00 -0.00000000000E+00 -0.10552214313E+03  0.10552214313E+03  0.00000000000E+00 0. -1.
         23    2    1    2    0    0  0.24958959055E+02  0.39055063944E+02  0.18482171738E+02  0.13467569365E+03  0.12509078355E+03 0.  0.
         23    2    1    2    0    0 -0.24958959055E+02 -0.39055063944E+02  0.99434756224E+01  0.10479423998E+03  0.93459683121E+02 0.  0.
          5    1    3    3  502    0  0.71858841673E+02  0.22057711387E+02 -0.11749424724E+02  0.76195519157E+02  0.41800000000E+01 0.  1.
         -5    1    3    3    0  502 -0.46899882619E+02  0.16997352557E+02  0.30231596462E+02  0.58480174489E+02  0.41800000000E+01 0.  1.
        -11    1    4    4    0    0 -0.54649442538E+02 -0.48428484336E+02  0.42525189127E+01  0.73143445243E+02  0.00000000000E+00 0.  1.
         11    1    4    4    0    0  0.29690483483E+02  0.93734203926E+01  0.56909567097E+01  0.31650794739E+02  0.00000000000E+00 0. -1.
</event>
<event>
 8    1  0.5951278E-006  0.6803349E+02  0.7561462E-02  0.1366911E+00
         -1   -1    0    0    0  501 -0.00000000000E+00  0.00000000000E+00  0.79098661070E+02  0.79098661070E+02  0.00000000000E+00 0.  1.
          1   -1    0    0  501    0  0.00000000000E+00 -0.00000000000E+00 -0.15997148248E+03  0.15997148248E+03  0.00000000000E+00 0. -1.
         23    2    1    2    0    0  0.20282030869E+02 -0.25901193768E+02 -0.52716396951E+02  0.13966967673E+03  0.12508544071E+03 0.  0.
         23    2    1    2    0    0 -0.20282030869E+02  0.25901193768E+02 -0.28156424462E+02  0.99400466820E+02  0.89473101829E+02 0.  0.
          5    1    3    3  502    0  0.96254374044E-01  0.31759425745E+01 -0.88797260583E+02  0.88952356704E+02  0.41800000000E+01 0.  1.
         -5    1    3    3    0  502  0.20185776494E+02 -0.29077136342E+02  0.36080863632E+02  0.50717320029E+02  0.41800000000E+01 0.  1.
        -11    1    4    4    0    0  0.30220227601E+02 -0.11495218611E+02 -0.12270681847E+02  0.34582825798E+02  0.00000000000E+00 0.  1.
         11    1    4    4    0    0 -0.50502258470E+02  0.37396412378E+02 -0.15885742615E+02  0.64817641022E+02  0.00000000000E+00 0. -1.
</event>
<event>
 8    1  0.5951278E-006  0.1074343E+03  0.7561462E-02  0.1265396E+00
          1   -1    0    0  501    0  0.00000000000E+00  0.00000000000E+00  0.68231432745E+03  0.68231432745E+03  0.00000000000E+00 0. -1.
         -1   -1    0    0    0  501 -0.00000000000E+00 -0.00000000000E+00 -0.19079323026E+02  0.19079323026E+02  0.00000000000E+00 0.  1.
         23    2    1    2    0    0 -0.13871306557E+02 -0.31417788418E+02  0.33536847472E+03  0.35958033757E+03  0.12508602941E+03 0.  0.
         23    2    1    2    0    0  0.13871306557E+02  0.31417788418E+02  0.32786652971E+03  0.34181331291E+03  0.90334871495E+02 0.  0.
          5    1    3    3  502    0 -0.19481069567E+02 -0.73845701738E+02  0.13995493701E+03  0.15949155630E+03  0.41800000000E+01 0.  1.
         -5    1    3    3    0  502  0.56097630102E+01  0.42427913320E+02  0.19541353771E+03  0.20008878127E+03  0.41800000000E+01 0.  1.
        -11    1    4    4    0    0 -0.36273394604E+02  0.26649322464E+02  0.12747626330E+03  0.13518928674E+03  0.00000000000E+00 0. -1.
         11    1    4    4    0    0  0.50144701161E+02  0.47684659536E+01  0.20039026641E+03  0.20662402618E+03  0.00000000000E+00 0.  1.
</event>
<event>
 8    1  0.5951278E-006  0.1207273E+03  0.7561462E-02  0.1241902E+00
          2   -1    0    0  501    0  0.00000000000E+00  0.00000000000E+00  0.41023217832E+02  0.41023217832E+02  0.00000000000E+00 0. -1.
         -2   -1    0    0    0  501 -0.00000000000E+00 -0.00000000000E+00 -0.56864703259E+03  0.56864703259E+03  0.00000000000E+00 0.  1.
         23    2    1    2    0    0  0.30504245480E+02  0.74475179237E+02 -0.43054955930E+03  0.45552065378E+03  0.12509628969E+03 0.  0.
         23    2    1    2    0    0 -0.30504245480E+02 -0.74475179237E+02 -0.97074255462E+02  0.15414959664E+03  0.88665809403E+02 0.  0.
          5    1    3    3  502    0  0.24242007390E+02 -0.24133517221E+02 -0.40733386433E+02  0.53355250407E+02  0.41800000000E+01 0. -1.
         -5    1    3    3    0  502  0.62622380905E+01  0.98608696458E+02 -0.38981617286E+03  0.40216540337E+03  0.41800000000E+01 0. -1.
        -11    1    4    4    0    0  0.12834091059E+01 -0.76249751087E+02 -0.95583086017E+02  0.12227754500E+03  0.00000000000E+00 0.  1.
         11    1    4    4    0    0 -0.31787654586E+02  0.17745718504E+01 -0.14911694451E+01  0.31872051639E+02  0.00000000000E+00 0. -1.
</event>
<event>
 8    1  0.5951278E-006  0.9464943E+02  0.7561462E-02  0.1291968E+00
         -1   -1    0    0    0  501 -0.00000000000E+00  0.00000000000E+00  0.31925858420E+03  0.31925858420E+03  0.00000000000E+00 0.  1.
          1   -1    0    0  501    0  0.00000000000E+00 -0.00000000000E+00 -0.82309168600E+02  0.82309168600E+02  0.00000000000E+00 0. -1.
         23    2    1    2    0    0 -0.66291431468E+02 -0.55182742280E+02  0.23476500812E+03  0.27964638762E+03  0.12509118329E+03 0.  0.
         23    2    1    2    0    0  0.66291431468E+02  0.55182742280E+02  0.21844074818E+01  0.12192136519E+03  0.86141504056E+02 0.  0.
          5    1    3    3  502    0 -0.33813240890E+02 -0.35550884385E+02  0.82391454352E+01  0.49925510088E+02  0.41800000000E+01 0. -1.
         -5    1    3    3    0  502 -0.32478190578E+02 -0.19631857894E+02  0.22652586268E+03  0.22972087753E+03  0.41800000000E+01 0. -1.
        -11    1    4    4    0    0  0.13529774225E+02  0.46472647566E+02  0.34500527109E+02  0.59439449301E+02  0.00000000000E+00 0.  1.
         11    1    4    4    0    0  0.52761657242E+02  0.87100947140E+01 -0.32316119627E+02  0.62481915885E+02  0.00000000000E+00 0. -1.
</event>
<event>
 8    1  0.5951278E-006  0.1384702E+03  0.7561462E-02  0.1215402E+00
          2   -1    0    0  501    0  0.00000000000E+00  0.00000000000E+00  0.37226173952E+03  0.37226173952E+03  0.00000000000E+00 0.  1.
         -2   -1    0    0    0  501 -0.00000000000E+00 -0.00000000000E+00 -0.68458992151E+02  0.68458992151E+02  0.00000000000E+00 0. -1.
         23    2    1    2    0    0  0.15252849088E+01 -0.85036023303E+02  0.55669276125E+02  0.16119906836E+03  0.12511042955E+03 0.  0.
         23    2    1    2    0    0 -0.15252849088E+01  0.85036023303E+02  0.24813347124E+03  0.27952166331E+03  0.96585138370E+02 0.  0.
          5    1    3    3  502    0  0.99881985291E+01 -0.11714518175E+03  0.40139088880E+02  0.12430356621E+03  0.41800000000E+01 0. -1.
         -5    1    3    3    0  502 -0.84629136203E+01  0.32109158446E+02  0.15530187245E+02  0.36895502150E+02  0.41800000000E+01 0. -1.
        -11    1    4    4    0    0  0.31170912042E+02 -0.35769380253E+01  0.39045852210E+02  0.50089907347E+02  0.00000000000E+00 0. -1.
         11    1    4    4    0    0 -0.32696196951E+02  0.88612961328E+02  0.20908761903E+03  0.22943175596E+03  0.00000000000E+00 0.  1.
</event>
<event>
 8    1  0.5951278E-006  0.1404879E+03  0.7561462E-02  0.1212674E+00
          2   -1    0    0  501    0  0.00000000000E+00  0.00000000000E+00  0.14507951833E+03  0.14507951833E+03  0.00000000000E+00 0. -1.
         -2   -1    0    0    0  501 -0.00000000000E+00 -0.00000000000E+00 -0.14055201949E+03  0.14055201949E+03  0.00000000000E+00 0.  1.
         23    2    1    2    0    0  0.73648555313E+02 -0.55972038035E+02 -0.11580942573E+02  0.15601387597E+03  0.12509689254E+03 0.  0.
         23    2    1    2    0    0 -0.73648555313E+02  0.55972038035E+02  0.16108441411E+02  0.12961766184E+03  0.89354785187E+02 0.  0.
          5    1    3    3  502    0  0.60170411956E+02  0.28995216654E+02  0.88146434014E+01  0.67500899269E+02  0.41800000000E+01 0. -1.
         -5    1    3    3    0  502  0.13478143357E+02 -0.84967254689E+02 -0.20395585974E+02  0.88512976704E+02  0.41800000000E+01 0. -1.
        -11    1    4    4    0    0 -0.53333250547E+01 -0.22937243408E+02  0.82389473138E+01  0.24948782418E+02  0.00000000000E+00 0. -1.
         11    1    4    4    0    0 -0.68315230258E+02  0.78909281443E+02  0.78694940976E+01  0.10466887943E+03  0.00000000000E+00 0.  1.
</event>
<event>
 8    1  0.5951278E-006  0.9310411E+02  0.7561462E-02  0.1295504E+00
          1   -1    0    0  501    0  0.00000000000E+00  0.00000000000E+00  0.16951941841E+03  0.16951941841E+03  0.00000000000E+00 0. -1.
         -1   -1    0    0    0  501 -0.00000000000E+00 -0.00000000000E+00 -0.78985186332E+02  0.78985186332E+02  0.00000000000E+00 0.  1.
         23    2    1    2    0    0 -0.42718117705E+01 -0.29221811350E+02  0.21138888830E+02  0.13025869967E+03  0.12509321958E+03 0.  0.
         23    2    1    2    0    0  0.42718117705E+01  0.29221811350E+02  0.69395343253E+02  0.11824590507E+03  0.91072596137E+02 0.  0.
          5    1    3    3  502    0  0.18921715586E+01 -0.77954175536E+02  0.21368509377E+02  0.80959986350E+02  0.41800000000E+01 0.  1.
         -5    1    3    3    0  502 -0.61639833291E+01  0.48732364187E+02 -0.22962054690E+00  0.49298713323E+02  0.41800000000E+01 0.  1.
        -11    1    4    4    0    0 -0.16058193406E+02 -0.68154922654E+01 -0.15798891163E+02  0.23535536370E+02  0.00000000000E+00 0.  1.
         11    1    4    4    0    0  0.20330005176E+02  0.36037303615E+02  0.85194234415E+02  0.94710368703E+02  0.00000000000E+00 0. -1.
</event>
<event>
 8    1  0.5951278E-006  0.1598688E+03  0.7561462E-02  0.1188845E+00
          2   -1    0    0  501    0  0.00000000000E+00  0.00000000000E+00  0.64031367929E+02  0.64031367929E+02  0.00000000000E+00 0. -1.
         -2   -1    0    0    0  501 -0.00000000000E+00 -0.00000000000E+00 -0.43169965933E+03  0.43169965933E+03  0.00000000000E+00 0.  1.
         23    2    1    2    0    0  0.12097554446E+03 -0.16478341527E+02 -0.23933494989E+03  0.29637172395E+03  0.12509341478E+03 0.  0.
         23    2    1    2    0    0 -0.12097554446E+03  0.16478341527E+02 -0.12833334151E+03  0.19935930331E+03  0.91477140178E+02 0.  0.
          5    1    3    3  502    0  0.66523996198E+02 -0.66043289815E+02 -0.90988571549E+02  0.13070405790E+03  0.41800000000E+01 0. -1.
         -5    1    3    3    0  502  0.54451548264E+02  0.49564948287E+02 -0.14834637834E+03  0.16566766605E+03  0.41800000000E+01 0. -1.
        -11    1    4    4    0    0 -0.10478623884E+03  0.49112717031E+02 -0.10364068167E+03  0.15534994599E+03  0.00000000000E+00 0.  1.
         11    1    4    4    0    0 -0.16189305624E+02 -0.32634375504E+02 -0.24692659848E+02  0.44009357317E+02  0.00000000000E+00 0. -1.
</event>
<event>
 8    1  0.6580940E-006  0.1931099E+03  0.7561462E-02  0.1155686E+00
         -1   -1    0    0    0  501 -0.00000000000E+00  0.00000000000E+00  0.19973247327E+03  0.19973247327E+03  0.00000000000E+00 0.  1.
          1   -1    0    0  501    0  0.00000000000E+00 -0.00000000000E+00 -0.23680219757E+03  0.23680219757E+03  0.00000000000E+00 0. -1.
         23    2    1    2    0    0 -0.34850830127E+02 -0.16439028880E+03  0.66278209542E+02  0.21972464789E+03  0.12508945765E+03 0.  0.
         23    2    1    2    0    0  0.34850830127E+02  0.16439028880E+03 -0.10334793385E+03  0.21681002296E+03  0.89927989037E+02 0.  0.
          5    1    3    3  502    0 -0.23326951027E+02  0.91264916974E+01  0.34592123399E+02  0.42913015464E+02  0.41800000000E+01 0.  1.
         -5    1    3    3    0  502 -0.11523879100E+02 -0.17351678050E+03  0.31686086143E+02  0.17681163242E+03  0.41800000000E+01 0.  1.
        -11    1    4    4    0    0  0.57782867881E+02  0.75496611931E+02 -0.31238663603E+02  0.10007223560E+03  0.00000000000E+00 0. -1.
         11    1    4    4    0    0 -0.22932037754E+02  0.88893676872E+02 -0.72109270243E+02  0.11673778736E+03  0.00000000000E+00 0.  1.
</event>
<event>
 8    1  0.5951278E-006  0.1121486E+03  0.7561462E-02  0.1256642E+00
          2   -1    0    0  501    0  0.00000000000E+00  0.00000000000E+00  0.21079652540E+03  0.21079652540E+03  0.00000000000E+00 0. -1.
         -2   -1    0    0    0  501 -0.00000000000E+00 -0.00000000000E+00 -0.98491325237E+02  0.98491325237E+02  0.00000000000E+00 0.  1.
         23    2    1    2    0    0 -0.32720742899E+02  0.73463581571E+02 -0.50730198432E+01  0.14009119530E+03  0.11459608473E+03 0.  0.
         23    2    1    2    0    0  0.32720742899E+02 -0.73463581571E+02  0.11737822001E+03  0.16919665535E+03  0.91554993389E+02 0.  0.
          5    1    3    3  502    0 -0.54002766606E+02  0.76671840714E+02 -0.37383871951E+02  0.10104403120E+03  0.41800000000E+01 0. -1.
         -5    1    3    3    0  502  0.21282023707E+02 -0.32082591427E+01  0.32310852108E+02  0.39047164093E+02  0.41800000000E+01 0.  1.
        -11    1    4    4    0    0  0.25166757976E+02 -0.88317998549E+02  0.12123635615E+03  0.15209105374E+03  0.00000000000E+00 0.  1.
         11    1    4    4    0    0  0.75539849232E+01  0.14854416978E+02 -0.38581361374E+01  0.17105601610E+02  0.00000000000E+00 0. -1.
</event>
<event>
 8    1  0.5951278E-006  0.9012843E+02  0.7561462E-02  0.1302541E+00
         -1   -1    0    0    0  501 -0.00000000000E+00  0.00000000000E+00  0.15764205231E+02  0.15764205231E+02  0.00000000000E+00 0.  1.
          1   -1    0    0  501    0  0.00000000000E+00 -0.00000000000E+00 -0.97184276856E+03  0.97184276856E+03  0.00000000000E+00 0. -1.
         23    2    1    2    0    0 -0.13116596724E+02 -0.56097026783E+02 -0.48164572191E+03  0.50094866382E+03  0.12509212934E+03 0.  0.
         23    2    1    2    0    0  0.13116596724E+02  0.56097026783E+02 -0.47443284141E+03  0.48665830997E+03  0.91819758909E+02 0.  0.
          5    1    3    3  502    0 -0.29269099734E+02 -0.42908899573E+02 -0.62976495471E+02  0.81739618568E+02  0.41800000000E+01 0.  1.
         -5    1    3    3    0  502  0.16152503009E+02 -0.13188127211E+02 -0.41866922644E+03  0.41920904525E+03  0.41800000000E+01 0.  1.
        -11    1    4    4    0    0  0.28883195559E+02 -0.16041746249E+02 -0.18674004070E+03  0.18964023679E+03  0.00000000000E+00 0. -1.
         11    1    4    4    0    0 -0.15766598834E+02  0.72138773032E+02 -0.28769280071E+03  0.29701807318E+03  0.00000000000E+00 0.  1.
</event>
<event>
 8    1  0.5951278E-006  0.1251835E+03  0.7561462E-02  0.1234783E+00
         -3   -1    0    0    0  501 -0.00000000000E+00  0.00000000000E+00  0.11382983787E+03  0.11382983787E+03  0.00000000000E+00 0.  1.
          3   -1    0    0  501    0  0.00000000000E+00 -0.00000000000E+00 -0.17920282426E+03  0.17920282426E+03  0.00000000000E+00 0. -1.
         23    2    1    2    0    0  0.69673675674E+02  0.22111287457E+02  0.20932440403E+02  0.14638357350E+03  0.12508658367E+03 0.  0.
         23    2    1    2    0    0 -0.69673675674E+02 -0.22111287457E+02 -0.86305426795E+02  0.14664908863E+03  0.93348799602E+02 0.  0.
          5    1    3    3  502    0  0.36730338543E+02 -0.49550752902E+02  0.26378669337E+02  0.67213848860E+02  0.41800000000E+01 0.  1.
         -5    1    3    3    0  502  0.32943337131E+02  0.71662040358E+02 -0.54462289337E+01  0.79169724638E+02  0.41800000000E+01 0.  1.
        -11    1    4    4    0    0  0.31217435613E+00 -0.37832357943E+02 -0.58605375691E+02  0.69756539623E+02  0.00000000000E+00 0.  1.
         11    1    4    4    0    0 -0.69985850030E+02  0.15721070486E+02 -0.27700051104E+02  0.76892549007E+02  0.00000000000E+00 0. -1.
</event>
<event>
 8    1  0.5951278E-006  0.1142872E+03  0.7561462E-02  0.1252830E+00
          2   -1    0    0  501    0  0.00000000000E+00  0.00000000000E+00  0.31660079599E+03  0.31660079599E+03  0.00000000000E+00 0. -1.
         -2   -1    0    0    0  501 -0.00000000000E+00 -0.00000000000E+00 -0.10206818208E+03  0.10206818208E+03  0.00000000000E+00 0.  1.
         23    2    1    2    0    0  0.25962652271E+02 -0.66006601875E+02 -0.31549197641E+02  0.14722650532E+03  0.12509740682E+03 0.  0.
         23    2    1    2    0    0 -0.25962652271E+02  0.66006601875E+02  0.24608181155E+03  0.27144247275E+03  0.89965700331E+02 0.  0.
          5    1    3    3  502    0  0.57688103781E+01 -0.98048207635E+02 -0.43201494319E+02  0.10738049965E+03  0.41800000000E+01 0.  1.
         -5    1    3    3    0  502  0.20193841893E+02  0.32041605760E+02  0.11652296678E+02  0.39846005672E+02  0.41800000000E+01 0.  1.
        -11    1    4    4    0    0 -0.32558462546E+02  0.74562104431E+02  0.24751579855E+03  0.26054487412E+03  0.00000000000E+00 0. -1.
         11    1    4    4    0    0  0.65958102747E+01 -0.85555025563E+01 -0.14339870023E+01  0.10897598630E+02  0.00000000000E+00 0.  1.
</event>
<event>
 8    1  0.5951278E-006  0.1221039E+03  0.7561462E-02  0.1239666E+00
          2   -1    0    0  501    0  0.00000000000E+00  0.00000000000E+00  0.13163947382E+03  0.13163947382E+03  0.00000000000E+00 0.  1.
         -2   -1    0    0    0  501 -0.00000000000E+00 -0.00000000000E+00 -0.15458366827E+03  0.15458366827E+03  0.00000000000E+00 0. -1.
         23    2    1    2    0    0  0.18317049387E+02 -0.63168113929E+02 -0.79909119893E+02  0.16235366187E+03  0.12509004423E+03 0.  0.
         23    2    1    2    0    0 -0.18317049387E+02  0.63168113929E+02  0.56964925435E+02  0.12386948022E+03  0.88164167797E+02 0.  0.
          5    1    3    3  502    0  0.70209534650E+02 -0.35588270473E+02 -0.27448774130E+02  0.83467426894E+02  0.41800000000E+01 0. -1.
         -5    1    3    3    0  502 -0.51892485263E+02 -0.27579843456E+02 -0.52460345763E+02  0.78886234981E+02  0.41800000000E+01 0. -1.
        -11    1    4    4    0    0 -0.48902594006E+02  0.57288877794E+02  0.25309314852E+02  0.79460937810E+02  0.00000000000E+00 0. -1.
         11    1    4    4    0    0  0.30585544619E+02  0.58792361353E+01  0.31655610583E+02  0.44408542405E+02  0.00000000000E+00 0.  1.
</event>
<event>
 8    1  0.5951278E-006  0.1028738E+03  0.7561462E-02  0.1274366E+00
          4   -1    0    0  501    0  0.00000000000E+00  0.00000000000E+00  0.71041441793E+03  0.71041441793E+03  0.00000000000E+00 0. -1.
         -4   -1    0    0    0  501 -0.00000000000E+00 -0.00000000000E+00 -0.22524929915E+02  0.22524929915E+02  0.00000000000E+00 0.  1.
         23    2    1    2    0    0 -0.29983191252E+00 -0.20772012076E+02  0.20403008797E+03  0.24022239318E+03  0.12508778918E+03 0.  0.
         23    2    1    2    0    0  0.29983191252E+00  0.20772012076E+02  0.48385940004E+03  0.49271695466E+03  0.90656009305E+02 0.  0.
          5    1    3    3  502    0 -0.34813413431E+02  0.34390750415E+02  0.38796315006E+02  0.62588528716E+02  0.41800000000E+01 0.  1.
         -5    1    3    3    0  502  0.34513581518E+02 -0.55162762490E+02  0.16523377297E+03  0.17763386446E+03  0.41800000000E+01 0.  1.
        -11    1    4    4    0    0  0.69100402712E+01  0.55575767311E+02  0.33859369191E+03  0.34319397251E+03  0.00000000000E+00 0. -1.
         11    1    4    4    0    0 -0.66102083586E+01 -0.34803755235E+02  0.14526570813E+03  0.14952298215E+03  0.00000000000E+00 0.  1.
</event>
<event>
 8    1  0.6320022E-006  0.1261250E+03  0.7561462E-02  0.1233322E+00
         -2   -1    0    0    0  501 -0.00000000000E+00  0.00000000000E+00  0.11665932543E+03  0.11665932543E+03  0.00000000000E+00 0.  1.
          2   -1    0    0  501    0  0.00000000000E+00 -0.00000000000E+00 -0.21638590049E+03  0.21638590049E+03  0.00000000000E+00 0. -1.
         23    2    1    2    0    0 -0.71506638216E+02 -0.93512875221E+02 -0.51572512345E+02  0.17934623079E+03  0.12508992496E+03 0.  0.
         23    2    1    2    0    0  0.71506638216E+02  0.93512875221E+02 -0.48154062706E+02  0.15369899513E+03  0.86294323153E+02 0.  0.
          5    1    3    3  502    0 -0.24134061907E+02 -0.49019934207E+02  0.39380803565E+02  0.67481308399E+02  0.41800000000E+01 0. -1.
         -5    1    3    3    0  502 -0.47372576309E+02 -0.44492941014E+02 -0.90953315910E+02  0.11186492239E+03  0.41800000000E+01 0. -1.
        -11    1    4    4    0    0 -0.93979859982E+01  0.23589668512E+02  0.15016062751E+02  0.29500453249E+02  0.00000000000E+00 0.  1.
         11    1    4    4    0    0  0.80904624215E+02  0.69923206709E+02 -0.63170125457E+02  0.12419854188E+03  0.00000000000E+00 0. -1.
</event>
<event>
 8    1  0.5951278E-006  0.1482194E+03  0.7561462E-02  0.1202678E+00
          3   -1    0    0  501    0  0.00000000000E+00  0.00000000000E+00  0.16414346770E+03  0.16414346770E+03  0.00000000000E+00 0. -1.
         -3   -1    0    0    0  501 -0.00000000000E+00 -0.00000000000E+00 -0.21307768628E+03  0.21307768628E+03  0.00000000000E+00 0.  1.
         23    2    1    2    0    0  0.12714222089E+03  0.25734832615E+02 -0.10798800028E+03  0.21008674668E+03  0.12509039525E+03 0.  0.
         23    2    1    2    0    0 -0.12714222089E+03 -0.25734832615E+02  0.59053781704E+02  0.16713440730E+03  0.87287656792E+02 0.  0.
          5    1    3    3  502    0  0.30368976782E+02 -0.19818866383E+02  0.21280120507E+02  0.42253735270E+02  0.41800000000E+01 0.  1.
         -5    1    3    3    0  502  0.96773244107E+02  0.45553698998E+02 -0.12926812079E+03  0.16783301141E+03  0.41800000000E+01 0.  1.
        -11    1    4    4    0    0  0.52481384443E+00 -0.25220761148E+02  0.23816381044E+02  0.34692682636E+02  0.00000000000E+00 0.  1.
         11    1    4    4    0    0 -0.12766703473E+03 -0.51407146731E+00  0.35237400660E+02  0.13244172467E+03  0.00000000000E+00 0. -1.
</event>
<event>
 8    1  0.5951278E-006  0.1594289E+03  0.7561462E-02  0.1189343E+00
          2   -1    0    0  501    0  0.00000000000E+00  0.00000000000E+00  0.30018867849E+03  0.30018867849E+03  0.00000000000E+00 0. -1.
         -2   -1    0    0    0  501 -0.00000000000E+00 -0.00000000000E+00 -0.95543081104E+02  0.95543081104E+02  0.00000000000E+00 0.  1.
         23    2    1    2    0    0  0.85184845730E+02  0.84712100091E+02  0.51923244016E+02  0.18104207276E+03  0.12509041129E+03 0.  0.
         23    2    1    2    0    0 -0.85184845730E+02 -0.84712100091E+02  0.15272235337E+03  0.21468968684E+03  0.91295928558E+02 0.  0.
          5    1    3    3  502    0  0.11560076432E+03  0.67693202111E+02  0.56866305042E+02  0.14559242897E+03  0.41800000000E+01 0.  1.
         -5    1    3    3    0  502 -0.30415918595E+02  0.17018897980E+02 -0.49430610265E+01  0.35449643788E+02  0.41800000000E+01 0.  1.
        -11    1    4    4    0    0 -0.55452602414E+02  0.45541874296E+01  0.69912338260E+02  0.89350247781E+02  0.00000000000E+00 0.  1.
         11    1    4    4    0    0 -0.29732243316E+02 -0.89266287520E+02  0.82810015115E+02  0.12533943906E+03  0.00000000000E+00 0. -1.
</event>
<event>
 8    1  0.5951278E-006  0.1657285E+03  0.7561462E-02  0.1182377E+00
          2   -1    0    0  501    0  0.00000000000E+00  0.00000000000E+00  0.13380679722E+04  0.13380679722E+04  0.00000000000E+00 0.  1.
         -2   -1    0    0    0  501 -0.00000000000E+00 -0.00000000000E+00 -0.26968127661E+02  0.26968127661E+02  0.00000000000E+00 0. -1.
         23    2    1    2    0    0 -0.15410477602E+03 -0.89515847523E+01  0.62189738267E+03  0.65286473489E+03  0.12509034591E+03 0.  0.
         23    2    1    2    0    0  0.15410477602E+03  0.89515847523E+01  0.68920246186E+03  0.71217136496E+03  0.91430885182E+02 0.  0.
          5    1    3    3  502    0 -0.14229370823E+03  0.41081563376E+01  0.31805230282E+03  0.34848115599E+03  0.41800000000E+01 0. -1.
         -5    1    3    3    0  502 -0.11811067786E+02 -0.13059741090E+02  0.30384507985E+03  0.30438357891E+03  0.41800000000E+01 0. -1.
        -11    1    4    4    0    0  0.10364031750E+03  0.40676288406E+02  0.54277031843E+03  0.55407174122E+03  0.00000000000E+00 0. -1.
         11    1    4    4    0    0  0.50464458516E+02 -0.31724703654E+02  0.14643214344E+03  0.15809962374E+03  0.00000000000E+00 0.  1.
</event>
<event>
 8    1  0.5951278E-006  0.2028546E+03  0.7561462E-02  0.1147353E+00
         -2   -1    0    0    0  501 -0.00000000000E+00  0.00000000000E+00  0.86051943862E+02  0.86051943862E+02  0.00000000000E+00 0.  1.
          2   -1    0    0  501    0  0.00000000000E+00 -0.00000000000E+00 -0.84383088440E+03  0.84383088440E+03  0.00000000000E+00 0. -1.
         23    2    1    2    0    0 -0.15629956398E+03 -0.73292468136E+02 -0.84538279075E+02  0.22933867438E+03  0.12509263508E+03 0.  0.
         23    2    1    2    0    0  0.15629956398E+03  0.73292468136E+02 -0.67324066147E+03  0.70054415389E+03  0.87793984482E+02 0.  0.
          5    1    3    3  502    0 -0.10481848534E+02  0.31505322822E+02 -0.15924628373E+02  0.37061040239E+02  0.41800000000E+01 0.  1.
         -5    1    3    3    0  502 -0.14581771544E+03 -0.10479779096E+03 -0.68613650702E+02  0.19227763414E+03  0.41800000000E+01 0.  1.
        -11    1    4    4    0    0  0.21834722849E+02 -0.19480587859E+02 -0.78551301457E+02  0.83824551211E+02  0.00000000000E+00 0. -1.
         11    1    4    4    0    0  0.13446484113E+03  0.92773055994E+02 -0.59468936001E+03  0.61671960268E+03  0.00000000000E+00 0.  1.
</event>
<event>
 8    1  0.5951278E-006  0.1544557E+03  0.7561462E-02  0.1195102E+00
         -3   -1    0    0    0  501 -0.00000000000E+00  0.00000000000E+00  0.84294450320E+02  0.84294450320E+02  0.00000000000E+00 0.  1.
          3   -1    0    0  501    0  0.00000000000E+00 -0.00000000000E+00 -0.54204981645E+03  0.54204981645E+03  0.00000000000E+00 0. -1.
         23    2    1    2    0    0  0.19235079402E+02 -0.14958976765E+03 -0.83292735985E+02  0.21291804294E+03  0.12509726725E+03 0.  0.
         23    2    1    2    0    0 -0.19235079402E+02  0.14958976765E+03 -0.37446263014E+03  0.41342622383E+03  0.89173394632E+02 0.  0.
          5    1    3    3  502    0  0.18546650937E+02 -0.24114102777E+02  0.30641456668E+02  0.43380173818E+02  0.41800000000E+01 0.  1.
         -5    1    3    3    0  502  0.68842846516E+00 -0.12547566488E+03 -0.11393419265E+03  0.16953786912E+03  0.41800000000E+01 0.  1.
        -11    1    4    4    0    0 -0.14065488808E+01  0.99133553619E+02 -0.13176166053E+03  0.16489564888E+03  0.00000000000E+00 0.  1.
         11    1    4    4    0    0 -0.17828530521E+02  0.50456214036E+02 -0.24270096962E+03  0.24853057496E+03  0.00000000000E+00 0. -1.
</event>
<event>
 8    1  0.5951278E-006  0.7381531E+02  0.7561462E-02  0.1347579E+00
         -1   -1    0    0    0  501 -0.00000000000E+00  0.00000000000E+00  0.72958848139E+02  0.72958848139E+02  0.00000000000E+00 0.  1.
          1   -1    0    0  501    0  0.00000000000E+00 -0.00000000000E+00 -0.19319419998E+03  0.19319419998E+03  0.00000000000E+00 0. -1.
         23    2    1    2    0    0  0.33261925106E+02 -0.14331640379E+02 -0.31698068441E+02  0.13403062872E+03  0.12509072833E+03 0.  0.
         23    2    1    2    0    0 -0.33261925106E+02  0.14331640379E+02 -0.88537283399E+02  0.13212241940E+03  0.91135786491E+02 0.  0.
          5    1    3    3  502    0  0.32754114765E+00 -0.46583508723E+02 -0.62772622083E+02  0.78281575428E+02  0.41800000000E+01 0. -1.
         -5    1    3    3    0  502  0.32934383959E+02  0.32251868344E+02  0.31074553643E+02  0.55749053288E+02  0.41800000000E+01 0. -1.
        -11    1    4    4    0    0 -0.18587443817E+02 -0.13593307767E+02 -0.96809013261E+02  0.99510080556E+02  0.00000000000E+00 0. -1.
         11    1    4    4    0    0 -0.14674481290E+02  0.27924948146E+02  0.82717298627E+01  0.32612338846E+02  0.00000000000E+00 0.  1.
</event>
<event>
 8    1  0.5951278E-006  0.8597847E+02  0.7561462E-02  0.1312893E+00
          1   -1    0    0  501    0  0.00000000000E+00  0.00000000000E+00  0.20506836074E+03  0.20506836074E+03  0.00000000000E+00 0. -1.
         -1   -1    0    0    0  501 -0.00000000000E+00 -0.00000000000E+00 -0.74164512390E+02  0.74164512390E+02  0.00000000000E+00 0.  1.
         23    2    1    2    0    0  0.16301711902E+02  0.45445682531E+02  0.32693540827E+02  0.13799983869E+03  0.12507610481E+03 0.  0.
         23    2    1    2    0    0 -0.16301711902E+02 -0.45445682531E+02  0.98210307526E+02  0.14123303445E+03  0.89277374754E+02 0.  0.
          5    1    3    3  502    0  0.32816508556E+02  0.12337186350E+02 -0.41801900506E+02  0.54717462357E+02  0.41800000000E+01 0. -1.
         -5    1    3    3    0  502 -0.16514796654E+02  0.33108496181E+02  0.74495441333E+02  0.83282376331E+02  0.41800000000E+01 0. -1.
        -11    1    4    4    0    0  0.35789339576E+02 -0.23949463507E+02  0.56910980429E+02  0.71367452827E+02  0.00000000000E+00 0.  1.
         11    1    4    4    0    0 -0.52091051478E+02 -0.21496219024E+02  0.41299327097E+02  0.69865581619E+02  0.00000000000E+00 0. -1.
</event>
<event>
 8    1  0.5951278E-006  0.1152035E+03  0.7561462E-02  0.1251226E+00
         -4   -1    0    0    0  501 -0.00000000000E+00  0.00000000000E+00  0.10655890595E+03  0.10655890595E+03  0.00000000000E+00 0.  1.
          4   -1    0    0  501    0  0.00000000000E+00 -0.00000000000E+00 -0.13428744587E+03  0.13428744587E+03  0.00000000000E+00 0. -1.
         23    2    1    2    0    0 -0.44418569051E+02 -0.20598978849E+02 -0.16778579566E+02  0.13536563874E+03  0.12508000725E+03 0.  0.
         23    2    1    2    0    0  0.44418569051E+02  0.20598978849E+02 -0.10949960348E+02  0.10548071308E+03  0.92784438320E+02 0.  0.
          5    1    3    3  502    0 -0.82305599049E+02 -0.31745429133E+02 -0.30370721297E+02  0.93390775871E+02  0.41800000000E+01 0.  1.
         -5    1    3    3    0  502  0.37887029998E+02  0.11146450284E+02  0.13592141731E+02  0.41974862868E+02  0.41800000000E+01 0.  1.
        -11    1    4    4    0    0  0.36518426256E+02  0.55587511737E+02 -0.18049466451E+02  0.68915529139E+02  0.00000000000E+00 0. -1.
         11    1    4    4    0    0  0.79001427953E+01 -0.34988532888E+02  0.70995061035E+01  0.36565183942E+02  0.00000000000E+00 0.  1.
</event>
<event>
 8    1  0.5951278E-006  0.1129518E+03  0.7561462E-02  0.1255199E+00
          2   -1    0    0  501    0  0.00000000000E+00  0.00000000000E+00  0.49250877850E+03  0.49250877850E+03  0.00000000000E+00 0. -1.
         -2   -1    0    0    0  501 -0.00000000000E+00 -0.00000000000E+00 -0.32681370518E+02  0.32681370518E+02  0.00000000000E+00 0.  1.
         23    2    1    2    0    0  0.63844985461E+01  0.47110891687E+02  0.16246097647E+03  0.21047669590E+03  0.12508666077E+03 0.  0.
         23    2    1    2    0    0 -0.63844985461E+01 -0.47110891687E+02  0.29736643151E+03  0.31471345312E+03  0.91419719143E+02 0.  0.
          5    1    3    3  502    0  0.27589028554E+02  0.82024384219E+02  0.13720112572E+03  0.16226760429E+03  0.41800000000E+01 0. -1.
         -5    1    3    3    0  502 -0.21204530008E+02 -0.34913492532E+02  0.25259850748E+02  0.48209091605E+02  0.41800000000E+01 0. -1.
        -11    1    4    4    0    0 -0.30717901736E+02 -0.62338449183E+02  0.16100284429E+03  0.17536130588E+03  0.00000000000E+00 0.  1.
         11    1    4    4    0    0  0.24333403190E+02  0.15227557496E+02  0.13636358723E+03  0.13935214724E+03  0.00000000000E+00 0. -1.
</event>
<event>
 8    1  0.5951278E-006  0.9185053E+02  0.7561462E-02  0.1298431E+00
         -4   -1    0    0    0  501 -0.00000000000E+00  0.00000000000E+00  0.40751423456E+02  0.40751423456E+02  0.00000000000E+00 0.  1.
          4   -1    0    0  501    0  0.00000000000E+00 -0.00000000000E+00 -0.41652449541E+03  0.41652449541E+03  0.00000000000E+00 0. -1.
         23    2    1    2    0    0  0.16489505311E+02 -0.29077881869E+02 -0.97658129542E+02  0.16217339816E+03  0.12508266789E+03 0.  0.
         23    2    1    2    0    0 -0.16489505311E+02  0.29077881869E+02 -0.27811494241E+03  0.29510252070E+03  0.92844760407E+02 0.  0.
          5    1    3    3  502    0 -0.37902564283E+02  0.10321033453E+02 -0.84957656485E+02  0.93693136922E+02  0.41800000000E+01 0.  1.
         -5    1    3    3    0  502  0.54392069594E+02 -0.39398915322E+02 -0.12700473056E+02  0.68480261237E+02  0.41800000000E+01 0.  1.
        -11    1    4    4    0    0  0.25438337392E+02  0.23454910501E+02 -0.38424677378E+02  0.51707810508E+02  0.00000000000E+00 0.  1.
         11    1    4    4    0    0 -0.41927842703E+02  0.56229713678E+01 -0.23969026503E+03  0.24339471020E+03  0.00000000000E+00 0. -1.
</event>
<event>
 8    1  0.5951278E-006  0.1356985E+03  0.7561462E-02  0.1219237E+00
          2   -1    0    0  501    0  0.00000000000E+00  0.00000000000E+00  0.52256468753E+02  0.52256468753E+02  0.00000000000E+00 0.  1.
         -2   -1    0    0    0  501 -0.00000000000E+00 -0.00000000000E+00 -0.42913181923E+03  0.42913181923E+03  0.00000000000E+00 0. -1.
         23    2    1    2    0    0  0.97058303736E+02  0.34502761117E+02 -0.18803719861E+03  0.24822771396E+03  0.12509298569E+03 0.  0.
         23    2    1    2    0    0 -0.97058303736E+02 -0.34502761117E+02 -0.18883815187E+03  0.23316057402E+03  0.89962496788E+02 0.  0.
          5    1    3    3  502    0  0.10345624805E+03 -0.10008765863E+02 -0.80312578923E+02  0.13141899934E+03  0.41800000000E+01 0.  1.
         -5    1    3    3    0  502 -0.63979443117E+01  0.44511526980E+02 -0.10772461969E+03  0.11680871462E+03  0.41800000000E+01 0.  1.
        -11    1    4    4    0    0 -0.56116654751E+02  0.14887492131E+02 -0.38381863554E+02  0.69598015864E+02  0.00000000000E+00 0.  1.
         11    1    4    4    0    0 -0.40941648985E+02 -0.49390253249E+02 -0.15045628832E+03  0.16356255816E+03  0.00000000000E+00 0. -1.
</event>
<event>
 8    1  0.5951278E-006  0.9493266E+02  0.7561462E-02  0.1291328E+00
         -2   -1    0    0    0  501 -0.00000000000E+00  0.00000000000E+00  0.27482224040E+03  0.27482224040E+03  0.00000000000E+00 0.  1.
          2   -1    0    0  501    0  0.00000000000E+00 -0.00000000000E+00 -0.65096274283E+02  0.65096274283E+02  0.00000000000E+00 0. -1.
         23    2    1    2    0    0  0.28561058056E+02  0.45876103255E+02  0.18905581490E+03  0.23299292785E+03  0.12499300938E+03 0.  0.
         23    2    1    2    0    0 -0.28561058056E+02 -0.45876103255E+02  0.20670151216E+02  0.10692558683E+03  0.89919269798E+02 0.  0.
          5    1    3    3  502    0  0.42240787131E+02 -0.63735645435E+01  0.17036178043E+03  0.17568584192E+03  0.41800000000E+01 0.  1.
         -5    1    3    3    0  502 -0.13679729075E+02  0.52249667799E+02  0.18694034477E+02  0.57307085929E+02  0.41800000000E+01 0.  1.
        -11    1    4    4    0    0  0.24768625623E+02 -0.42779535010E+01  0.29455931815E+02  0.38722572493E+02  0.00000000000E+00 0. -1.
         11    1    4    4    0    0 -0.53329683679E+02 -0.41598149754E+02 -0.87857805986E+01  0.68203014339E+02  0.00000000000E+00 0.  1.
</event>
<event>
 8    1  0.5951278E-006  0.8794389E+02  0.7561462E-02  0.1307909E+00
         -2   -1    0    0    0  501 -0.00000000000E+00  0.00000000000E+00  0.47733299893E+02  0.47733299893E+02  0.00000000000E+00 0.  1.
          2   -1    0    0  501    0  0.00000000000E+00 -0.00000000000E+00 -0.28476434145E+03  0.28476434145E+03  0.00000000000E+00 0. -1.
         23    2    1    2    0    0 -0.20798286036E+02 -0.18763256320E+02 -0.87383466093E+02  0.15513801821E+03  0.12508919241E+03 0.  0.
         23    2    1    2    0    0  0.20798286036E+02  0.18763256320E+02 -0.14964757546E+03  0.17735962313E+03  0.90980275801E+02 0.  0.
          5    1    3    3  502    0  0.46054763830E+02  0.71991621392E+01 -0.64602183214E+02  0.79773326889E+02  0.41800000000E+01 0. -1.
         -5    1    3    3    0  502 -0.66853049866E+02 -0.25962418459E+02 -0.22781282880E+02  0.75364691324E+02  0.41800000000E+01 0. -1.
        -11    1    4    4    0    0  0.34090385263E+02 -0.19860430671E+00 -0.96088959197E+01  0.35419270064E+02  0.00000000000E+00 0.  1.
         11    1    4    4    0    0 -0.13292099227E+02  0.18961860626E+02 -0.14003867954E+03  0.14194035306E+03  0.00000000000E+00 0. -1.
</event>
<event>
 8    1  0.5951278E-006  0.7071486E+02  0.7561462E-02  0.1357679E+00
         -2   -1    0    0    0  501 -0.00000000000E+00  0.00000000000E+00  0.99520069147E+01  0.99520069147E+01  0.00000000000E+00 0.  1.
          2   -1    0    0  501    0  0.00000000000E+00 -0.00000000000E+00 -0.12062590217E+04  0.12062590217E+04  0.00000000000E+00 0. -1.
         23    2    1    2    0    0 -0.14164723810E+02 -0.98262316593E+01 -0.72972580548E+03  0.74057003595E+03  0.12508809990E+03 0.  0.
         23    2    1    2    0    0  0.14164723810E+02  0.98262316593E+01 -0.46658120934E+03  0.47564099269E+03  0.90769679941E+02 0.  0.
          5    1    3    3  502    0 -0.72920558142E+01  0.18142647855E+02 -0.14371572265E+02  0.24624058125E+02  0.41800000000E+01 0.  1.
         -5    1    3    3    0  502 -0.68726679956E+01 -0.27968879514E+02 -0.71535423321E+03  0.71594597782E+03  0.41800000000E+01 0.  1.
        -11    1    4    4    0    0 -0.29173934344E+02  0.32290074368E+02 -0.22849615067E+03  0.23260322056E+03  0.00000000000E+00 0.  1.
         11    1    4    4    0    0  0.43338658154E+02 -0.22463842709E+02 -0.23808505867E+03  0.24303777213E+03  0.00000000000E+00 0. -1.
</event>
<event>
 8    1  0.5951278E-006  0.1671504E+03  0.7561462E-02  0.1180853E+00
         -1   -1    0    0    0  501 -0.00000000000E+00  0.00000000000E+00  0.41352170508E+03  0.41352170508E+03  0.00000000000E+00 0.  1.
          1   -1    0    0  501    0  0.00000000000E+00 -0.00000000000E+00 -0.96207336209E+02  0.96207336209E+02  0.00000000000E+00 0. -1.
         23    2    1    2    0    0  0.10382701386E+03  0.11683622856E+03  0.24922031696E+03  0.31967120729E+03  0.12509261081E+03 0.  0.
         23    2    1    2    0    0 -0.10382701386E+03 -0.11683622856E+03  0.68094051907E+02  0.19005783399E+03  0.83990637846E+02 0.  0.
          5    1    3    3  502    0  0.12013481408E+02  0.16914570773E+02 -0.12681857734E+02  0.24672420950E+02  0.41800000000E+01 0.  1.
         -5    1    3    3    0  502  0.91813532449E+02  0.99921657784E+02  0.26190217469E+03  0.29499878634E+03  0.41800000000E+01 0.  1.
        -11    1    4    4    0    0  0.10278237007E+02 -0.36256212553E+02  0.16606109367E+02  0.41181524656E+02  0.00000000000E+00 0.  1.
         11    1    4    4    0    0 -0.11410525086E+03 -0.80580016004E+02  0.51487942540E+02  0.14887630933E+03  0.00000000000E+00 0. -1.
</event>
<event>
 8    1  0.5951278E-006  0.1856742E+03  0.7561462E-02  0.1162422E+00
         -1   -1    0    0    0  501 -0.00000000000E+00  0.00000000000E+00  0.35187899953E+02  0.35187899953E+02  0.00000000000E+00 0.  1.
          1   -1    0    0  501    0  0.00000000000E+00 -0.00000000000E+00 -0.10097492192E+04  0.10097492192E+04  0.00000000000E+00 0. -1.
         23    2    1    2    0    0  0.99763136838E+02 -0.11605018496E+03 -0.46826952857E+03  0.50827634533E+03  0.12509261745E+03 0.  0.
         23    2    1    2    0    0 -0.99763136838E+02  0.11605018496E+03 -0.50629179072E+03  0.53666077385E+03  0.90846463589E+02 0.  0.
          5    1    3    3  502    0  0.81438482329E+00 -0.91604254107E+02 -0.27262171536E+03  0.28763183877E+03  0.41800000000E+01 0.  1.
         -5    1    3    3    0  502  0.98948752014E+02 -0.24445930858E+02 -0.19564781321E+03  0.22064450656E+03  0.41800000000E+01 0.  1.
        -11    1    4    4    0    0 -0.64892439540E+02  0.95740319063E+01 -0.20308083095E+03  0.21341160862E+03  0.00000000000E+00 0.  1.
         11    1    4    4    0    0 -0.34870697298E+02  0.10647615306E+03 -0.30321095977E+03  0.32324916523E+03  0.00000000000E+00 0. -1.
</event>
<event>
 8    1  0.5951278E-006  0.2264413E+03  0.7561462E-02  0.1129170E+00
         -4   -1    0    0    0  501 -0.00000000000E+00  0.00000000000E+00  0.51843453117E+03  0.51843453117E+03  0.00000000000E+00 0.  1.
          4   -1    0    0  501    0  0.00000000000E+00 -0.00000000000E+00 -0.12233976950E+03  0.12233976950E+03  0.00000000000E+00 0. -1.
         23    2    1    2    0    0  0.21484940037E+03 -0.68358709812E+02  0.20159271795E+03  0.32729275657E+03  0.12509095300E+03 0.  0.
         23    2    1    2    0    0 -0.21484940037E+03  0.68358709812E+02  0.19450204372E+03  0.31348154410E+03  0.98012526918E+02 0.  0.
          5    1    3    3  502    0  0.17675883171E+03 -0.66665368414E+02  0.21539192614E+03  0.28652942289E+03  0.41800000000E+01 0.  1.
         -5    1    3    3    0  502  0.38090568665E+02 -0.16933413981E+01 -0.13799208188E+02  0.40763333683E+02  0.41800000000E+01 0.  1.
        -11    1    4    4    0    0 -0.64904353503E+02  0.23979444716E+02  0.12389170248E+03  0.14190399155E+03  0.00000000000E+00 0.  1.
         11    1    4    4    0    0 -0.14994504687E+03  0.44379265095E+02  0.70610341239E+02  0.17157755255E+03  0.00000000000E+00 0. -1.
</event>
<event>
 8    1  0.5951278E-006  0.1168156E+03  0.7561462E-02  0.1248445E+00
         -2   -1    0    0    0  501 -0.00000000000E+00  0.00000000000E+00  0.51204887055E+02  0.51204887055E+02  0.00000000000E+00 0.  1.
          2   -1    0    0  501    0  0.00000000000E+00 -0.00000000000E+00 -0.38424753845E+03  0.38424753845E+03  0.00000000000E+00 0. -1.
         23    2    1    2    0    0 -0.20819793244E+02  0.96909958349E+02 -0.17024185513E+03  0.23336036618E+03  0.12509903057E+03 0.  0.
         23    2    1    2    0    0  0.20819793244E+02 -0.96909958349E+02 -0.16280079626E+03  0.20209205932E+03  0.67172147194E+02 0.  0.
          5    1    3    3  502    0  0.31464828681E+02  0.10685363151E+02 -0.11185929383E+03  0.11676551908E+03  0.41800000000E+01 0.  1.
         -5    1    3    3    0  502 -0.52284621926E+02  0.86224595198E+02 -0.58382561298E+02  0.11659484710E+03  0.41800000000E+01 0.  1.
        -11    1    4    4    0    0  0.59147474504E+01 -0.37494754959E+02 -0.12788199084E+02  0.40054699133E+02  0.00000000000E+00 0.  1.
         11    1    4    4    0    0  0.14905045794E+02 -0.59415203390E+02 -0.15001259718E+03  0.16203736019E+03  0.00000000000E+00 0. -1.
</event>
<event>
 8    1  0.5951278E-006  0.1093033E+03  0.7561462E-02  0.1261866E+00
         -2   -1    0    0    0  501 -0.00000000000E+00  0.00000000000E+00  0.61423957436E+03  0.61423957436E+03  0.00000000000E+00 0.  1.
          2   -1    0    0  501    0  0.00000000000E+00 -0.00000000000E+00 -0.20645177602E+02  0.20645177602E+02  0.00000000000E+00 0. -1.
         23    2    1    2    0    0  0.16727432827E+02 -0.15604713285E+02  0.39799829373E+03  0.41781989925E+03  0.12509001681E+03 0.  0.
         23    2    1    2    0    0 -0.16727432827E+02  0.15604713285E+02  0.19559610302E+03  0.21706485271E+03  0.91301701411E+02 0.  0.
          5    1    3    3  502    0  0.30857913891E+02 -0.65858712493E+02  0.19463276852E+03  0.20781955597E+03  0.41800000000E+01 0.  1.
         -5    1    3    3    0  502 -0.14130481064E+02  0.50253999208E+02  0.20336552521E+03  0.21000034328E+03  0.41800000000E+01 0.  1.
        -11    1    4    4    0    0 -0.54086966526E+02  0.14562368283E+02  0.10372798240E+03  0.11788535469E+03  0.00000000000E+00 0.  1.
         11    1    4    4    0    0  0.37359533699E+02  0.10423450027E+01  0.91868120621E+02  0.99179498021E+02  0.00000000000E+00 0. -1.
</event>
<event>
 6    1  0.5951278E-006  0.1737887E+03  0.7561462E-02  0.1173953E+00
         -1   -1    0    0    0  501 -0.00000000000E+00  0.00000000000E+00  0.45492713760E+02  0.45492713760E+02  0.00000000000E+00 0.  1.
          1   -1    0    0  501    0  0.00000000000E+00 -0.00000000000E+00 -0.82233855449E+03  0.82233855449E+03  0.00000000000E+00 0. -1.
          5    1    1    2  502    0 -0.71653929458E+02 -0.62432996111E+01 -0.59440285380E+02  0.93401736188E+02  0.41800000000E+01 0. -1.
         -5    1    1    2    0  502  0.81902044633E+02  0.93024810827E+02 -0.25220889497E+03  0.28104867807E+03  0.41800000000E+01 0.  1.
        -11    1    1    2    0    0 -0.58282381663E+02 -0.85489997670E+02 -0.39490667226E+03  0.40823602917E+03  0.00000000000E+00 0. -1.
         11    1    1    2    0    0  0.48034266488E+02 -0.12915135466E+01 -0.70289988114E+02  0.85144824818E+02  0.00000000000E+00 0.  1.
</event>
<event>
 8    1  0.5951278E-006  0.9837652E+02  0.7561462E-02  0.1283747E+00
          3   -1    0    0  501    0  0.00000000000E+00  0.00000000000E+00  0.11871714945E+03  0.11871714945E+03  0.00000000000E+00 0. -1.
         -3   -1    0    0    0  501 -0.00000000000E+00 -0.00000000000E+00 -0.11342180464E+03  0.11342180464E+03  0.00000000000E+00 0.  1.
         23    2    1    2    0    0 -0.26657439730E+02 -0.29253486566E+02 -0.11311499158E+02  0.13168731123E+03  0.12508881787E+03 0.  0.
         23    2    1    2    0    0  0.26657439730E+02  0.29253486566E+02  0.16606843966E+02  0.10045164286E+03  0.90820480716E+02 0.  0.
          5    1    3    3  502    0  0.24621455420E+02  0.15643345057E+02  0.37542242252E+02  0.47726540466E+02  0.41800000000E+01 0. -1.
         -5    1    3    3    0  502 -0.51278895150E+02 -0.44896831623E+02 -0.48853741410E+02  0.83960770765E+02  0.41800000000E+01 0. -1.
        -11    1    4    4    0    0 -0.86860502374E+01  0.54740646458E+02  0.74330384103E+01  0.55921694389E+02  0.00000000000E+00 0. -1.
         11    1    4    4    0    0  0.35343489967E+02 -0.25487159891E+02  0.91738055555E+01  0.44529948470E+02  0.00000000000E+00 0.  1.
</event>
<event>
 7    1  0.8389380E-006  0.4870610E+03  0.7561462E-02  0.1017212E+00
          2   -1    0    0  501    0  0.00000000000E+00  0.00000000000E+00  0.68847629666E+03  0.68847629666E+03  0.00000000000E+00 0. -1.
         -2   -1    0    0    0  501 -0.00000000000E+00 -0.00000000000E+00 -0.42056869020E+03  0.42056869020E+03  0.00000000000E+00 0.  1.
         23    2    1    2    0    0 -0.15188708723E+03 -0.44929032736E+03 -0.80577724900E+02  0.49706378450E+03  0.12509256804E+03 0.  0.
          5    1    3    3  502    0 -0.60950093060E+02 -0.54222300788E+02  0.80124844211E+01  0.82077061676E+02  0.41800000000E+01 0. -1.
         -5    1    3    3    0  502 -0.90936994175E+02 -0.39506802657E+03 -0.88590209321E+02  0.41498672282E+03  0.41800000000E+01 0. -1.
        -11    1    1    2    0    0  0.35466712905E+02  0.27588314038E+03  0.27342758128E+03  0.39004107101E+03  0.00000000000E+00 0. -1.
         11    1    1    2    0    0  0.11642037433E+03  0.17340718698E+03  0.75057750090E+02  0.22194013135E+03  0.00000000000E+00 0.  1.
</event>
<event>
 8    1  0.5951278E-006  0.1008127E+03  0.7561462E-02  0.1278596E+00
          2   -1    0    0  501    0  0.00000000000E+00  0.00000000000E+00  0.18239625342E+03  0.18239625342E+03  0.00000000000E+00 0.  1.
         -2   -1    0    0    0  501 -0.00000000000E+00 -0.00000000000E+00 -0.75025219671E+02  0.75025219671E+02  0.00000000000E+00 0. -1.
         23    2    1    2    0    0  0.39074392619E+02  0.63716260915E+01  0.49727475156E+02  0.14031632554E+03  0.12509373945E+03 0.  0.
         23    2    1    2    0    0 -0.39074392619E+02 -0.63716260915E+01  0.57643558588E+02  0.11710514755E+03  0.93933114274E+02 0.  0.
          5    1    3    3  502    0 -0.16043852698E+02 -0.29591962479E+02  0.64373644092E+02  0.72763506695E+02  0.41800000000E+01 0.  1.
         -5    1    3    3    0  502  0.55118245317E+02  0.35963588570E+02 -0.14646168937E+02  0.67552818847E+02  0.41800000000E+01 0.  1.
        -11    1    4    4    0    0 -0.44850886715E+02  0.36915160813E+02  0.36295633703E+02  0.68496015671E+02  0.00000000000E+00 0.  1.
         11    1    4    4    0    0  0.57764940958E+01 -0.43286786905E+02  0.21347924886E+02  0.48609131874E+02  0.00000000000E+00 0. -1.
</event>
<event>
 8    1  0.5951278E-006  0.7009807E+02  0.7561462E-02  0.1359760E+00
         -1   -1    0    0    0  501 -0.00000000000E+00  0.00000000000E+00  0.91756847885E+02  0.91756847885E+02  0.00000000000E+00 0.  1.
          1   -1    0    0  501    0  0.00000000000E+00 -0.00000000000E+00 -0.15669930436E+03  0.15669930436E+03  0.00000000000E+00 0. -1.
         23    2    1    2    0    0  0.42707608902E+02 -0.18042750057E+02 -0.55995213025E+02  0.14467813497E+03  0.12508724224E+03 0.  0.
         23    2    1    2    0    0 -0.42707608902E+02  0.18042750057E+02 -0.89472434492E+01  0.10377801727E+03  0.92413976298E+02 0.  0.
          5    1    3    3  502    0  0.14344173779E+02  0.23246246956E+02  0.32649055665E+02  0.42773549710E+02  0.41800000000E+01 0.  1.
         -5    1    3    3    0  502  0.28363435123E+02 -0.41288997013E+02 -0.88644268690E+02  0.10190458526E+03  0.41800000000E+01 0.  1.
        -11    1    4    4    0    0 -0.34803550624E+02  0.31334901908E+02  0.34169569478E+02  0.57971740460E+02  0.00000000000E+00 0.  1.
         11    1    4    4    0    0 -0.79040582781E+01 -0.13292151851E+02 -0.43116812928E+02  0.45806276809E+02  0.00000000000E+00 0. -1.
</event>
<event>
 8    1  0.5951278E-006  0.1055838E+03  0.7561462E-02  0.1268974E+00
          1   -1    0    0  501    0  0.00000000000E+00  0.00000000000E+00  0.10515657508E+03  0.10515657508E+03  0.00000000000E+00 0. -1.
         -1   -1    0    0    0  501 -0.00000000000E+00 -0.00000000000E+00 -0.12462782356E+03  0.12462782356E+03  0.00000000000E+00 0.  1.
         23    2    1    2    0    0  0.22490844468E+02 -0.13010051246E+02 -0.38163230193E+02  0.13333205734E+03  0.12508359548E+03 0.  0.
         23    2    1    2    0    0 -0.22490844468E+02  0.13010051246E+02  0.18691981710E+02  0.96452341301E+02  0.90986616839E+02 0.  0.
          5    1    3    3  502    0  0.72102622989E+02  0.99863240629E+01 -0.22037652449E+02  0.76168533107E+02  0.41800000000E+01 0.  1.
         -5    1    3    3    0  502 -0.49611778521E+02 -0.22996375309E+02 -0.16125577743E+02  0.57163524235E+02  0.41800000000E+01 0.  1.
        -11    1    4    4    0    0  0.65576023902E+01  0.41921323056E+02 -0.13293096411E+02  0.44464658866E+02  0.00000000000E+00 0.  1.
         11    1    4    4    0    0 -0.29048446859E+02 -0.28911271809E+02  0.31985078121E+02  0.51987682435E+02  0.00000000000E+00 0. -1.
</event>
<event>
 8    1  0.5951278E-006  0.3663178E+03  0.7561462E-02  0.1056110E+00
          2   -1    0    0  501    0  0.00000000000E+00  0.00000000000E+00  0.66943090797E+03  0.66943090797E+03  0.00000000000E+00 0. -1.
         -2   -1    0    0    0  501 -0.00000000000E+00 -0.00000000000E+00 -0.22229735007E+03  0.22229735007E+03  0.00000000000E+00 0.  1.
         23    2    1    2    0    0  0.66195412027E+02 -0.35010357722E+03  0.34104448168E+03  0.50883164290E+03  0.12507579693E+03 0.  0.
         23    2    1    2    0    0 -0.66195412027E+02  0.35010357722E+03  0.10608907622E+03  0.38289661513E+03  0.91654669426E+02 0.  0.
          5    1    3    3  502    0  0.10103547970E+03 -0.24877068691E+03  0.26573317706E+03  0.37779176355E+03  0.41800000000E+01 0. -1.
         -5    1    3    3    0  502 -0.34840067675E+02 -0.10133289032E+03  0.75311304624E+02  0.13103987935E+03  0.41800000000E+01 0. -1.
        -11    1    4    4    0    0 -0.50372719764E+02  0.21437583441E+03  0.11007236234E+03  0.24619166157E+03  0.00000000000E+00 0. -1.
         11    1    4    4    0    0 -0.15822692263E+02  0.13572774282E+03 -0.39832861203E+01  0.13670495356E+03  0.00000000000E+00 0.  1.
</event>
<event>
 8    1  0.5951278E-006  0.7867571E+02  0.7561462E-02  0.1332852E+00
         -1   -1    0    0    0  501 -0.00000000000E+00  0.00000000000E+00  0.99086740725E+02  0.99086740725E+02  0.00000000000E+00 0.  1.
          1   -1    0    0  501    0  0.00000000000E+00 -0.00000000000E+00 -0.13901633430E+03  0.13901633430E+03  0.00000000000E+00 0. -1.
         23    2    1    2    0    0 -0.43228169296E+01  0.46100223712E+02 -0.20967698690E+02  0.13502193242E+03  0.12508940992E+03 0.  0.
         23    2    1    2    0    0  0.43228169296E+01 -0.46100223712E+02 -0.18961894885E+02  0.10308114260E+03  0.90123532611E+02 0.  0.
          5    1    3    3  502    0 -0.40279339434E+02  0.45282927746E+02 -0.57457137285E+02  0.83616767191E+02  0.41800000000E+01 0.  1.
         -5    1    3    3    0  502  0.35956522505E+02  0.81729596586E+00  0.36489438595E+02  0.51405165230E+02  0.41800000000E+01 0.  1.
        -11    1    4    4    0    0 -0.12063695490E+02 -0.65072720520E+00  0.31187306266E+02  0.33445541809E+02  0.00000000000E+00 0.  1.
         11    1    4    4    0    0  0.16386512420E+02 -0.45449496507E+02 -0.50149201150E+02  0.69635600795E+02  0.00000000000E+00 0. -1.
</event>
<event>
 8    1  0.5951278E-006  0.1578747E+03  0.7561462E-02  0.1191117E+00
         -1   -1    0    0    0  501 -0.00000000000E+00  0.00000000000E+00  0.32131496661E+03  0.32131496661E+03  0.00000000000E+00 0.  1.
          1   -1    0    0  501    0  0.00000000000E+00 -0.00000000000E+00 -0.80908950362E+02  0.80908950362E+02  0.00000000000E+00 0. -1.
         23    2    1    2    0    0 -0.71751940233E+02  0.99346890749E+02  0.10289948898E+03  0.20311054779E+03  0.12508974444E+03 0.  0.
         23    2    1    2    0    0  0.71751940233E+02 -0.99346890749E+02  0.13750652726E+03  0.19911336917E+03  0.75630305535E+02 0.  0.
          5    1    3    3  502    0 -0.10619896438E+03  0.72390761711E+02  0.91168163023E+02  0.15763168706E+03  0.41800000000E+01 0. -1.
         -5    1    3    3    0  502  0.34447024143E+02  0.26956129037E+02  0.11731325957E+02  0.45478860735E+02  0.41800000000E+01 0. -1.
        -11    1    4    4    0    0  0.35711081065E+02 -0.10101077047E+03  0.11155266617E+03  0.15466885398E+03  0.00000000000E+00 0.  1.
         11    1    4    4    0    0  0.36040859169E+02  0.16638797195E+01  0.25953861091E+02  0.44444515194E+02  0.00000000000E+00 0. -1.
</event>
<event>
 8    1  0.5951278E-006  0.1230066E+03  0.7561462E-02  0.1238218E+00
          2   -1    0    0  501    0  0.00000000000E+00  0.00000000000E+00  0.26249307502E+03  0.26249307502E+03  0.00000000000E+00 0. -1.
         -2   -1    0    0    0  501 -0.00000000000E+00 -0.00000000000E+00 -0.71451359020E+02  0.71451359020E+02  0.00000000000E+00 0.  1.
         23    2    1    2    0    0  0.66103498769E+02 -0.47939854864E+02  0.76360871765E+02  0.16777019107E+03  0.12509177448E+03 0.  0.
         23    2    1    2    0    0 -0.66103498769E+02  0.47939854864E+02  0.11468084423E+03  0.16617424296E+03  0.88285223890E+02 0.  0.
          5    1    3    3  502    0 -0.24495279092E+02  0.19232687727E+02  0.36295800085E+02  0.48008045980E+02  0.41800000000E+01 0. -1.
         -5    1    3    3    0  502  0.90598777861E+02 -0.67172542591E+02  0.40065071679E+02  0.11976214509E+03  0.41800000000E+01 0. -1.
        -11    1    4    4    0    0 -0.64837780164E+01 -0.14201910803E+02 -0.69944463264E+01  0.17107189344E+02  0.00000000000E+00 0.  1.
         11    1    4    4    0    0 -0.59619720753E+02  0.62141765668E+02  0.12167529056E+03  0.14906705362E+03  0.00000000000E+00 0. -1.
</event>
<event>
 8    1  0.5951278E-006  0.1894520E+03  0.7561462E-02  0.1158957E+00
          2   -1    0    0  501    0  0.00000000000E+00  0.00000000000E+00  0.29413147027E+03  0.29413147027E+03  0.00000000000E+00 0. -1.
         -2   -1    0    0    0  501 -0.00000000000E+00 -0.00000000000E+00 -0.17010877290E+03  0.17010877290E+03  0.00000000000E+00 0.  1.
         23    2    1    2    0    0  0.66910224726E+02 -0.14487713854E+03 -0.53340047616E+02  0.20966479236E+03  0.12509117089E+03 0.  0.
         23    2    1    2    0    0 -0.66910224726E+02  0.14487713854E+03  0.17736274498E+03  0.25457545081E+03  0.88796133943E+02 0.  0.
          5    1    3    3  502    0  0.43935653453E+01 -0.13252704160E+03 -0.59714886126E+02  0.14548560134E+03  0.41800000000E+01 0.  1.
         -5    1    3    3    0  502  0.62516659381E+02 -0.12350096936E+02  0.63748385094E+01  0.64179191024E+02  0.41800000000E+01 0.  1.
        -11    1    4    4    0    0 -0.88398638151E+02  0.10664010522E+03  0.14023567716E+03  0.19711031535E+03  0.00000000000E+00 0.  1.
         11    1    4    4    0    0  0.21488413425E+02  0.38237033315E+02  0.37127067822E+02  0.57465135459E+02  0.00000000000E+00 0. -1.
</event>
<event>
 8    1  0.5951278E-006  0.4275396E+03  0.7561462E-02  0.1034640E+00
          1   -1    0    0  501    0  0.00000000000E+00  0.00000000000E+00  0.21226920654E+03  0.21226920654E+03  0.00000000000E+00 0. -1.
         -1   -1    0    0    0  501 -0.00000000000E+00 -0.00000000000E+00 -0.10051867509E+04  0.10051867509E+04  0.00000000000E+00 0.  1.
         23    2    1    2    0    0 -0.12869846950E+03 -0.39345344813E+03 -0.62924959565E+03  0.76351706547E+03  0.12503736939E+03 0.  0.
         23    2    1    2    0    0  0.12869846950E+03  0.39345344813E+03 -0.16366794868E+03  0.45393889193E+03  0.88906739274E+02 0.  0.
          5    1    3    3  502    0 -0.51948366622E+02 -0.32589673867E+03 -0.47448760954E+03  0.57798207678E+03  0.41800000000E+01 0.  1.
         -5    1    3    3    0  502 -0.76750102876E+02 -0.67556709458E+02 -0.15476198611E+03  0.18553498869E+03  0.41800000000E+01 0.  1.
        -11    1    4    4    0    0  0.64944738433E+02  0.81016677310E+02 -0.29120940500E+02  0.10784039238E+03  0.00000000000E+00 0. -1.
         11    1    4    4    0    0  0.63753731065E+02  0.31243677082E+03 -0.13454700818E+03  0.34609849956E+03  0.00000000000E+00 0.  1.
</event>
<event>
 8    1  0.5951278E-006  0.7497044E+02  0.7561462E-02  0.1343963E+00
          2   -1    0    0  501    0  0.00000000000E+00  0.00000000000E+00  0.11452726569E+03  0.11452726569E+03  0.00000000000E+00 0.  1.
         -2   -1    0    0    0  501 -0.00000000000E+00 -0.00000000000E+00 -0.11919667536E+03  0.11919667536E+03  0.00000000000E+00 0. -1.
         23    2    1    2    0    0 -0.35336812588E+01  0.16011215978E+02 -0.38594648500E+02  0.13193235434E+03  0.12509098005E+03 0.  0.
         23    2    1    2    0    0  0.35336812588E+01 -0.16011215978E+02  0.33925238839E+02  0.10179158671E+03  0.94560876445E+02 0.  0.
          5    1    3    3  502    0 -0.15231207639E+02 -0.44464751518E+02 -0.50436715036E+02  0.69068360610E+02  0.41800000000E+01 0. -1.
         -5    1    3    3    0  502  0.11697526380E+02  0.60475967496E+02  0.11842066536E+02  0.62863993731E+02  0.41800000000E+01 0. -1.
        -11    1    4    4    0    0  0.20237610309E+02 -0.45066552539E+01 -0.29016462168E+02  0.35662668006E+02  0.00000000000E+00 0. -1.
         11    1    4    4    0    0 -0.16703929050E+02 -0.11504560724E+02  0.62941701007E+02  0.66128918703E+02  0.00000000000E+00 0.  1.
</event>
<event>
 8    1  0.5951278E-006  0.1032419E+03  0.7561462E-02  0.1273623E+00
          1   -1    0    0  501    0  0.00000000000E+00  0.00000000000E+00  0.28387322478E+02  0.28387322478E+02  0.00000000000E+00 0. -1.
         -1   -1    0    0    0  501 -0.00000000000E+00 -0.00000000000E+00 -0.47140159336E+03  0.47140159336E+03  0.00000000000E+00 0.  1.
         23    2    1    2    0    0 -0.14319456708E+02  0.41429027420E+02 -0.23816999351E+03  0.27257584303E+03  0.12510488896E+03 0.  0.
         23    2    1    2    0    0  0.14319456708E+02 -0.41429027420E+02 -0.20484427737E+03  0.22721307280E+03  0.87995405158E+02 0.  0.
          5    1    3    3  502    0 -0.44116668267E+01  0.86022153732E+02 -0.16595580855E+03  0.18702426722E+03  0.41800000000E+01 0.  1.
         -5    1    3    3    0  502 -0.99077898810E+01 -0.44593126312E+02 -0.72214184964E+02  0.85551575816E+02  0.41800000000E+01 0.  1.
        -11    1    4    4    0    0  0.23712815530E+02 -0.53828498312E+02 -0.20323336281E+03  0.21157411139E+03  0.00000000000E+00 0.  1.
         11    1    4    4    0    0 -0.93933588221E+01  0.12399470892E+02 -0.16109145565E+01  0.15638961413E+02  0.00000000000E+00 0. -1.
</event>
<event>
 8    1  0.5951278E-006  0.7132241E+02  0.7561462E-02  0.1355653E+00
          2   -1    0    0  501    0  0.00000000000E+00  0.00000000000E+00  0.11897985444E+03  0.11897985444E+03  0.00000000000E+00 0. -1.
         -2   -1    0    0    0  501 -0.00000000000E+00 -0.00000000000E+00 -0.11168469636E+03  0.11168469636E+03  0.00000000000E+00 0.  1.
         23    2    1    2    0    0  0.64274025486E+01  0.19540444632E+02 -0.29278552302E+02  0.13009879202E+03  0.12508125991E+03 0.  0.
         23    2    1    2    0    0 -0.64274025486E+01 -0.19540444632E+02  0.36573710390E+02  0.10056575878E+03  0.91393079972E+02 0.  0.
          5    1    3    3  502    0  0.41972968543E+02 -0.18467691309E+02  0.26964012308E+02  0.53360248035E+02  0.41800000000E+01 0. -1.
         -5    1    3    3    0  502 -0.35545565995E+02  0.38008135941E+02 -0.56242564610E+02  0.76738543989E+02  0.41800000000E+01 0. -1.
        -11    1    4    4    0    0 -0.21144583375E+02 -0.16260744704E+01 -0.26165149130E+02  0.33680150731E+02  0.00000000000E+00 0.  1.
         11    1    4    4    0    0  0.14717180826E+02 -0.17914370162E+02  0.62738859520E+02  0.66885608046E+02  0.00000000000E+00 0. -1.
</event>
<event>
 8    1  0.5951278E-006  0.1159542E+03  0.7561462E-02  0.1249925E+00
         -1   -1    0    0    0  501 -0.00000000000E+00  0.00000000000E+00  0.21399234208E+02  0.21399234208E+02  0.00000000000E+00 0.  1.
          1   -1    0    0  501    0  0.00000000000E+00 -0.00000000000E+00 -0.67846236458E+03  0.67846236458E+03  0.00000000000E+00 0. -1.
         23    2    1    2    0    0 -0.28712251050E+02 -0.52452375660E+02 -0.29775711314E+03  0.32423923090E+03  0.11356115249E+03 0.  0.
         23    2    1    2    0    0  0.28712251050E+02  0.52452375660E+02 -0.35930601724E+03  0.37562236789E+03  0.91737147156E+02 0.  0.
          5    1    3    3  502    0 -0.72249939288E+02 -0.24577370920E+02 -0.17306405238E+03  0.18918969189E+03  0.41800000000E+01 0.  1.
         -5    1    3    3    0  502  0.43537688238E+02 -0.27875004740E+02 -0.12469306075E+03  0.13504953901E+03  0.41800000000E+01 0.  1.
        -11    1    4    4    0    0  0.12312016666E+02  0.74848242400E+02 -0.30891334894E+03  0.31809008520E+03  0.00000000000E+00 0. -1.
         11    1    4    4    0    0  0.16400234384E+02 -0.22395866740E+02 -0.50392668293E+02  0.57532282699E+02  0.00000000000E+00 0.  1.
</event>
<event>
 8    1  0.5951278E-006  0.1066256E+03  0.7561462E-02  0.1266949E+00
          2   -1    0    0  501    0  0.00000000000E+00  0.00000000000E+00  0.80907611893E+03  0.80907611893E+03  0.00000000000E+00 0.  1.
         -2   -1    0    0    0  501 -0.00000000000E+00 -0.00000000000E+00 -0.18228914980E+02  0.18228914980E+02  0.00000000000E+00 0. -1.
         23    2    1    2    0    0  0.36696203521E+02  0.11870400507E+02  0.30923187710E+03  0.33579517731E+03  0.12508608845E+03 0.  0.
         23    2    1    2    0    0 -0.36696203521E+02 -0.11870400507E+02  0.48161532685E+03  0.49150985661E+03  0.90228035122E+02 0.  0.
          5    1    3    3  502    0  0.29185199870E+01  0.57836972073E+02  0.23510129036E+03  0.24216465933E+03  0.41800000000E+01 0. -1.
         -5    1    3    3    0  502  0.33777683534E+02 -0.45966571566E+02  0.74130586740E+02  0.93630517978E+02  0.41800000000E+01 0. -1.
        -11    1    4    4    0    0 -0.87506518118E+01  0.38991274981E+02  0.18403605333E+03  0.18832461963E+03  0.00000000000E+00 0.  1.
         11    1    4    4    0    0 -0.27945551709E+02 -0.50861675488E+02  0.29757927352E+03  0.30318523698E+03  0.00000000000E+00 0. -1.
</event>
<event>
 8    1  0.5951278E-006  0.1954022E+03  0.7561462E-02  0.1153677E+00
         -2   -1    0    0    0  501 -0.00000000000E+00  0.00000000000E+00  0.13435901389E+03  0.13435901389E+03  0.00000000000E+00 0.  1.
          2   -1    0    0  501    0  0.00000000000E+00 -0.00000000000E+00 -0.38476270098E+03  0.38476270098E+03  0.00000000000E+00 0. -1.
         23    2    1    2    0    0  0.10822255153E+03 -0.14329914861E+03 -0.30161123693E+02  0.22091872520E+03  0.12509445674E+03 0.  0.
         23    2    1    2    0    0 -0.10822255153E+03  0.14329914861E+03 -0.22024256340E+03  0.29820298968E+03  0.90396181728E+02 0.  0.
          5    1    3    3  502    0  0.38171073907E+02  0.41586289595E+01 -0.42155281889E+02  0.57173991195E+02  0.41800000000E+01 0.  1.
         -5    1    3    3    0  502  0.70051477627E+02 -0.14745777757E+03  0.11994158195E+02  0.16374473400E+03  0.41800000000E+01 0.  1.
        -11    1    4    4    0    0 -0.51620422536E+02  0.11399424798E+03 -0.93074955462E+02  0.15595609616E+03  0.00000000000E+00 0.  1.
         11    1    4    4    0    0 -0.56602128998E+02  0.29304900624E+02 -0.12716760793E+03  0.14224689352E+03  0.00000000000E+00 0. -1.
</event>
<event>
 7    1  0.5951278E-006  0.1129117E+03  0.7561462E-02  0.1255271E+00
          2   -1    0    0  501    0  0.00000000000E+00  0.00000000000E+00  0.28534372732E+03  0.28534372732E+03  0.00000000000E+00 0. -1.
         -2   -1    0    0    0  501 -0.00000000000E+00 -0.00000000000E+00 -0.49759377489E+02  0.49759377489E+02  0.00000000000E+00 0.  1.
         23    2    1    2    0    0 -0.10210456687E+02  0.40387116086E+01  0.11878497139E+03  0.15108652265E+03  0.92718408531E+02 0.  0.
          5    1    1    2  502    0  0.66723109323E+02 -0.35999406852E+02  0.74759631843E+02  0.10655705310E+03  0.41800000000E+01 0. -1.
         -5    1    1    2    0  502 -0.56512652636E+02  0.31960695244E+02  0.42039746592E+02  0.77459529059E+02  0.41800000000E+01 0.  1.
        -11    1    3    3    0    0  0.19776035609E+02 -0.32206119920E+02  0.22653535837E+02  0.44062551341E+02  0.00000000000E+00 0. -1.
         11    1    3    3    0    0 -0.29986492296E+02  0.36244831529E+02  0.96131435556E+02  0.10702397131E+03  0.00000000000E+00 0.  1.
</event>
<event>
 7    1  0.5951278E-006  0.1968099E+03  0.7561462E-02  0.1152459E+00
         -2   -1    0    0    0  501 -0.00000000000E+00  0.00000000000E+00  0.17138074810E+04  0.17138074810E+04  0.00000000000E+00 0. -1.
          2   -1    0    0  501    0  0.00000000000E+00 -0.00000000000E+00 -0.31925741827E+02  0.31925741827E+02  0.00000000000E+00 0.  1.
         23    2    1    2    0    0  0.36368068581E+02 -0.16025440728E+03  0.66129120846E+03  0.69278813853E+03  0.12508089792E+03 0.  0.
          5    1    3    3  502    0 -0.86870140459E+01  0.12560751007E+02  0.13472203303E+02  0.20789645036E+02  0.41800000000E+01 0. -1.
         -5    1    3    3    0  502  0.45055082627E+02 -0.17281515829E+03  0.64781900516E+03  0.67199849349E+03  0.41800000000E+01 0. -1.
        -11    1    1    2    0    0 -0.52106260816E+01 -0.17716815137E+02  0.21384014576E+01  0.18590560066E+02  0.00000000000E+00 0.  1.
         11    1    1    2    0    0 -0.31157442500E+02  0.17797122242E+03  0.10184521293E+04  0.10343545243E+04  0.00000000000E+00 0. -1.
</event>
<event>
 8    1  0.5951278E-006  0.9984451E+02  0.7561462E-02  0.1280623E+00
          2   -1    0    0  501    0  0.00000000000E+00  0.00000000000E+00  0.16735290459E+03  0.16735290459E+03  0.00000000000E+00 0. -1.
         -2   -1    0    0    0  501 -0.00000000000E+00 -0.00000000000E+00 -0.79225816337E+02  0.79225816337E+02  0.00000000000E+00 0.  1.
         23    2    1    2    0    0 -0.23177934185E+02 -0.20925290642E+02  0.25130934563E+02  0.13135850315E+03  0.12509359718E+03 0.  0.
         23    2    1    2    0    0  0.23177934185E+02  0.20925290642E+02  0.62996153686E+02  0.11522021777E+03  0.91280330757E+02 0.  0.
          5    1    3    3  502    0 -0.50785765418E+02  0.29287941491E+02 -0.15744995925E+02  0.60846978417E+02  0.41800000000E+01 0.  1.
         -5    1    3    3    0  502  0.27607831233E+02 -0.50213232134E+02  0.40875930488E+02  0.70511524731E+02  0.41800000000E+01 0.  1.
        -11    1    4    4    0    0 -0.24853618785E+02  0.25004738775E+02 -0.79472855883E+00  0.35264300949E+02  0.00000000000E+00 0.  1.
         11    1    4    4    0    0  0.48031552970E+02 -0.40794481326E+01  0.63790882245E+02  0.79955916825E+02  0.00000000000E+00 0. -1.
</event>
<event>
 8    1  0.5951278E-006  0.9795707E+02  0.7561462E-02  0.1284652E+00
         -2   -1    0    0    0  501 -0.00000000000E+00  0.00000000000E+00  0.27007452873E+03  0.27007452873E+03  0.00000000000E+00 0.  1.
          2   -1    0    0  501    0  0.00000000000E+00 -0.00000000000E+00 -0.45568854583E+02  0.45568854583E+02  0.00000000000E+00 0. -1.
         23    2    1    2    0    0 -0.34379654458E+02  0.54444446249E+01  0.13155849298E+03  0.18484642609E+03  0.12509580947E+03 0.  0.
         23    2    1    2    0    0  0.34379654458E+02 -0.54444446249E+01  0.92947181175E+02  0.13079695722E+03  0.85188396586E+02 0.  0.
          5    1    3    3  502    0 -0.78727659786E+02 -0.14283404406E+02  0.70408586769E+02  0.10666255926E+03  0.41800000000E+01 0.  1.
         -5    1    3    3    0  502  0.44348005327E+02  0.19727849031E+02  0.61149906207E+02  0.78183866834E+02  0.41800000000E+01 0.  1.
        -11    1    4    4    0    0  0.26074773880E+01  0.23769996081E+02  0.83172854323E+02  0.86542101594E+02  0.00000000000E+00 0.  1.
         11    1    4    4    0    0  0.31772177070E+02 -0.29214440705E+02  0.97743268522E+01  0.44254855631E+02  0.00000000000E+00 0. -1.
</event>
<event>
 8    1  0.5951278E-006  0.1126476E+03  0.7561462E-02  0.1255744E+00
         -3   -1    0    0    0  501 -0.00000000000E+00  0.00000000000E+00  0.18291624881E+03  0.18291624881E+03  0.00000000000E+00 0.  1.
          3   -1    0    0  501    0  0.00000000000E+00 -0.00000000000E+00 -0.12424803755E+03  0.12424803755E+03  0.00000000000E+00 0. -1.
         23    2    1    2    0    0  0.45228107780E+02 -0.39260504668E+02  0.11094484156E+03  0.17760163324E+03  0.12508642333E+03 0.  0.
         23    2    1    2    0    0 -0.45228107780E+02  0.39260504668E+02 -0.52276630304E+02  0.12956265312E+03  0.10230672533E+03 0.  0.
          5    1    3    3  502    0 -0.15190565408E+02 -0.57253623278E+02  0.12588311348E+02  0.60701471469E+02  0.41800000000E+01 0. -1.
         -5    1    3    3    0  502  0.60418673188E+02  0.17993118610E+02  0.98356530216E+02  0.11690016178E+03  0.41800000000E+01 0. -1.
        -11    1    4    4    0    0 -0.70078278929E+02  0.28407159436E+02 -0.64902265324E+02  0.99650569135E+02  0.00000000000E+00 0. -1.
         11    1    4    4    0    0  0.24850171149E+02  0.10853345233E+02  0.12625635020E+02  0.29912083988E+02  0.00000000000E+00 0.  1.
</event>
<event>
 8    1  0.5951278E-006  0.1532399E+03  0.7561462E-02  0.1196547E+00
          2   -1    0    0  501    0  0.00000000000E+00  0.00000000000E+00  0.10352081941E+04  0.10352081941E+04  0.00000000000E+00 0. -1.
         -2   -1    0    0    0  501 -0.00000000000E+00 -0.00000000000E+00 -0.25874956474E+02  0.25874956474E+02  0.00000000000E+00 0.  1.
         23    2    1    2    0    0  0.66786417480E+02  0.96620746657E+02  0.43071025316E+03  0.46363239035E+03  0.12509067496E+03 0.  0.
         23    2    1    2    0    0 -0.66786417480E+02 -0.96620746657E+02  0.57862298446E+03  0.59745076021E+03  0.91361143227E+02 0.  0.
          5    1    3    3  502    0  0.61084879436E+02 -0.85816659343E+01  0.11197370917E+03  0.12790852760E+03  0.41800000000E+01 0.  1.
         -5    1    3    3    0  502  0.57015380438E+01  0.10520241259E+03  0.31873654399E+03  0.33572386276E+03  0.41800000000E+01 0.  1.
        -11    1    4    4    0    0  0.13566216684E+02 -0.24637607164E-01  0.16041608113E+02  0.21008951258E+02  0.00000000000E+00 0.  1.
         11    1    4    4    0    0 -0.80352634164E+02 -0.96596109050E+02  0.56258137634E+03  0.57644180895E+03  0.00000000000E+00 0. -1.
</event>
<event>
 8    1  0.5951278E-006  0.1809660E+03  0.7561462E-02  0.1166871E+00
         -2   -1    0    0    0  501 -0.00000000000E+00  0.00000000000E+00  0.25863204715E+02  0.25863204715E+02  0.00000000000E+00 0.  1.
          2   -1    0    0  501    0  0.00000000000E+00 -0.00000000000E+00 -0.14427990705E+04  0.14427990705E+04  0.00000000000E+00 0. -1.
         23    2    1    2    0    0 -0.46298914252E+02  0.15106577139E+03 -0.64686462551E+03  0.67753158354E+03  0.12510294249E+03 0.  0.
         23    2    1    2    0    0  0.46298914252E+02 -0.15106577139E+03 -0.77007124032E+03  0.79113069171E+03  0.88958414194E+02 0.  0.
          5    1    3    3  502    0  0.33114446486E+02  0.39381369155E+02 -0.87351371500E+02  0.10146523200E+03  0.41800000000E+01 0.  1.
         -5    1    3    3    0  502 -0.79413360738E+02  0.11168440224E+03 -0.55951325401E+03  0.57606635154E+03  0.41800000000E+01 0.  1.
        -11    1    4    4    0    0 -0.91509326470E+01 -0.90998583656E+02 -0.28786752536E+03  0.30204667512E+03  0.00000000000E+00 0.  1.
         11    1    4    4    0    0  0.55449846899E+02 -0.60067187737E+02 -0.48220371496E+03  0.48908401659E+03  0.00000000000E+00 0. -1.
</event>
<event>
 8    1  0.5951278E-006  0.9407114E+02  0.7561462E-02  0.1293282E+00
         -2   -1    0    0    0  501 -0.00000000000E+00  0.00000000000E+00  0.32103565054E+02  0.32103565054E+02  0.00000000000E+00 0.  1.
          2   -1    0    0  501    0  0.00000000000E+00 -0.00000000000E+00 -0.38642736681E+03  0.38642736681E+03  0.00000000000E+00 0. -1.
         23    2    1    2    0    0  0.20125797032E+02  0.40620334870E+01 -0.19508351424E+03  0.23265495988E+03  0.12509678255E+03 0.  0.
         23    2    1    2    0    0 -0.20125797032E+02 -0.40620334870E+01 -0.15924028751E+03  0.18587597198E+03  0.93652869535E+02 0.  0.
          5    1    3    3  502    0  0.65427290761E+02  0.32304814743E+02 -0.11786664938E+03  0.13868796223E+03  0.41800000000E+01 0.  1.
         -5    1    3    3    0  502 -0.45301493730E+02 -0.28242781256E+02 -0.77216864864E+02  0.93966997646E+02  0.41800000000E+01 0.  1.
        -11    1    4    4    0    0 -0.40723218164E+02 -0.15001830428E+01 -0.15999801906E+03  0.16510601791E+03  0.00000000000E+00 0. -1.
         11    1    4    4    0    0  0.20597421132E+02 -0.25618504443E+01  0.75773155278E+00  0.20769954071E+02  0.00000000000E+00 0.  1.
</event>
<event>
 8    1  0.5951278E-006  0.7524683E+02  0.7561462E-02  0.1343108E+00
         -2   -1    0    0    0  501 -0.00000000000E+00  0.00000000000E+00  0.13373004754E+03  0.13373004754E+03  0.00000000000E+00 0.  1.
          2   -1    0    0  501    0  0.00000000000E+00 -0.00000000000E+00 -0.10180157666E+03  0.10180157666E+03  0.00000000000E+00 0. -1.
         23    2    1    2    0    0  0.44340984203E+02  0.14297207316E+01  0.32991385822E+02  0.13675797836E+03  0.12508455591E+03 0.  0.
         23    2    1    2    0    0 -0.44340984203E+02 -0.14297207316E+01 -0.10629149438E+01  0.98773645831E+02  0.88243619265E+02 0.  0.
          5    1    3    3  502    0  0.41664671410E+02 -0.70029820903E+01 -0.42830799759E+02  0.60307017915E+02  0.41800000000E+01 0. -1.
         -5    1    3    3    0  502  0.26763127934E+01  0.84327028220E+01  0.75822185582E+02  0.76450960448E+02  0.41800000000E+01 0. -1.
        -11    1    4    4    0    0 -0.23718456916E+02 -0.44541519399E+02  0.44873248733E+01  0.50662098588E+02  0.00000000000E+00 0. -1.
         11    1    4    4    0    0 -0.20622527287E+02  0.43111798667E+02 -0.55502398170E+01  0.48111547242E+02  0.00000000000E+00 0.  1.
</event>
<event>
 8    1  0.5951278E-006  0.4164221E+03  0.7561462E-02  0.1038237E+00
         -2   -1    0    0    0  501 -0.00000000000E+00  0.00000000000E+00  0.19521360559E+03  0.19521360559E+03  0.00000000000E+00 0.  1.
          2   -1    0    0  501    0  0.00000000000E+00 -0.00000000000E+00 -0.96796013904E+03  0.96796013904E+03  0.00000000000E+00 0. -1.
         23    2    1    2    0    0 -0.34617358408E+03  0.21398364596E+03 -0.24755623823E+03  0.49250138704E+03  0.12509346145E+03 0.  0.
         23    2    1    2    0    0  0.34617358408E+03 -0.21398364596E+03 -0.52519029522E+03  0.67067235759E+03  0.91386071127E+02 0.  0.
          5    1    3    3  502    0 -0.23033524870E+03  0.70870197162E+02 -0.15288412905E+03  0.28542589398E+03  0.41800000000E+01 0.  1.
         -5    1    3    3    0  502 -0.11583833538E+03  0.14311344880E+03 -0.94672109186E+02  0.20707549306E+03  0.41800000000E+01 0.  1.
        -11    1    4    4    0    0  0.11150826900E+03 -0.82017018935E+02 -0.11469692060E+03  0.17976726355E+03  0.00000000000E+00 0.  1.
         11    1    4    4    0    0  0.23466531508E+03 -0.13196662702E+03 -0.41049337462E+03  0.49090509404E+03  0.00000000000E+00 0. -1.
</event>
<event>
 8    1  0.5951278E-006  0.1467596E+03  0.7561462E-02  0.1204512E+00
          1   -1    0    0  501    0  0.00000000000E+00  0.00000000000E+00  0.16326356795E+03  0.16326356795E+03  0.00000000000E+00 0. -1.
         -1   -1    0    0    0  501 -0.00000000000E+00 -0.00000000000E+00 -0.18725838913E+03  0.18725838913E+03  0.00000000000E+00 0.  1.
         23    2    1    2    0    0  0.96262349121E+01  0.11143017325E+03 -0.90911058729E+02  0.19084532515E+03  0.12509104534E+03 0.  0.
         23    2    1    2    0    0 -0.96262349121E+01 -0.11143017325E+03  0.66916237547E+02  0.15967663193E+03  0.92246929645E+02 0.  0.
          5    1    3    3  502    0  0.52767970468E+02  0.80062581316E+02 -0.13763774395E+02  0.96960762785E+02  0.41800000000E+01 0.  1.
         -5    1    3    3    0  502 -0.43141735556E+02  0.31367591934E+02 -0.77147284334E+02  0.93884562366E+02  0.41800000000E+01 0.  1.
        -11    1    4    4    0    0  0.89825241045E+01  0.14327251562E+02  0.22852730064E+01  0.17063948819E+02  0.00000000000E+00 0.  1.
         11    1    4    4    0    0 -0.18608759017E+02 -0.12575742481E+03  0.64630964541E+02  0.14261268311E+03  0.00000000000E+00 0. -1.
</event>
<event>
 8    1  0.5951278E-006  0.1270866E+03  0.7561462E-02  0.1231844E+00
         -3   -1    0    0    0  501 -0.00000000000E+00  0.00000000000E+00  0.30044478296E+03  0.30044478296E+03  0.00000000000E+00 0.  1.
          3   -1    0    0  501    0  0.00000000000E+00 -0.00000000000E+00 -0.64039730019E+02  0.64039730019E+02  0.00000000000E+00 0. -1.
         23    2    1    2    0    0  0.45999917321E+01  0.83019402209E+02  0.18140498144E+03  0.23551826186E+03  0.12509078029E+03 0.  0.
         23    2    1    2    0    0 -0.45999917321E+01 -0.83019402209E+02  0.55000071501E+02  0.12896625112E+03  0.81816288079E+02 0.  0.
          5    1    3    3  502    0 -0.38652973494E+02  0.96351104957E+02  0.13732450398E+03  0.17220069564E+03  0.41800000000E+01 0. -1.
         -5    1    3    3    0  502  0.43252965226E+02 -0.13331702749E+02  0.44080477464E+02  0.63317566224E+02  0.41800000000E+01 0. -1.
        -11    1    4    4    0    0  0.29113837188E+02 -0.48510675302E+02  0.10425884525E+01  0.56586112473E+02  0.00000000000E+00 0. -1.
         11    1    4    4    0    0 -0.33713828920E+02 -0.34508726907E+02  0.53957483049E+02  0.72380138644E+02  0.00000000000E+00 0.  1.
</event>
<event>
 8    1  0.5951278E-006  0.1354425E+03  0.7561462E-02  0.1219596E+00
         -1   -1    0    0    0  501 -0.00000000000E+00  0.00000000000E+00  0.66302223940E+02  0.66302223940E+02  0.00000000000E+00 0.  1.
          1   -1    0    0  501    0  0.00000000000E+00 -0.00000000000E+00 -0.36505031251E+03  0.36505031251E+03  0.00000000000E+00 0. -1.
         23    2    1    2    0    0  0.38758413069E+02  0.99299907235E+02 -0.14945700980E+03  0.22213975788E+03  0.12508392420E+03 0.  0.
         23    2    1    2    0    0 -0.38758413069E+02 -0.99299907235E+02 -0.14929107877E+03  0.20921277857E+03  0.10059559810E+03 0.  0.
          5    1    3    3  502    0  0.38449620541E+02  0.63669556835E+00 -0.10857522125E+03  0.11525983589E+03  0.41800000000E+01 0.  1.
         -5    1    3    3    0  502  0.30879252796E+00  0.98663211667E+02 -0.40881788554E+02  0.10687992199E+03  0.41800000000E+01 0.  1.
        -11    1    4    4    0    0  0.19187213033E+02 -0.83960885088E+00  0.23533839733E+01  0.19349224872E+02  0.00000000000E+00 0.  1.
         11    1    4    4    0    0 -0.57945626102E+02 -0.98460298384E+02 -0.15164446274E+03  0.18986355370E+03  0.00000000000E+00 0. -1.
</event>
<event>
 8    1  0.5951278E-006  0.1165411E+03  0.7561462E-02  0.1248915E+00
         -1   -1    0    0    0  501 -0.00000000000E+00  0.00000000000E+00  0.14350087210E+02  0.14350087210E+02  0.00000000000E+00 0.  1.
          1   -1    0    0  501    0  0.00000000000E+00 -0.00000000000E+00 -0.13121653654E+04  0.13121653654E+04  0.00000000000E+00 0. -1.
         23    2    1    2    0    0 -0.44839880209E+02 -0.67502364554E+02 -0.81450378508E+03  0.82802834759E+03  0.12508934579E+03 0.  0.
         23    2    1    2    0    0  0.44839880209E+02  0.67502364554E+02 -0.48331149309E+03  0.49848710499E+03  0.91280942247E+02 0.  0.
          5    1    3    3  502    0 -0.62236125040E+02 -0.82320250611E+02 -0.77754645062E+03  0.78437613056E+03  0.41800000000E+01 0.  1.
         -5    1    3    3    0  502  0.17396244832E+02  0.14817886057E+02 -0.36957334457E+02  0.43652217030E+02  0.41800000000E+01 0.  1.
        -11    1    4    4    0    0  0.91612632592E+01  0.70192863553E+02 -0.41859521631E+03  0.42453848112E+03  0.00000000000E+00 0. -1.
         11    1    4    4    0    0  0.35678616950E+02 -0.26904989984E+01 -0.64716276781E+02  0.73948623873E+02  0.00000000000E+00 0.  1.
</event>
<event>
 8    1  0.5951278E-006  0.1180911E+03  0.7561462E-02  0.1246280E+00
          2   -1    0    0  501    0  0.00000000000E+00  0.00000000000E+00  0.25733680397E+03  0.25733680397E+03  0.00000000000E+00 0. -1.
         -2   -1    0    0    0  501 -0.00000000000E+00 -0.00000000000E+00 -0.65336281971E+02  0.65336281971E+02  0.00000000000E+00 0.  1.
         23    2    1    2    0    0  0.49781568032E+02  0.21567410191E+02  0.51720832510E+02  0.14581732479E+03  0.12507713618E+03 0.  0.
         23    2    1    2    0    0 -0.49781568032E+02 -0.21567410191E+02  0.14027968949E+03  0.17685576115E+03  0.93038762203E+02 0.  0.
          5    1    3    3  502    0  0.84850498432E+02 -0.39984656045E+01  0.10281967000E+02  0.85666714987E+02  0.41800000000E+01 0.  1.
         -5    1    3    3    0  502 -0.35068930400E+02  0.25565875795E+02  0.41438865510E+02  0.60150609800E+02  0.41800000000E+01 0.  1.
        -11    1    4    4    0    0  0.86287393574E+01 -0.44094985591E+02  0.53806835615E+02  0.70099917661E+02  0.00000000000E+00 0.  1.
         11    1    4    4    0    0 -0.58410307389E+02  0.22527575401E+02  0.86472853874E+02  0.10675584349E+03  0.00000000000E+00 0. -1.
</event>
<event>
 8    1  0.5951278E-006  0.1143419E+03  0.7561462E-02  0.1252734E+00
         -2   -1    0    0    0  501 -0.00000000000E+00  0.00000000000E+00  0.83696674218E+02  0.83696674218E+02  0.00000000000E+00 0.  1.
          2   -1    0    0  501    0  0.00000000000E+00 -0.00000000000E+00 -0.20863489559E+03  0.20863489559E+03  0.00000000000E+00 0. -1.
         23    2    1    2    0    0  0.50875410281E+02 -0.54602632614E+02 -0.78463151080E+02  0.16545097504E+03  0.12509118357E+03 0.  0.
         23    2    1    2    0    0 -0.50875410281E+02  0.54602632614E+02 -0.46475070288E+02  0.12688059476E+03  0.91482229471E+02 0.  0.
          5    1    3    3  502    0  0.89222428658E+02 -0.38192699349E+02 -0.30650200157E+02  0.10186378762E+03  0.41800000000E+01 0. -1.
         -5    1    3    3    0  502 -0.38347018376E+02 -0.16409933265E+02 -0.47812950923E+02  0.63587187421E+02  0.41800000000E+01 0. -1.
        -11    1    4    4    0    0 -0.19337704873E+02 -0.68771221781E+01  0.21660701230E+02  0.29840033797E+02  0.00000000000E+00 0.  1.
         11    1    4    4    0    0 -0.31537705408E+02  0.61479754793E+02 -0.68135771519E+02  0.97040560964E+02  0.00000000000E+00 0. -1.
</event>
<event>
 8    1  0.5951278E-006  0.1027742E+03  0.7561462E-02  0.1274568E+00
         -2   -1    0    0    0  501 -0.00000000000E+00  0.00000000000E+00  0.72498621212E+02  0.72498621212E+02  0.00000000000E+00 0.  1.
          2   -1    0    0  501    0  0.00000000000E+00 -0.00000000000E+00 -0.23827502201E+03  0.23827502201E+03  0.00000000000E+00 0. -1.
         23    2    1    2    0    0 -0.73939515325E+02  0.20004296571E+01 -0.78912295454E+02  0.16536832587E+03  0.12509388148E+03 0.  0.
         23    2    1    2    0    0  0.73939515325E+02 -0.20004296571E+01 -0.86864105345E+02  0.14540531735E+03  0.90145881051E+02 0.  0.
          5    1    3    3  502    0 -0.50168931390E+02 -0.29728297593E+02 -0.10325535707E+03  0.11865847849E+03  0.41800000000E+01 0.  1.
         -5    1    3    3    0  502 -0.23770583935E+02  0.31728727251E+02  0.24343061616E+02  0.46709847382E+02  0.41800000000E+01 0.  1.
        -11    1    4    4    0    0 -0.10785919454E+01  0.26829444221E+02  0.29006327598E+00  0.26852682817E+02  0.00000000000E+00 0. -1.
         11    1    4    4    0    0  0.75018107270E+02 -0.28829873878E+02 -0.87154168621E+02  0.11855263453E+03  0.00000000000E+00 0.  1.
</event>
<event>
 8    1  0.5951278E-006  0.1222153E+03  0.7561462E-02  0.1239487E+00
          1   -1    0    0  501    0  0.00000000000E+00  0.00000000000E+00  0.57497657524E+03  0.57497657524E+03  0.00000000000E+00 0. -1.
         -1   -1    0    0    0  501 -0.00000000000E+00 -0.00000000000E+00 -0.29035028575E+02  0.29035028575E+02  0.00000000000E+00 0.  1.
         23    2    1    2    0    0 -0.99113527290E+01  0.59384831913E+02  0.22062889716E+03  0.26067061057E+03  0.12508902341E+03 0.  0.
         23    2    1    2    0    0  0.99113527290E+01 -0.59384831913E+02  0.32531264950E+03  0.34334099324E+03  0.91814620521E+02 0.  0.
          5    1    3    3  502    0  0.51206695327E+02  0.52951234260E+02  0.91003939093E+02  0.11715437758E+03  0.41800000000E+01 0. -1.
         -5    1    3    3    0  502 -0.61118048056E+02  0.64335976529E+01  0.12962495807E+03  0.14351623299E+03  0.41800000000E+01 0. -1.
        -11    1    4    4    0    0 -0.57043922956E+01 -0.81654865784E+02  0.26034471920E+03  0.27290919737E+03  0.00000000000E+00 0. -1.
         11    1    4    4    0    0  0.15615745025E+02  0.22270033871E+02  0.64967930302E+02  0.70431795867E+02  0.00000000000E+00 0.  1.
</event>
<event>
 8    1  0.5951278E-006  0.1031882E+03  0.7561462E-02  0.1273731E+00
         -1   -1    0    0    0  501 -0.00000000000E+00  0.00000000000E+00  0.64594692711E+02  0.64594692711E+02  0.00000000000E+00 0. -1.
          1   -1    0    0  501    0  0.00000000000E+00 -0.00000000000E+00 -0.25667947693E+03  0.25667947693E+03  0.00000000000E+00 0.  1.
         23    2    1    2    0    0 -0.51766097553E+01  0.29214365226E+02 -0.31718418918E+02  0.13241697647E+03  0.12509165094E+03 0.  0.
         23    2    1    2    0    0  0.51766097553E+01 -0.29214365226E+02 -0.16036636530E+03  0.18885719317E+03  0.95233354808E+02 0.  0.
          5    1    3    3  502    0 -0.14979081673E+02  0.71404740948E+02  0.79813459458E+01  0.73513156650E+02  0.41800000000E+01 0.  1.
         -5    1    3    3    0  502  0.98024719174E+01 -0.42190375722E+02 -0.39699764863E+02  0.58903819821E+02  0.41800000000E+01 0.  1.
        -11    1    4    4    0    0  0.40232129607E+02  0.53093576433E+01 -0.11493461352E+03  0.12188838713E+03  0.00000000000E+00 0.  1.
         11    1    4    4    0    0 -0.35055519852E+02 -0.34523722869E+02 -0.45431751780E+02  0.66968806042E+02  0.00000000000E+00 0. -1.
</event>
<event>
 8    1  0.5951278E-006  0.9997091E+02  0.7561462E-02  0.1280357E+00
         -3   -1    0    0    0  501 -0.00000000000E+00  0.00000000000E+00  0.94141058220E+02  0.94141058220E+02  0.00000000000E+00 0.  1.
          3   -1    0    0  501    0  0.00000000000E+00 -0.00000000000E+00 -0.20081356440E+03  0.20081356440E+03  0.00000000000E+00 0. -1.
         23    2    1    2    0    0 -0.46173272670E+02 -0.50841375426E+02 -0.84442024814E+01  0.14294515556E+03  0.12508075943E+03 0.  0.
         23    2    1    2    0    0  0.46173272670E+02  0.50841375426E+02 -0.98228303697E+02  0.15200946705E+03  0.93494715695E+02 0.  0.
          5    1    3    3  502    0 -0.80599748686E+02 -0.26348638675E+02 -0.36120555050E+02  0.92264495584E+02  0.41800000000E+01 0. -1.
         -5    1    3    3    0  502  0.34426476016E+02 -0.24492736751E+02  0.27676352569E+02  0.50680659979E+02  0.41800000000E+01 0. -1.
        -11    1    4    4    0    0  0.24818554438E+02  0.10516073004E+02  0.14349058972E+02  0.30535944872E+02  0.00000000000E+00 0.  1.
         11    1    4    4    0    0  0.21354718231E+02  0.40325302422E+02 -0.11257736267E+03  0.12147352218E+03  0.00000000000E+00 0. -1.
</event>
<event>
 8    1  0.5951278E-006  0.1426489E+03  0.7561462E-02  0.1209808E+00
         -1   -1    0    0    0  501 -0.00000000000E+00  0.00000000000E+00  0.50002946049E+03  0.50002946049E+03  0.00000000000E+00 0.  1.
          1   -1    0    0  501    0  0.00000000000E+00 -0.00000000000E+00 -0.50017400850E+02  0.50017400850E+02  0.00000000000E+00 0. -1.
         23    2    1    2    0    0  0.81594208667E+02  0.74489974288E+02  0.27989472933E+03  0.32587581696E+03  0.12509043695E+03 0.  0.
         23    2    1    2    0    0 -0.81594208667E+02 -0.74489974288E+02  0.17011733031E+03  0.22417104438E+03  0.95427354094E+02 0.  0.
          5    1    3    3  502    0  0.87923297364E+02  0.10347324375E+03  0.21380399365E+03  0.25331174172E+03  0.41800000000E+01 0.  1.
         -5    1    3    3    0  502 -0.63290886968E+01 -0.28983269466E+02  0.66090735686E+02  0.72564075245E+02  0.41800000000E+01 0.  1.
        -11    1    4    4    0    0 -0.56994804999E+02 -0.21223629984E+02  0.15047051836E+03  0.16229672567E+03  0.00000000000E+00 0.  1.
         11    1    4    4    0    0 -0.24599403668E+02 -0.53266344304E+02  0.19646811946E+02  0.61874318712E+02  0.00000000000E+00 0. -1.
</event>
<event>
 8    1  0.5951278E-006  0.9436741E+02  0.7561462E-02  0.1292607E+00
          1   -1    0    0  501    0  0.00000000000E+00  0.00000000000E+00  0.49610355428E+03  0.49610355428E+03  0.00000000000E+00 0. -1.
         -1   -1    0    0    0  501 -0.00000000000E+00 -0.00000000000E+00 -0.29297073752E+02  0.29297073752E+02  0.00000000000E+00 0.  1.
         23    2    1    2    0    0  0.36614768777E+02 -0.25996274277E+02  0.20511302521E+03  0.24439916248E+03  0.12507257870E+03 0.  0.
         23    2    1    2    0    0 -0.36614768777E+02  0.25996274277E+02  0.26169345532E+03  0.28100146555E+03  0.91988648837E+02 0.  0.
          5    1    3    3  502    0  0.42857747020E+02  0.21398383856E+02  0.18704017696E+03  0.19312218284E+03  0.41800000000E+01 0.  1.
         -5    1    3    3    0  502 -0.62429782425E+01 -0.47394658133E+02  0.18072848253E+02  0.51276979639E+02  0.41800000000E+01 0.  1.
        -11    1    4    4    0    0  0.20703263127E+02  0.28575883134E+02  0.46994263511E+02  0.58767907942E+02  0.00000000000E+00 0.  1.
         11    1    4    4    0    0 -0.57318031904E+02 -0.25796088569E+01  0.21469919181E+03  0.22223355761E+03  0.00000000000E+00 0. -1.
</event>
<event>
 8    1  0.5951278E-006  0.1515396E+03  0.7561462E-02  0.1198594E+00
          2   -1    0    0  501    0  0.00000000000E+00  0.00000000000E+00  0.53250915375E+03  0.53250915375E+03  0.00000000000E+00 0. -1.
         -2   -1    0    0    0  501 -0.00000000000E+00 -0.00000000000E+00 -0.45914763656E+02  0.45914763656E+02  0.00000000000E+00 0.  1.
         23    2    1    2    0    0 -0.22444287363E+02 -0.10995395695E+03  0.24911056345E+03  0.30049610429E+03  0.12509283428E+03 0.  0.
         23    2    1    2    0    0  0.22444287363E+02  0.10995395695E+03  0.23748382664E+03  0.27792781311E+03  0.90838773106E+02 0.  0.
          5    1    3    3  502    0  0.41607546104E+02 -0.10375860541E+02  0.10781000709E+03  0.11610045824E+03  0.41800000000E+01 0.  1.
         -5    1    3    3    0  502 -0.64051833467E+02 -0.99578096411E+02  0.14130055636E+03  0.18439564605E+03  0.41800000000E+01 0.  1.
        -11    1    4    4    0    0  0.12658235290E+02  0.12386636529E+03  0.22377075917E+03  0.25607901130E+03  0.00000000000E+00 0. -1.
         11    1    4    4    0    0  0.97860520730E+01 -0.13912408338E+02  0.13713067475E+02  0.21848801810E+02  0.00000000000E+00 0.  1.
</event>
<event>
 8    1  0.5951278E-006  0.9505891E+02  0.7561462E-02  0.1291043E+00
          2   -1    0    0  501    0  0.00000000000E+00  0.00000000000E+00  0.21187106633E+03  0.21187106633E+03  0.00000000000E+00 0. -1.
         -2   -1    0    0    0  501 -0.00000000000E+00 -0.00000000000E+00 -0.69969775385E+02  0.69969775385E+02  0.00000000000E+00 0.  1.
         23    2    1    2    0    0 -0.42018247882E+02 -0.27775719439E+02  0.59054853116E+02  0.14721932562E+03  0.12509608473E+03 0.  0.
         23    2    1    2    0    0  0.42018247882E+02  0.27775719439E+02  0.82846437831E+02  0.13462151610E+03  0.93393771685E+02 0.  0.
          5    1    3    3  502    0 -0.11160623523E+02  0.41968454884E+02  0.55718044986E+02  0.70766402055E+02  0.41800000000E+01 0. -1.
         -5    1    3    3    0  502 -0.30857624359E+02 -0.69744174323E+02  0.33368081300E+01  0.76452923564E+02  0.41800000000E+01 0. -1.
        -11    1    4    4    0    0  0.49484938645E+02  0.95282103510E+01  0.97703637555E+02  0.10993428372E+03  0.00000000000E+00 0. -1.
         11    1    4    4    0    0 -0.74666907626E+01  0.18247509088E+02 -0.14857199724E+02  0.24687232378E+02  0.00000000000E+00 0.  1.
</event>
<event>
 8    1  0.5951278E-006  0.1398184E+03  0.7561462E-02  0.1213574E+00
          1   -1    0    0  501    0  0.00000000000E+00  0.00000000000E+00  0.59298821966E+02  0.59298821966E+02  0.00000000000E+00 0. -1.
         -1   -1    0    0    0  501 -0.00000000000E+00 -0.00000000000E+00 -0.41437316072E+03  0.41437316072E+03  0.00000000000E+00 0.  1.
         23    2    1    2    0    0  0.25461202681E+02  0.12039004378E+03 -0.22118912744E+03  0.28233698500E+03  0.12508999766E+03 0.  0.
         23    2    1    2    0    0 -0.25461202681E+02 -0.12039004378E+03 -0.13388521131E+03  0.19133499769E+03  0.59512990582E+02 0.  0.
          5    1    3    3  502    0  0.17429816783E+02 -0.49160848812E+01  0.85747357827E+01  0.20468632035E+02  0.41800000000E+01 0. -1.
         -5    1    3    3    0  502  0.80313858982E+01  0.12530612866E+03 -0.22976386322E+03  0.26186835296E+03  0.41800000000E+01 0. -1.
        -11    1    4    4    0    0 -0.30463135533E+02 -0.23694571316E+02 -0.26914170319E+02  0.47051120075E+02  0.00000000000E+00 0. -1.
         11    1    4    4    0    0  0.50019328513E+01 -0.96695472466E+02 -0.10697104099E+03  0.14428387761E+03  0.00000000000E+00 0.  1.
</event>
